<event>
 4    0  0.2156764E-002  0.2317174E+03  0.7546771E-02  0.1125437E+00
         21   -1    0    0  502  501  0.00000000000E+00  0.00000000000E+00  0.23756979592E+03  0.23756979592E+03  0.00000000000E+00 0.  1.
         21   -1    0    0  501  502 -0.00000000000E+00 -0.00000000000E+00 -0.22600917002E+03  0.22600917002E+03  0.00000000000E+00 0.  1.
         25    1    1    2    0    0  0.70472580726E+02  0.61871280326E+02 -0.16536795242E+03  0.22752142679E+03  0.12500000000E+03 0.  0.
         25    1    1    2    0    0 -0.70472580726E+02 -0.61871280326E+02  0.17692857831E+03  0.23605753915E+03  0.12500000000E+03 0.  0.
</event>
<event>
 4    0  0.2156764E-002  0.1882199E+03  0.7546771E-02  0.1160077E+00
         21   -1    0    0  502  501  0.00000000000E+00  0.00000000000E+00  0.20848312941E+03  0.20848312941E+03  0.00000000000E+00 0.  1.
         21   -1    0    0  501  502 -0.00000000000E+00 -0.00000000000E+00 -0.16992619014E+03  0.16992619014E+03  0.00000000000E+00 0.  1.
         25    1    1    2    0    0 -0.71504104126E+02 -0.14146231756E+02  0.14027760997E+03  0.20153352237E+03  0.12500000000E+03 0.  0.
         25    1    1    2    0    0  0.71504104126E+02  0.14146231756E+02 -0.10172067071E+03  0.17687579718E+03  0.12500000000E+03 0.  0.
</event>
<event>
 4    0  0.2156764E-002  0.2292703E+03  0.7546771E-02  0.1127154E+00
         21   -1    0    0  502  501  0.00000000000E+00  0.00000000000E+00  0.69234838603E+03  0.69234838603E+03  0.00000000000E+00 0. -1.
         21   -1    0    0  501  502 -0.00000000000E+00 -0.00000000000E+00 -0.75922541658E+02  0.75922541658E+02  0.00000000000E+00 0. -1.
         25    1    1    2    0    0 -0.11248797545E+03  0.87653370081E+02  0.52410289808E+03  0.55735581605E+03  0.12500000000E+03 0.  0.
         25    1    1    2    0    0  0.11248797545E+03 -0.87653370081E+02  0.92322946294E+02  0.21091511164E+03  0.12500000000E+03 0.  0.
</event>
<event>
 4    0  0.2156764E-002  0.1840869E+03  0.7546771E-02  0.1163905E+00
         21   -1    0    0  502  501  0.00000000000E+00  0.00000000000E+00  0.10611938434E+04  0.10611938434E+04  0.00000000000E+00 0. -1.
         21   -1    0    0  501  502 -0.00000000000E+00 -0.00000000000E+00 -0.31933844715E+02  0.31933844715E+02  0.00000000000E+00 0. -1.
         25    1    1    2    0    0 -0.66565602177E+02 -0.52249278391E+02  0.82746777486E+03  0.84112358481E+03  0.12500000000E+03 0.  0.
         25    1    1    2    0    0  0.66565602177E+02  0.52249278391E+02  0.20179222380E+03  0.25200410328E+03  0.12500000000E+03 0.  0.
</event>
<event>
 4    0  0.2156764E-002  0.2802804E+03  0.7546771E-02  0.1095536E+00
         21   -1    0    0  502  501  0.00000000000E+00  0.00000000000E+00  0.93009669124E+02  0.93009669124E+02  0.00000000000E+00 0.  1.
         21   -1    0    0  501  502 -0.00000000000E+00 -0.00000000000E+00 -0.84461230813E+03  0.84461230813E+03  0.00000000000E+00 0. -1.
         25    1    1    2    0    0  0.21696588365E+03 -0.56603250479E+02 -0.56395761372E+03  0.61963804976E+03  0.12500000000E+03 0.  0.
         25    1    1    2    0    0 -0.21696588365E+03  0.56603250479E+02 -0.18764502528E+03  0.31798392750E+03  0.12500000000E+03 0.  0.
</event>
<event>
 4    0  0.2156764E-002  0.2385126E+03  0.7546771E-02  0.1120788E+00
         21   -1    0    0  502  501  0.00000000000E+00  0.00000000000E+00  0.68721029434E+03  0.68721029434E+03  0.00000000000E+00 0. -1.
         21   -1    0    0  501  502 -0.00000000000E+00 -0.00000000000E+00 -0.82781431227E+02  0.82781431227E+02  0.00000000000E+00 0. -1.
         25    1    1    2    0    0 -0.51186312032E+02  0.22418557997E+02 -0.13023632195E+02  0.13753997702E+03  0.12500000000E+03 0.  0.
         25    1    1    2    0    0  0.51186312032E+02 -0.22418557997E+02  0.61745249530E+03  0.63245174855E+03  0.12500000000E+03 0.  0.
</event>
<event>
 4    0  0.2156764E-002  0.1890338E+03  0.7546771E-02  0.1159336E+00
         21   -1    0    0  502  501  0.00000000000E+00  0.00000000000E+00  0.78441036939E+03  0.78441036939E+03  0.00000000000E+00 0. -1.
         21   -1    0    0  501  502 -0.00000000000E+00 -0.00000000000E+00 -0.45554946803E+02  0.45554946803E+02  0.00000000000E+00 0. -1.
         25    1    1    2    0    0 -0.61548699291E+02  0.14068700060E+02  0.64817334868E+03  0.66312884166E+03  0.12500000000E+03 0.  0.
         25    1    1    2    0    0  0.61548699291E+02 -0.14068700060E+02  0.90682073908E+02  0.16683647453E+03  0.12500000000E+03 0.  0.
</event>
<event>
 4    0  0.2156764E-002  0.2233756E+03  0.7546771E-02  0.1131391E+00
         21   -1    0    0  502  501  0.00000000000E+00  0.00000000000E+00  0.11180750838E+03  0.11180750838E+03  0.00000000000E+00 0. -1.
         21   -1    0    0  501  502 -0.00000000000E+00 -0.00000000000E+00 -0.44627274535E+03  0.44627274535E+03  0.00000000000E+00 0. -1.
         25    1    1    2    0    0 -0.43022333281E+02 -0.17496912939E+03 -0.22032755919E+03  0.31086066129E+03  0.12500000000E+03 0.  0.
         25    1    1    2    0    0  0.43022333281E+02  0.17496912939E+03 -0.11413767778E+03  0.24721959245E+03  0.12500000000E+03 0.  0.
</event>
<event>
 4    0  0.2156764E-002  0.2091979E+03  0.7546771E-02  0.1142203E+00
         21   -1    0    0  502  501  0.00000000000E+00  0.00000000000E+00  0.10185218219E+03  0.10185218219E+03  0.00000000000E+00 0. -1.
         21   -1    0    0  501  502 -0.00000000000E+00 -0.00000000000E+00 -0.42967928463E+03  0.42967928463E+03  0.00000000000E+00 0. -1.
         25    1    1    2    0    0  0.12053552463E+03  0.82949140796E+01 -0.16081210510E+02  0.17458872710E+03  0.12500000000E+03 0.  0.
         25    1    1    2    0    0 -0.12053552463E+03 -0.82949140796E+01 -0.31174589194E+03  0.35694273972E+03  0.12500000000E+03 0.  0.
</event>
<event>
 4    0  0.2156764E-002  0.2519306E+03  0.7546771E-02  0.1112091E+00
         21   -1    0    0  502  501  0.00000000000E+00  0.00000000000E+00  0.37308900667E+03  0.37308900667E+03  0.00000000000E+00 0.  1.
         21   -1    0    0  501  502 -0.00000000000E+00 -0.00000000000E+00 -0.17011762076E+03  0.17011762076E+03  0.00000000000E+00 0.  1.
         25    1    1    2    0    0 -0.56137163785E+02 -0.12733357670E+03 -0.80448772548E+02  0.20362275393E+03  0.12500000000E+03 0.  0.
         25    1    1    2    0    0  0.56137163785E+02  0.12733357670E+03  0.28342015846E+03  0.33958387349E+03  0.12500000000E+03 0.  0.
</event>
<event>
 4    0  0.2156764E-002  0.2641112E+03  0.7546771E-02  0.1104698E+00
         21   -1    0    0  502  501  0.00000000000E+00  0.00000000000E+00  0.10017627151E+03  0.10017627151E+03  0.00000000000E+00 0.  1.
         21   -1    0    0  501  502 -0.00000000000E+00 -0.00000000000E+00 -0.69631992539E+03  0.69631992539E+03  0.00000000000E+00 0.  1.
         25    1    1    2    0    0  0.39730645919E+02 -0.22855217281E+03 -0.27130476499E+03  0.37821408676E+03  0.12500000000E+03 0.  0.
         25    1    1    2    0    0 -0.39730645919E+02  0.22855217281E+03 -0.32483888889E+03  0.41828211013E+03  0.12500000000E+03 0.  0.
</event>
<event>
 4    0  0.2156764E-002  0.2435050E+03  0.7546771E-02  0.1117480E+00
         21   -1    0    0  502  501  0.00000000000E+00  0.00000000000E+00  0.43271904426E+02  0.43271904426E+02  0.00000000000E+00 0. -1.
         21   -1    0    0  501  502 -0.00000000000E+00 -0.00000000000E+00 -0.13702813834E+04  0.13702813834E+04  0.00000000000E+00 0. -1.
         25    1    1    2    0    0  0.16167855260E+03  0.12397227271E+03 -0.52858915348E+03  0.58012117005E+03  0.12500000000E+03 0.  0.
         25    1    1    2    0    0 -0.16167855260E+03 -0.12397227271E+03 -0.79842032554E+03  0.83343211782E+03  0.12500000000E+03 0.  0.
</event>
<event>
 4    0  0.2156764E-002  0.1743742E+03  0.7546771E-02  0.1173362E+00
         21   -1    0    0  502  501  0.00000000000E+00  0.00000000000E+00  0.40821007724E+03  0.40821007724E+03  0.00000000000E+00 0.  1.
         21   -1    0    0  501  502 -0.00000000000E+00 -0.00000000000E+00 -0.74487034712E+02  0.74487034712E+02  0.00000000000E+00 0.  1.
         25    1    1    2    0    0 -0.74113628198E+02 -0.76636797901E+02  0.24774853589E+03  0.29727153532E+03  0.12500000000E+03 0.  0.
         25    1    1    2    0    0  0.74113628198E+02  0.76636797901E+02  0.85974506640E+02  0.18542557663E+03  0.12500000000E+03 0.  0.
</event>
<event>
 4    0  0.2156764E-002  0.2132201E+03  0.7546771E-02  0.1139041E+00
         21   -1    0    0  502  501  0.00000000000E+00  0.00000000000E+00  0.10728831337E+03  0.10728831337E+03  0.00000000000E+00 0. -1.
         21   -1    0    0  501  502 -0.00000000000E+00 -0.00000000000E+00 -0.42374442242E+03  0.42374442242E+03  0.00000000000E+00 0. -1.
         25    1    1    2    0    0  0.11402868254E+03  0.16100345894E+02  0.20978814240E+01  0.16997400591E+03  0.12500000000E+03 0.  0.
         25    1    1    2    0    0 -0.11402868254E+03 -0.16100345894E+02 -0.31855399047E+03  0.36105872988E+03  0.12500000000E+03 0.  0.
</event>
<event>
 4    0  0.2156764E-002  0.1946095E+03  0.7546771E-02  0.1154368E+00
         21   -1    0    0  502  501  0.00000000000E+00  0.00000000000E+00  0.86898154117E+03  0.86898154117E+03  0.00000000000E+00 0.  1.
         21   -1    0    0  501  502 -0.00000000000E+00 -0.00000000000E+00 -0.43583023162E+02  0.43583023162E+02  0.00000000000E+00 0.  1.
         25    1    1    2    0    0 -0.48390936289E+01  0.11036294923E+03  0.64768019600E+03  0.66881838617E+03  0.12500000000E+03 0.  0.
         25    1    1    2    0    0  0.48390936289E+01 -0.11036294923E+03  0.17771832200E+03  0.24374617816E+03  0.12500000000E+03 0.  0.
</event>
<event>
 4    0  0.2156764E-002  0.3021687E+03  0.7546771E-02  0.1084162E+00
         21   -1    0    0  502  501  0.00000000000E+00  0.00000000000E+00  0.78763382320E+03  0.78763382320E+03  0.00000000000E+00 0.  1.
         21   -1    0    0  501  502 -0.00000000000E+00 -0.00000000000E+00 -0.11592430392E+03  0.11592430392E+03  0.00000000000E+00 0.  1.
         25    1    1    2    0    0 -0.44231981296E+01 -0.23150888017E+03  0.11376506473E+03  0.28667650101E+03  0.12500000000E+03 0.  0.
         25    1    1    2    0    0  0.44231981296E+01  0.23150888017E+03  0.55794445454E+03  0.61688162611E+03  0.12500000000E+03 0.  0.
</event>
<event>
 4    0  0.2156764E-002  0.1644696E+03  0.7546771E-02  0.1183741E+00
         21   -1    0    0  502  501  0.00000000000E+00  0.00000000000E+00  0.14053893902E+03  0.14053893902E+03  0.00000000000E+00 0. -1.
         21   -1    0    0  501  502 -0.00000000000E+00 -0.00000000000E+00 -0.19247501933E+03  0.19247501933E+03  0.00000000000E+00 0. -1.
         25    1    1    2    0    0 -0.69784080209E+02 -0.66225252733E+02  0.21188297079E+02  0.15915258679E+03  0.12500000000E+03 0.  0.
         25    1    1    2    0    0  0.69784080209E+02  0.66225252733E+02 -0.73124377393E+02  0.17386137156E+03  0.12500000000E+03 0.  0.
</event>
<event>
 4    0  0.2156764E-002  0.3892115E+03  0.7546771E-02  0.1047581E+00
         21   -1    0    0  502  501  0.00000000000E+00  0.00000000000E+00  0.11961156454E+03  0.11961156454E+03  0.00000000000E+00 0. -1.
         21   -1    0    0  501  502 -0.00000000000E+00 -0.00000000000E+00 -0.12664793187E+04  0.12664793187E+04  0.00000000000E+00 0. -1.
         25    1    1    2    0    0 -0.35682396737E+02 -0.27416584695E+03 -0.13937967853E+03  0.33390393807E+03  0.12500000000E+03 0.  0.
         25    1    1    2    0    0  0.35682396737E+02  0.27416584695E+03 -0.10074880757E+04  0.10521869452E+04  0.12500000000E+03 0.  0.
</event>
<event>
 4    0  0.2156764E-002  0.3683088E+03  0.7546771E-02  0.1055342E+00
         21   -1    0    0  502  501  0.00000000000E+00  0.00000000000E+00  0.57256972523E+03  0.57256972523E+03  0.00000000000E+00 0.  1.
         21   -1    0    0  501  502 -0.00000000000E+00 -0.00000000000E+00 -0.23691676918E+03  0.23691676918E+03  0.00000000000E+00 0.  1.
         25    1    1    2    0    0 -0.82008215605E+02 -0.24230243015E+03 -0.88932874985E+02  0.29827817778E+03  0.12500000000E+03 0.  0.
         25    1    1    2    0    0  0.82008215605E+02  0.24230243015E+03  0.42458583103E+03  0.51120831664E+03  0.12500000000E+03 0.  0.
</event>
<event>
 4    0  0.2156764E-002  0.2380657E+03  0.7546771E-02  0.1121088E+00
         21   -1    0    0  502  501  0.00000000000E+00  0.00000000000E+00  0.89782506197E+02  0.89782506197E+02  0.00000000000E+00 0. -1.
         21   -1    0    0  501  502 -0.00000000000E+00 -0.00000000000E+00 -0.63125104115E+03  0.63125104115E+03  0.00000000000E+00 0. -1.
         25    1    1    2    0    0 -0.14142896886E+03 -0.38142568749E+02 -0.58760429850E+02  0.20133255301E+03  0.12500000000E+03 0.  0.
         25    1    1    2    0    0  0.14142896886E+03  0.38142568749E+02 -0.48270810510E+03  0.51970099434E+03  0.12500000000E+03 0.  0.
</event>
<event>
 4    0  0.2156764E-002  0.2045442E+03  0.7546771E-02  0.1145961E+00
         21   -1    0    0  502  501  0.00000000000E+00  0.00000000000E+00  0.10625445530E+03  0.10625445530E+03  0.00000000000E+00 0.  1.
         21   -1    0    0  501  502 -0.00000000000E+00 -0.00000000000E+00 -0.39375616146E+03  0.39375616146E+03  0.00000000000E+00 0.  1.
         25    1    1    2    0    0 -0.12299876246E+03 -0.46536449397E+02 -0.25918127789E+03  0.31637678723E+03  0.12500000000E+03 0.  0.
         25    1    1    2    0    0  0.12299876246E+03  0.46536449397E+02 -0.28320428263E+02  0.18363382953E+03  0.12500000000E+03 0.  0.
</event>
<event>
 4    0  0.2156764E-002  0.2226807E+03  0.7546771E-02  0.1131900E+00
         21   -1    0    0  502  501  0.00000000000E+00  0.00000000000E+00  0.14501825056E+04  0.14501825056E+04  0.00000000000E+00 0. -1.
         21   -1    0    0  501  502 -0.00000000000E+00 -0.00000000000E+00 -0.34193419456E+02  0.34193419456E+02  0.00000000000E+00 0. -1.
         25    1    1    2    0    0 -0.65106570375E+02  0.14287329920E+03  0.10295881439E+04  0.10489653909E+04  0.12500000000E+03 0.  0.
         25    1    1    2    0    0  0.65106570375E+02 -0.14287329920E+03  0.38640094218E+03  0.43541053415E+03  0.12500000000E+03 0.  0.
</event>
<event>
 4    0  0.2156764E-002  0.3144542E+03  0.7546771E-02  0.1078230E+00
         21   -1    0    0  502  501  0.00000000000E+00  0.00000000000E+00  0.45578521681E+03  0.45578521681E+03  0.00000000000E+00 0.  1.
         21   -1    0    0  501  502 -0.00000000000E+00 -0.00000000000E+00 -0.21694747570E+03  0.21694747570E+03  0.00000000000E+00 0.  1.
         25    1    1    2    0    0  0.26664595481E+03 -0.10999778292E+03  0.12748592512E+03  0.33923036210E+03  0.12500000000E+03 0.  0.
         25    1    1    2    0    0 -0.26664595481E+03  0.10999778292E+03  0.11135181599E+03  0.33350233041E+03  0.12500000000E+03 0.  0.
</event>
<event>
 4    0  0.2156764E-002  0.2660053E+03  0.7546771E-02  0.1103588E+00
         21   -1    0    0  502  501  0.00000000000E+00  0.00000000000E+00  0.69605241413E+03  0.69605241413E+03  0.00000000000E+00 0. -1.
         21   -1    0    0  501  502 -0.00000000000E+00 -0.00000000000E+00 -0.10165730589E+03  0.10165730589E+03  0.00000000000E+00 0. -1.
         25    1    1    2    0    0  0.12418383365E+03 -0.19192612657E+03  0.21677819169E+03  0.33893221593E+03  0.12500000000E+03 0.  0.
         25    1    1    2    0    0 -0.12418383365E+03  0.19192612657E+03  0.37761691655E+03  0.45877750410E+03  0.12500000000E+03 0.  0.
</event>
<event>
 4    0  0.2156764E-002  0.1803279E+03  0.7546771E-02  0.1167486E+00
         21   -1    0    0  502  501  0.00000000000E+00  0.00000000000E+00  0.35196159374E+03  0.35196159374E+03  0.00000000000E+00 0. -1.
         21   -1    0    0  501  502 -0.00000000000E+00 -0.00000000000E+00 -0.92391233664E+02  0.92391233664E+02  0.00000000000E+00 0. -1.
         25    1    1    2    0    0  0.94413260900E+02 -0.84708559578E+00  0.23983715858E+03  0.28646368709E+03  0.12500000000E+03 0.  0.
         25    1    1    2    0    0 -0.94413260900E+02  0.84708559578E+00  0.19733201500E+02  0.15788914031E+03  0.12500000000E+03 0.  0.
</event>
<event>
 4    0  0.2156764E-002  0.2265694E+03  0.7546771E-02  0.1129078E+00
         21   -1    0    0  502  501  0.00000000000E+00  0.00000000000E+00  0.96820066096E+02  0.96820066096E+02  0.00000000000E+00 0. -1.
         21   -1    0    0  501  502 -0.00000000000E+00 -0.00000000000E+00 -0.53019683219E+03  0.53019683219E+03  0.00000000000E+00 0. -1.
         25    1    1    2    0    0 -0.14599098451E+03 -0.21997002732E+02 -0.53483066798E+02  0.20070544119E+03  0.12500000000E+03 0.  0.
         25    1    1    2    0    0  0.14599098451E+03  0.21997002732E+02 -0.37989369930E+03  0.42631145710E+03  0.12500000000E+03 0.  0.
</event>
<event>
 4    0  0.2156764E-002  0.3196636E+03  0.7546771E-02  0.1075804E+00
         21   -1    0    0  502  501  0.00000000000E+00  0.00000000000E+00  0.43872152872E+03  0.43872152872E+03  0.00000000000E+00 0.  1.
         21   -1    0    0  501  502 -0.00000000000E+00 -0.00000000000E+00 -0.23291498115E+03  0.23291498115E+03  0.00000000000E+00 0.  1.
         25    1    1    2    0    0 -0.20565621751E+03  0.19801522183E+03  0.17759714298E+03  0.35870636051E+03  0.12500000000E+03 0.  0.
         25    1    1    2    0    0  0.20565621751E+03 -0.19801522183E+03  0.28209404597E+02  0.31293014937E+03  0.12500000000E+03 0.  0.
</event>
<event>
 4    0  0.2156764E-002  0.1965531E+03  0.7546771E-02  0.1152680E+00
         21   -1    0    0  502  501  0.00000000000E+00  0.00000000000E+00  0.77140819934E+03  0.77140819934E+03  0.00000000000E+00 0. -1.
         21   -1    0    0  501  502 -0.00000000000E+00 -0.00000000000E+00 -0.50081316165E+02  0.50081316165E+02  0.00000000000E+00 0. -1.
         25    1    1    2    0    0 -0.14080596230E+03  0.37346578598E+02  0.27232278381E+03  0.33317530601E+03  0.12500000000E+03 0.  0.
         25    1    1    2    0    0  0.14080596230E+03 -0.37346578598E+02  0.44900409937E+03  0.48831420950E+03  0.12500000000E+03 0.  0.
</event>
<event>
 4    0  0.2156764E-002  0.1787731E+03  0.7546771E-02  0.1168996E+00
         21   -1    0    0  502  501  0.00000000000E+00  0.00000000000E+00  0.61491573047E+02  0.61491573047E+02  0.00000000000E+00 0. -1.
         21   -1    0    0  501  502 -0.00000000000E+00 -0.00000000000E+00 -0.51974331383E+03  0.51974331383E+03  0.00000000000E+00 0. -1.
         25    1    1    2    0    0  0.81504398843E+02  0.74939390682E+02 -0.12534098930E+03  0.20879234398E+03  0.12500000000E+03 0.  0.
         25    1    1    2    0    0 -0.81504398843E+02 -0.74939390682E+02 -0.33291075148E+03  0.37244254290E+03  0.12500000000E+03 0.  0.
</event>
<event>
 4    0  0.2156764E-002  0.2100285E+03  0.7546771E-02  0.1141543E+00
         21   -1    0    0  502  501  0.00000000000E+00  0.00000000000E+00  0.24620831447E+03  0.24620831447E+03  0.00000000000E+00 0. -1.
         21   -1    0    0  501  502 -0.00000000000E+00 -0.00000000000E+00 -0.17916527424E+03  0.17916527424E+03  0.00000000000E+00 0. -1.
         25    1    1    2    0    0  0.71411367081E+01  0.16440775741E+03 -0.44507257194E+01  0.20670199682E+03  0.12500000000E+03 0.  0.
         25    1    1    2    0    0 -0.71411367081E+01 -0.16440775741E+03  0.71493765954E+02  0.21867159189E+03  0.12500000000E+03 0.  0.
</event>
<event>
 4    0  0.2156764E-002  0.3784285E+03  0.7546771E-02  0.1051516E+00
         21   -1    0    0  502  501  0.00000000000E+00  0.00000000000E+00  0.17612798486E+03  0.17612798486E+03  0.00000000000E+00 0. -1.
         21   -1    0    0  501  502 -0.00000000000E+00 -0.00000000000E+00 -0.81309117101E+03  0.81309117101E+03  0.00000000000E+00 0.  1.
         25    1    1    2    0    0  0.61684801868E+02  0.34775036257E+03 -0.24873356480E+03  0.44969847198E+03  0.12500000000E+03 0.  0.
         25    1    1    2    0    0 -0.61684801868E+02 -0.34775036257E+03 -0.38822962136E+03  0.53952068389E+03  0.12500000000E+03 0.  0.
</event>
<event>
 4    0  0.2156764E-002  0.2905662E+03  0.7546771E-02  0.1090054E+00
         21   -1    0    0  502  501  0.00000000000E+00  0.00000000000E+00  0.17503880729E+04  0.17503880729E+04  0.00000000000E+00 0. -1.
         21   -1    0    0  501  502 -0.00000000000E+00 -0.00000000000E+00 -0.48234287842E+02  0.48234287842E+02  0.00000000000E+00 0. -1.
         25    1    1    2    0    0 -0.13644727853E+03 -0.16547176180E+03  0.13184670112E+04  0.13416329690E+04  0.12500000000E+03 0.  0.
         25    1    1    2    0    0  0.13644727853E+03  0.16547176180E+03  0.38368677386E+03  0.45698939179E+03  0.12500000000E+03 0.  0.
</event>
<event>
 4    0  0.2156764E-002  0.2674930E+03  0.7546771E-02  0.1102723E+00
         21   -1    0    0  502  501  0.00000000000E+00  0.00000000000E+00  0.78170706878E+02  0.78170706878E+02  0.00000000000E+00 0. -1.
         21   -1    0    0  501  502 -0.00000000000E+00 -0.00000000000E+00 -0.91533683833E+03  0.91533683833E+03  0.00000000000E+00 0.  1.
         25    1    1    2    0    0  0.23102528404E+03 -0.44322504188E+02 -0.46370499658E+03  0.53477517715E+03  0.12500000000E+03 0.  0.
         25    1    1    2    0    0 -0.23102528404E+03  0.44322504188E+02 -0.37346113487E+03  0.45873236806E+03  0.12500000000E+03 0.  0.
</event>
<event>
 4    0  0.2156764E-002  0.2678269E+03  0.7546771E-02  0.1102530E+00
         21   -1    0    0  502  501  0.00000000000E+00  0.00000000000E+00  0.96765152700E+03  0.96765152700E+03  0.00000000000E+00 0.  1.
         21   -1    0    0  501  502 -0.00000000000E+00 -0.00000000000E+00 -0.74129203926E+02  0.74129203926E+02  0.00000000000E+00 0.  1.
         25    1    1    2    0    0 -0.16137387831E+03 -0.67410048890E+02  0.13606380848E+03  0.25440912576E+03  0.12500000000E+03 0.  0.
         25    1    1    2    0    0  0.16137387831E+03  0.67410048890E+02  0.75745851460E+03  0.78737160517E+03  0.12500000000E+03 0.  0.
</event>
<event>
 4    0  0.2156764E-002  0.2827612E+03  0.7546771E-02  0.1094190E+00
         21   -1    0    0  502  501  0.00000000000E+00  0.00000000000E+00  0.46506540080E+02  0.46506540080E+02  0.00000000000E+00 0.  1.
         21   -1    0    0  501  502 -0.00000000000E+00 -0.00000000000E+00 -0.17191973954E+04  0.17191973954E+04  0.00000000000E+00 0.  1.
         25    1    1    2    0    0  0.40145767804E+02 -0.14764666701E+03 -0.14679185175E+04  0.14811552906E+04  0.12500000000E+03 0.  0.
         25    1    1    2    0    0 -0.40145767804E+02  0.14764666701E+03 -0.20477233785E+03  0.28454864488E+03  0.12500000000E+03 0.  0.
</event>
<event>
 4    0  0.2156764E-002  0.1923300E+03  0.7546771E-02  0.1156376E+00
         21   -1    0    0  502  501  0.00000000000E+00  0.00000000000E+00  0.10145054093E+03  0.10145054093E+03  0.00000000000E+00 0. -1.
         21   -1    0    0  501  502 -0.00000000000E+00 -0.00000000000E+00 -0.36461950248E+03  0.36461950248E+03  0.00000000000E+00 0. -1.
         25    1    1    2    0    0 -0.90043727163E+02  0.36859244513E+02 -0.26375543651E+03  0.30766606410E+03  0.12500000000E+03 0.  0.
         25    1    1    2    0    0  0.90043727163E+02 -0.36859244513E+02  0.58647495923E+00  0.15840397931E+03  0.12500000000E+03 0.  0.
</event>
<event>
 4    0  0.2156764E-002  0.2695228E+03  0.7546771E-02  0.1101553E+00
         21   -1    0    0  502  501  0.00000000000E+00  0.00000000000E+00  0.39413847415E+03  0.39413847415E+03  0.00000000000E+00 0. -1.
         21   -1    0    0  501  502 -0.00000000000E+00 -0.00000000000E+00 -0.18430708958E+03  0.18430708958E+03  0.00000000000E+00 0. -1.
         25    1    1    2    0    0 -0.20533160833E+03  0.11531472383E+03  0.14728531240E+03  0.30459238033E+03  0.12500000000E+03 0.  0.
         25    1    1    2    0    0  0.20533160833E+03 -0.11531472383E+03  0.62546072177E+02  0.27385318339E+03  0.12500000000E+03 0.  0.
</event>
<event>
 4    0  0.2156764E-002  0.2155291E+03  0.7546771E-02  0.1137261E+00
         21   -1    0    0  502  501  0.00000000000E+00  0.00000000000E+00  0.41323597486E+03  0.41323597486E+03  0.00000000000E+00 0. -1.
         21   -1    0    0  501  502 -0.00000000000E+00 -0.00000000000E+00 -0.11241230881E+03  0.11241230881E+03  0.00000000000E+00 0. -1.
         25    1    1    2    0    0 -0.68152626896E+02 -0.14516481781E+03  0.63239548693E+02  0.21293624727E+03  0.12500000000E+03 0.  0.
         25    1    1    2    0    0  0.68152626896E+02  0.14516481781E+03  0.23758411736E+03  0.31271203639E+03  0.12500000000E+03 0.  0.
</event>
<event>
 4    0  0.2156764E-002  0.2162149E+03  0.7546771E-02  0.1136737E+00
         21   -1    0    0  502  501  0.00000000000E+00  0.00000000000E+00  0.20665549586E+03  0.20665549586E+03  0.00000000000E+00 0. -1.
         21   -1    0    0  501  502 -0.00000000000E+00 -0.00000000000E+00 -0.22621653197E+03  0.22621653197E+03  0.00000000000E+00 0. -1.
         25    1    1    2    0    0 -0.16692006228E+03 -0.57092053196E+02 -0.11224163433E+02  0.21650125075E+03  0.12500000000E+03 0.  0.
         25    1    1    2    0    0  0.16692006228E+03  0.57092053196E+02 -0.83368726773E+01  0.21637077709E+03  0.12500000000E+03 0.  0.
</event>
<event>
 4    0  0.2156764E-002  0.2081242E+03  0.7546771E-02  0.1143060E+00
         21   -1    0    0  502  501  0.00000000000E+00  0.00000000000E+00  0.15999347923E+03  0.15999347923E+03  0.00000000000E+00 0.  1.
         21   -1    0    0  501  502 -0.00000000000E+00 -0.00000000000E+00 -0.27073392358E+03  0.27073392358E+03  0.00000000000E+00 0.  1.
         25    1    1    2    0    0 -0.73435371209E+00 -0.16291404680E+03 -0.90448303349E+02  0.22438231102E+03  0.12500000000E+03 0.  0.
         25    1    1    2    0    0  0.73435371209E+00  0.16291404680E+03 -0.20292140998E+02  0.20634509179E+03  0.12500000000E+03 0.  0.
</event>
<event>
 4    0  0.2156764E-002  0.2924572E+03  0.7546771E-02  0.1089073E+00
         21   -1    0    0  502  501  0.00000000000E+00  0.00000000000E+00  0.58921216512E+02  0.58921216512E+02  0.00000000000E+00 0.  1.
         21   -1    0    0  501  502 -0.00000000000E+00 -0.00000000000E+00 -0.14516196489E+04  0.14516196489E+04  0.00000000000E+00 0.  1.
         25    1    1    2    0    0 -0.17086024815E+03 -0.20095198933E+03 -0.64934565651E+03  0.71193378066E+03  0.12500000000E+03 0.  0.
         25    1    1    2    0    0  0.17086024815E+03  0.20095198933E+03 -0.74335277591E+03  0.79860708478E+03  0.12500000000E+03 0.  0.
</event>
<event>
 4    0  0.2156764E-002  0.2904410E+03  0.7546771E-02  0.1090119E+00
         21   -1    0    0  502  501  0.00000000000E+00  0.00000000000E+00  0.10532759976E+04  0.10532759976E+04  0.00000000000E+00 0.  1.
         21   -1    0    0  501  502 -0.00000000000E+00 -0.00000000000E+00 -0.80089154032E+02  0.80089154032E+02  0.00000000000E+00 0. -1.
         25    1    1    2    0    0 -0.44931941168E+02  0.24294501100E+03  0.65768954387E+03  0.71359771147E+03  0.12500000000E+03 0.  0.
         25    1    1    2    0    0  0.44931941168E+02 -0.24294501100E+03  0.31549729972E+03  0.41976744018E+03  0.12500000000E+03 0.  0.
</event>
<event>
 4    0  0.2156764E-002  0.1742931E+03  0.7546771E-02  0.1173443E+00
         21   -1    0    0  502  501  0.00000000000E+00  0.00000000000E+00  0.95375603193E+02  0.95375603193E+02  0.00000000000E+00 0.  1.
         21   -1    0    0  501  502 -0.00000000000E+00 -0.00000000000E+00 -0.31850994312E+03  0.31850994312E+03  0.00000000000E+00 0.  1.
         25    1    1    2    0    0 -0.80522697151E+02  0.66810977554E+01 -0.38894564939E+01  0.14889146952E+03  0.12500000000E+03 0.  0.
         25    1    1    2    0    0  0.80522697151E+02 -0.66810977554E+01 -0.21924488343E+03  0.26499407679E+03  0.12500000000E+03 0.  0.
</event>
<event>
 4    0  0.2156764E-002  0.2851045E+03  0.7546771E-02  0.1092933E+00
         21   -1    0    0  502  501  0.00000000000E+00  0.00000000000E+00  0.34704835152E+03  0.34704835152E+03  0.00000000000E+00 0.  1.
         21   -1    0    0  501  502 -0.00000000000E+00 -0.00000000000E+00 -0.23421690678E+03  0.23421690678E+03  0.00000000000E+00 0.  1.
         25    1    1    2    0    0  0.12204812031E+03  0.11958399290E+03  0.25107250057E+03  0.32841814136E+03  0.12500000000E+03 0.  0.
         25    1    1    2    0    0 -0.12204812031E+03 -0.11958399290E+03 -0.13824105583E+03  0.25284711694E+03  0.12500000000E+03 0.  0.
</event>
<event>
 4    0  0.2156764E-002  0.2079288E+03  0.7546771E-02  0.1143217E+00
         21   -1    0    0  502  501  0.00000000000E+00  0.00000000000E+00  0.59733988119E+03  0.59733988119E+03  0.00000000000E+00 0. -1.
         21   -1    0    0  501  502 -0.00000000000E+00 -0.00000000000E+00 -0.72378232261E+02  0.72378232261E+02  0.00000000000E+00 0. -1.
         25    1    1    2    0    0  0.99966572664E+02  0.19511224696E+02  0.47390663567E+03  0.50058615929E+03  0.12500000000E+03 0.  0.
         25    1    1    2    0    0 -0.99966572664E+02 -0.19511224696E+02  0.51055013256E+02  0.16913195416E+03  0.12500000000E+03 0.  0.
</event>
<event>
 4    0  0.2156764E-002  0.2470013E+03  0.7546771E-02  0.1115215E+00
         21   -1    0    0  502  501  0.00000000000E+00  0.00000000000E+00  0.27125247633E+03  0.27125247633E+03  0.00000000000E+00 0.  1.
         21   -1    0    0  501  502 -0.00000000000E+00 -0.00000000000E+00 -0.22491820827E+03  0.22491820827E+03  0.00000000000E+00 0.  1.
         25    1    1    2    0    0 -0.15495875992E+02  0.71071752159E+02 -0.17794481277E+03  0.22930475904E+03  0.12500000000E+03 0.  0.
         25    1    1    2    0    0  0.15495875992E+02 -0.71071752159E+02  0.22427908083E+03  0.26686592556E+03  0.12500000000E+03 0.  0.
</event>
<event>
 4    0  0.2156764E-002  0.3310577E+03  0.7546771E-02  0.1070670E+00
         21   -1    0    0  502  501  0.00000000000E+00  0.00000000000E+00  0.15415517840E+04  0.15415517840E+04  0.00000000000E+00 0. -1.
         21   -1    0    0  501  502 -0.00000000000E+00 -0.00000000000E+00 -0.71096674012E+02  0.71096674012E+02  0.00000000000E+00 0. -1.
         25    1    1    2    0    0  0.10070737482E+03 -0.98699946227E+02  0.13981876955E+04  0.14108286525E+04  0.12500000000E+03 0.  0.
         25    1    1    2    0    0 -0.10070737482E+03  0.98699946227E+02  0.72267414517E+02  0.20181980559E+03  0.12500000000E+03 0.  0.
</event>
<event>
 4    0  0.2156764E-002  0.3522981E+03  0.7546771E-02  0.1061676E+00
         21   -1    0    0  502  501  0.00000000000E+00  0.00000000000E+00  0.40359461832E+03  0.40359461832E+03  0.00000000000E+00 0. -1.
         21   -1    0    0  501  502 -0.00000000000E+00 -0.00000000000E+00 -0.30752134754E+03  0.30752134754E+03  0.00000000000E+00 0. -1.
         25    1    1    2    0    0  0.88297353846E+02  0.31075147201E+03  0.11286542741E+03  0.36431648983E+03  0.12500000000E+03 0.  0.
         25    1    1    2    0    0 -0.88297353846E+02 -0.31075147201E+03 -0.16792156625E+02  0.34679947603E+03  0.12500000000E+03 0.  0.
</event>
<event>
 4    0  0.2156764E-002  0.1877739E+03  0.7546771E-02  0.1160485E+00
         21   -1    0    0  502  501  0.00000000000E+00  0.00000000000E+00  0.20521873775E+04  0.20521873775E+04  0.00000000000E+00 0.  1.
         21   -1    0    0  501  502 -0.00000000000E+00 -0.00000000000E+00 -0.17181204525E+02  0.17181204525E+02  0.00000000000E+00 0.  1.
         25    1    1    2    0    0  0.99732262702E+02  0.83781993186E+02  0.13021286865E+04  0.13145836081E+04  0.12500000000E+03 0.  0.
         25    1    1    2    0    0 -0.99732262702E+02 -0.83781993186E+02  0.73287748643E+03  0.75478497383E+03  0.12500000000E+03 0.  0.
</event>
<event>
 4    0  0.2156764E-002  0.1974484E+03  0.7546771E-02  0.1151910E+00
         21   -1    0    0  502  501  0.00000000000E+00  0.00000000000E+00  0.10242051634E+04  0.10242051634E+04  0.00000000000E+00 0. -1.
         21   -1    0    0  501  502 -0.00000000000E+00 -0.00000000000E+00 -0.38064503753E+02  0.38064503753E+02  0.00000000000E+00 0. -1.
         25    1    1    2    0    0  0.12728344906E+03  0.59193165383E+02  0.65571939929E+03  0.68212743519E+03  0.12500000000E+03 0.  0.
         25    1    1    2    0    0 -0.12728344906E+03 -0.59193165383E+02  0.33042126040E+03  0.38014223201E+03  0.12500000000E+03 0.  0.
</event>
<event>
 4    0  0.2156764E-002  0.1900318E+03  0.7546771E-02  0.1158433E+00
         21   -1    0    0  502  501  0.00000000000E+00  0.00000000000E+00  0.25122709866E+03  0.25122709866E+03  0.00000000000E+00 0. -1.
         21   -1    0    0  501  502 -0.00000000000E+00 -0.00000000000E+00 -0.14374281235E+03  0.14374281235E+03  0.00000000000E+00 0. -1.
         25    1    1    2    0    0  0.17872703635E+02 -0.12433306528E+03 -0.17570989930E+02  0.17807830958E+03  0.12500000000E+03 0.  0.
         25    1    1    2    0    0 -0.17872703635E+02  0.12433306528E+03  0.12505527624E+03  0.21689160143E+03  0.12500000000E+03 0.  0.
</event>
<event>
 4    0  0.2156764E-002  0.2993779E+03  0.7546771E-02  0.1085552E+00
         21   -1    0    0  502  501  0.00000000000E+00  0.00000000000E+00  0.84780508484E+03  0.84780508484E+03  0.00000000000E+00 0. -1.
         21   -1    0    0  501  502 -0.00000000000E+00 -0.00000000000E+00 -0.10571664931E+03  0.10571664931E+03  0.00000000000E+00 0. -1.
         25    1    1    2    0    0 -0.49303363368E+02  0.67383804291E+02 -0.41260040965E+02  0.15588069060E+03  0.12500000000E+03 0.  0.
         25    1    1    2    0    0  0.49303363368E+02 -0.67383804291E+02  0.78334847650E+03  0.79764104355E+03  0.12500000000E+03 0.  0.
</event>
<event>
 4    0  0.2156764E-002  0.1942152E+03  0.7546771E-02  0.1154714E+00
         21   -1    0    0  502  501  0.00000000000E+00  0.00000000000E+00  0.27015934655E+02  0.27015934655E+02  0.00000000000E+00 0. -1.
         21   -1    0    0  501  502 -0.00000000000E+00 -0.00000000000E+00 -0.13961955200E+04  0.13961955200E+04  0.00000000000E+00 0. -1.
         25    1    1    2    0    0 -0.14429944765E+03 -0.30125527619E+02 -0.75455687879E+03  0.77891653040E+03  0.12500000000E+03 0.  0.
         25    1    1    2    0    0  0.14429944765E+03  0.30125527619E+02 -0.61462270660E+03  0.64429492429E+03  0.12500000000E+03 0.  0.
</event>
<event>
 4    0  0.2156764E-002  0.1854659E+03  0.7546771E-02  0.1162616E+00
         21   -1    0    0  502  501  0.00000000000E+00  0.00000000000E+00  0.30949696357E+03  0.30949696357E+03  0.00000000000E+00 0. -1.
         21   -1    0    0  501  502 -0.00000000000E+00 -0.00000000000E+00 -0.11114033520E+03  0.11114033520E+03  0.00000000000E+00 0. -1.
         25    1    1    2    0    0 -0.53140401664E+02  0.12541788505E+03  0.82394777761E+02  0.20240416889E+03  0.12500000000E+03 0.  0.
         25    1    1    2    0    0  0.53140401664E+02 -0.12541788505E+03  0.11596185061E+03  0.21823312988E+03  0.12500000000E+03 0.  0.
</event>
<event>
 4    0  0.2156764E-002  0.2517264E+03  0.7546771E-02  0.1112219E+00
         21   -1    0    0  502  501  0.00000000000E+00  0.00000000000E+00  0.85554872143E+02  0.85554872143E+02  0.00000000000E+00 0.  1.
         21   -1    0    0  501  502 -0.00000000000E+00 -0.00000000000E+00 -0.74064935052E+03  0.74064935052E+03  0.00000000000E+00 0.  1.
         25    1    1    2    0    0 -0.15491327270E+03 -0.12671758278E+03 -0.18367724553E+03  0.29902808960E+03  0.12500000000E+03 0.  0.
         25    1    1    2    0    0  0.15491327270E+03  0.12671758278E+03 -0.47141723285E+03  0.52717613306E+03  0.12500000000E+03 0.  0.
</event>
<event>
 4    0  0.2156764E-002  0.2026107E+03  0.7546771E-02  0.1147555E+00
         21   -1    0    0  502  501  0.00000000000E+00  0.00000000000E+00  0.61518304173E+03  0.61518304173E+03  0.00000000000E+00 0.  1.
         21   -1    0    0  501  502 -0.00000000000E+00 -0.00000000000E+00 -0.66729905035E+02  0.66729905035E+02  0.00000000000E+00 0.  1.
         25    1    1    2    0    0  0.30904809163E+02  0.11312766751E+02  0.53678365069E+03  0.55212749756E+03  0.12500000000E+03 0.  0.
         25    1    1    2    0    0 -0.30904809163E+02 -0.11312766751E+02  0.11669486010E+02  0.12978544920E+03  0.12500000000E+03 0.  0.
</event>
<event>
 4    0  0.2156764E-002  0.3233823E+03  0.7546771E-02  0.1074103E+00
         21   -1    0    0  502  501  0.00000000000E+00  0.00000000000E+00  0.22786436731E+03  0.22786436731E+03  0.00000000000E+00 0. -1.
         21   -1    0    0  501  502 -0.00000000000E+00 -0.00000000000E+00 -0.45894007314E+03  0.45894007314E+03  0.00000000000E+00 0. -1.
         25    1    1    2    0    0 -0.15852890034E+02 -0.11410962820E+03 -0.40766635161E+03  0.44168900326E+03  0.12500000000E+03 0.  0.
         25    1    1    2    0    0  0.15852890034E+02  0.11410962820E+03  0.17659064578E+03  0.24511543719E+03  0.12500000000E+03 0.  0.
</event>
<event>
 4    0  0.2156764E-002  0.1306297E+03  0.7546771E-02  0.1226524E+00
         21   -1    0    0  502  501  0.00000000000E+00  0.00000000000E+00  0.50903370736E+03  0.50903370736E+03  0.00000000000E+00 0.  1.
         21   -1    0    0  501  502 -0.00000000000E+00 -0.00000000000E+00 -0.33522595792E+02  0.33522595792E+02  0.00000000000E+00 0.  1.
         25    1    1    2    0    0  0.76023333417E+01  0.64287002722E+01  0.31377529061E+03  0.33790391631E+03  0.12500000000E+03 0.  0.
         25    1    1    2    0    0 -0.76023333417E+01 -0.64287002722E+01  0.16173582096E+03  0.20465238684E+03  0.12500000000E+03 0.  0.
</event>
<event>
 4    0  0.2156764E-002  0.2755219E+03  0.7546771E-02  0.1098160E+00
         21   -1    0    0  502  501  0.00000000000E+00  0.00000000000E+00  0.12068112603E+04  0.12068112603E+04  0.00000000000E+00 0. -1.
         21   -1    0    0  501  502 -0.00000000000E+00 -0.00000000000E+00 -0.62903236813E+02  0.62903236813E+02  0.00000000000E+00 0. -1.
         25    1    1    2    0    0  0.11321665286E+03  0.21765530585E+03  0.54943739945E+03  0.61457163827E+03  0.12500000000E+03 0.  0.
         25    1    1    2    0    0 -0.11321665286E+03 -0.21765530585E+03  0.59447062402E+03  0.65514285882E+03  0.12500000000E+03 0.  0.
</event>
<event>
 4    0  0.2156764E-002  0.2050936E+03  0.7546771E-02  0.1145511E+00
         21   -1    0    0  502  501  0.00000000000E+00  0.00000000000E+00  0.27685907971E+03  0.27685907971E+03  0.00000000000E+00 0.  1.
         21   -1    0    0  501  502 -0.00000000000E+00 -0.00000000000E+00 -0.15193067502E+03  0.15193067502E+03  0.00000000000E+00 0.  1.
         25    1    1    2    0    0 -0.92746367907E+02  0.12697748151E+03  0.10573237063E+03  0.22700110962E+03  0.12500000000E+03 0.  0.
         25    1    1    2    0    0  0.92746367907E+02 -0.12697748151E+03  0.19196034059E+02  0.20178864511E+03  0.12500000000E+03 0.  0.
</event>
<event>
 4    0  0.2156764E-002  0.2077792E+03  0.7546771E-02  0.1143337E+00
         21   -1    0    0  502  501  0.00000000000E+00  0.00000000000E+00  0.74883955018E+03  0.74883955018E+03  0.00000000000E+00 0. -1.
         21   -1    0    0  501  502 -0.00000000000E+00 -0.00000000000E+00 -0.57652148376E+02  0.57652148376E+02  0.00000000000E+00 0. -1.
         25    1    1    2    0    0 -0.40606840609E+02  0.15970361820E+03  0.38406974320E+03  0.43622096329E+03  0.12500000000E+03 0.  0.
         25    1    1    2    0    0  0.40606840609E+02 -0.15970361820E+03  0.30711765861E+03  0.37027073527E+03  0.12500000000E+03 0.  0.
</event>
<event>
 4    0  0.2156764E-002  0.3092753E+03  0.7546771E-02  0.1080694E+00
         21   -1    0    0  502  501  0.00000000000E+00  0.00000000000E+00  0.11723762546E+03  0.11723762546E+03  0.00000000000E+00 0. -1.
         21   -1    0    0  501  502 -0.00000000000E+00 -0.00000000000E+00 -0.81587491444E+03  0.81587491444E+03  0.00000000000E+00 0. -1.
         25    1    1    2    0    0  0.10634973134E+03 -0.23779534506E+03 -0.51573360092E+03  0.59115398891E+03  0.12500000000E+03 0.  0.
         25    1    1    2    0    0 -0.10634973134E+03  0.23779534506E+03 -0.18290368806E+03  0.34195855099E+03  0.12500000000E+03 0.  0.
</event>
<event>
 4    0  0.2156764E-002  0.1809456E+03  0.7546771E-02  0.1166891E+00
         21   -1    0    0  502  501  0.00000000000E+00  0.00000000000E+00  0.80057048560E+02  0.80057048560E+02  0.00000000000E+00 0.  1.
         21   -1    0    0  501  502 -0.00000000000E+00 -0.00000000000E+00 -0.40897473829E+03  0.40897473829E+03  0.00000000000E+00 0.  1.
         25    1    1    2    0    0 -0.75544846237E+02 -0.10674780901E+03 -0.15936811219E+03  0.24109191961E+03  0.12500000000E+03 0.  0.
         25    1    1    2    0    0  0.75544846237E+02  0.10674780901E+03 -0.16954957755E+03  0.24793986724E+03  0.12500000000E+03 0.  0.
</event>
<event>
 4    0  0.2156764E-002  0.2335174E+03  0.7546771E-02  0.1124188E+00
         21   -1    0    0  502  501  0.00000000000E+00  0.00000000000E+00  0.33680456261E+03  0.33680456261E+03  0.00000000000E+00 0.  1.
         21   -1    0    0  501  502 -0.00000000000E+00 -0.00000000000E+00 -0.16190515427E+03  0.16190515427E+03  0.00000000000E+00 0.  1.
         25    1    1    2    0    0 -0.67874205155E+02  0.15194913018E+03  0.20050745155E+03  0.28900464359E+03  0.12500000000E+03 0.  0.
         25    1    1    2    0    0  0.67874205155E+02 -0.15194913018E+03 -0.25608043214E+02  0.20970507329E+03  0.12500000000E+03 0.  0.
</event>
<event>
 4    0  0.2156764E-002  0.1844771E+03  0.7546771E-02  0.1163539E+00
         21   -1    0    0  502  501  0.00000000000E+00  0.00000000000E+00  0.28873086899E+03  0.28873086899E+03  0.00000000000E+00 0.  1.
         21   -1    0    0  501  502 -0.00000000000E+00 -0.00000000000E+00 -0.11786688996E+03  0.11786688996E+03  0.00000000000E+00 0.  1.
         25    1    1    2    0    0 -0.21822507641E+02  0.12013212404E+03  0.15061820641E+03  0.23069198766E+03  0.12500000000E+03 0.  0.
         25    1    1    2    0    0  0.21822507641E+02 -0.12013212404E+03  0.20245772619E+02  0.17590577129E+03  0.12500000000E+03 0.  0.
</event>
<event>
 4    0  0.2156764E-002  0.2065951E+03  0.7546771E-02  0.1144291E+00
         21   -1    0    0  502  501  0.00000000000E+00  0.00000000000E+00  0.10485825749E+03  0.10485825749E+03  0.00000000000E+00 0.  1.
         21   -1    0    0  501  502 -0.00000000000E+00 -0.00000000000E+00 -0.40704016661E+03  0.40704016661E+03  0.00000000000E+00 0.  1.
         25    1    1    2    0    0  0.15197536644E+03  0.12766486665E+02 -0.74750329545E+02  0.21088410787E+03  0.12500000000E+03 0.  0.
         25    1    1    2    0    0 -0.15197536644E+03 -0.12766486665E+02 -0.22743157958E+03  0.30101431623E+03  0.12500000000E+03 0.  0.
</event>
<event>
 4    0  0.2156764E-002  0.2600066E+03  0.7546771E-02  0.1107139E+00
         21   -1    0    0  502  501  0.00000000000E+00  0.00000000000E+00  0.59045840745E+03  0.59045840745E+03  0.00000000000E+00 0.  1.
         21   -1    0    0  501  502 -0.00000000000E+00 -0.00000000000E+00 -0.11449315711E+03  0.11449315711E+03  0.00000000000E+00 0.  1.
         25    1    1    2    0    0  0.67520173137E+02 -0.17587715196E+03  0.63917510310E+02  0.23495147262E+03  0.12500000000E+03 0.  0.
         25    1    1    2    0    0 -0.67520173137E+02  0.17587715196E+03  0.41204774003E+03  0.47000009194E+03  0.12500000000E+03 0.  0.
</event>
<event>
 4    0  0.2156764E-002  0.3010701E+03  0.7546771E-02  0.1084707E+00
         21   -1    0    0  502  501  0.00000000000E+00  0.00000000000E+00  0.72908797699E+02  0.72908797699E+02  0.00000000000E+00 0. -1.
         21   -1    0    0  501  502 -0.00000000000E+00 -0.00000000000E+00 -0.12432411310E+04  0.12432411310E+04  0.00000000000E+00 0. -1.
         25    1    1    2    0    0 -0.18018068335E+03  0.18399836438E+03 -0.38131607528E+03  0.47680963289E+03  0.12500000000E+03 0.  0.
         25    1    1    2    0    0  0.18018068335E+03 -0.18399836438E+03 -0.78901625801E+03  0.83934029580E+03  0.12500000000E+03 0.  0.
</event>
<event>
 4    0  0.2156764E-002  0.1675814E+03  0.7546771E-02  0.1180394E+00
         21   -1    0    0  502  501  0.00000000000E+00  0.00000000000E+00  0.25803470443E+04  0.25803470443E+04  0.00000000000E+00 0. -1.
         21   -1    0    0  501  502 -0.00000000000E+00 -0.00000000000E+00 -0.10883619171E+02  0.10883619171E+02  0.00000000000E+00 0.  1.
         25    1    1    2    0    0 -0.73052833973E+02  0.53376537008E+02  0.17900950723E+04  0.17967334635E+04  0.12500000000E+03 0.  0.
         25    1    1    2    0    0  0.73052833973E+02 -0.53376537008E+02  0.77936835290E+03  0.79449719997E+03  0.12500000000E+03 0.  0.
</event>
<event>
 4    0  0.2156764E-002  0.2215626E+03  0.7546771E-02  0.1132723E+00
         21   -1    0    0  502  501  0.00000000000E+00  0.00000000000E+00  0.21961171729E+03  0.21961171729E+03  0.00000000000E+00 0.  1.
         21   -1    0    0  501  502 -0.00000000000E+00 -0.00000000000E+00 -0.22353089428E+03  0.22353089428E+03  0.00000000000E+00 0.  1.
         25    1    1    2    0    0  0.75953518949E+02  0.32776721849E+02 -0.16512770876E+03  0.22301437338E+03  0.12500000000E+03 0.  0.
         25    1    1    2    0    0 -0.75953518949E+02 -0.32776721849E+02  0.16120853176E+03  0.22012823819E+03  0.12500000000E+03 0.  0.
</event>
<event>
 4    0  0.2156764E-002  0.2532842E+03  0.7546771E-02  0.1111247E+00
         21   -1    0    0  502  501  0.00000000000E+00  0.00000000000E+00  0.12152684607E+03  0.12152684607E+03  0.00000000000E+00 0.  1.
         21   -1    0    0  501  502 -0.00000000000E+00 -0.00000000000E+00 -0.52789081879E+03  0.52789081879E+03  0.00000000000E+00 0.  1.
         25    1    1    2    0    0 -0.18329470474E+02  0.26817717177E+02 -0.48250589774E+03  0.49949184258E+03  0.12500000000E+03 0.  0.
         25    1    1    2    0    0  0.18329470474E+02 -0.26817717177E+02  0.76141925017E+02  0.14992582228E+03  0.12500000000E+03 0.  0.
</event>
<event>
 4    0  0.2156764E-002  0.3508473E+03  0.7546771E-02  0.1062268E+00
         21   -1    0    0  502  501  0.00000000000E+00  0.00000000000E+00  0.23923980750E+03  0.23923980750E+03  0.00000000000E+00 0. -1.
         21   -1    0    0  501  502 -0.00000000000E+00 -0.00000000000E+00 -0.51452077808E+03  0.51452077808E+03  0.00000000000E+00 0. -1.
         25    1    1    2    0    0 -0.13456858878E+03  0.27227205781E+03 -0.27019903003E+03  0.42529201072E+03  0.12500000000E+03 0.  0.
         25    1    1    2    0    0  0.13456858878E+03 -0.27227205781E+03 -0.50819405508E+01  0.32846857486E+03  0.12500000000E+03 0.  0.
</event>
<event>
 4    0  0.2156764E-002  0.1408041E+03  0.7546771E-02  0.1212251E+00
         21   -1    0    0  502  501  0.00000000000E+00  0.00000000000E+00  0.74757343015E+03  0.74757343015E+03  0.00000000000E+00 0. -1.
         21   -1    0    0  501  502 -0.00000000000E+00 -0.00000000000E+00 -0.26520214808E+02  0.26520214808E+02  0.00000000000E+00 0. -1.
         25    1    1    2    0    0  0.22128648545E+02 -0.59609557995E+02  0.39506044573E+03  0.41921442279E+03  0.12500000000E+03 0.  0.
         25    1    1    2    0    0 -0.22128648545E+02  0.59609557995E+02  0.32599276961E+03  0.35487922217E+03  0.12500000000E+03 0.  0.
</event>
<event>
 4    0  0.2156764E-002  0.2149632E+03  0.7546771E-02  0.1137695E+00
         21   -1    0    0  502  501  0.00000000000E+00  0.00000000000E+00  0.79142178825E+02  0.79142178825E+02  0.00000000000E+00 0.  1.
         21   -1    0    0  501  502 -0.00000000000E+00 -0.00000000000E+00 -0.58387530434E+03  0.58387530434E+03  0.00000000000E+00 0.  1.
         25    1    1    2    0    0  0.16217996000E+03  0.53891588765E+02 -0.19512914383E+03  0.28793580107E+03  0.12500000000E+03 0.  0.
         25    1    1    2    0    0 -0.16217996000E+03 -0.53891588765E+02 -0.30960398168E+03  0.37508168209E+03  0.12500000000E+03 0.  0.
</event>
<event>
 4    0  0.2156764E-002  0.1975175E+03  0.7546771E-02  0.1151851E+00
         21   -1    0    0  502  501  0.00000000000E+00  0.00000000000E+00  0.51456210333E+02  0.51456210333E+02  0.00000000000E+00 0.  1.
         21   -1    0    0  501  502 -0.00000000000E+00 -0.00000000000E+00 -0.75818178447E+03  0.75818178447E+03  0.00000000000E+00 0.  1.
         25    1    1    2    0    0  0.90413368833E+02  0.77135696128E+02 -0.55062632385E+03  0.57700852801E+03  0.12500000000E+03 0.  0.
         25    1    1    2    0    0 -0.90413368833E+02 -0.77135696128E+02 -0.15609925029E+03  0.23262946680E+03  0.12500000000E+03 0.  0.
</event>
<event>
 4    0  0.2156764E-002  0.3246519E+03  0.7546771E-02  0.1073528E+00
         21   -1    0    0  502  501  0.00000000000E+00  0.00000000000E+00  0.37329778784E+03  0.37329778784E+03  0.00000000000E+00 0. -1.
         21   -1    0    0  501  502 -0.00000000000E+00 -0.00000000000E+00 -0.28234528526E+03  0.28234528526E+03  0.00000000000E+00 0. -1.
         25    1    1    2    0    0 -0.20344253070E+03  0.12236597245E+03  0.23004917147E+03  0.35342596934E+03  0.12500000000E+03 0.  0.
         25    1    1    2    0    0  0.20344253070E+03 -0.12236597245E+03 -0.13909666888E+03  0.30221710376E+03  0.12500000000E+03 0.  0.
</event>
<event>
 4    0  0.2156764E-002  0.2181307E+03  0.7546771E-02  0.1135284E+00
         21   -1    0    0  502  501  0.00000000000E+00  0.00000000000E+00  0.69964444024E+03  0.69964444024E+03  0.00000000000E+00 0. -1.
         21   -1    0    0  501  502 -0.00000000000E+00 -0.00000000000E+00 -0.68007416352E+02  0.68007416352E+02  0.00000000000E+00 0. -1.
         25    1    1    2    0    0  0.85513009160E+02  0.15618224063E+03  0.34367625276E+03  0.40674775197E+03  0.12500000000E+03 0.  0.
         25    1    1    2    0    0 -0.85513009160E+02 -0.15618224063E+03  0.28796077112E+03  0.36090410461E+03  0.12500000000E+03 0.  0.
</event>
<event>
 4    0  0.2156764E-002  0.2637980E+03  0.7546771E-02  0.1104883E+00
         21   -1    0    0  502  501  0.00000000000E+00  0.00000000000E+00  0.16275796658E+03  0.16275796658E+03  0.00000000000E+00 0.  1.
         21   -1    0    0  501  502 -0.00000000000E+00 -0.00000000000E+00 -0.42756375129E+03  0.42756375129E+03  0.00000000000E+00 0.  1.
         25    1    1    2    0    0 -0.12389577373E+03 -0.53697525519E+02  0.79096287915E+02  0.20028681873E+03  0.12500000000E+03 0.  0.
         25    1    1    2    0    0  0.12389577373E+03  0.53697525519E+02 -0.34390207262E+03  0.39003489914E+03  0.12500000000E+03 0.  0.
</event>
<event>
 4    0  0.2156764E-002  0.2832509E+03  0.7546771E-02  0.1093926E+00
         21   -1    0    0  502  501  0.00000000000E+00  0.00000000000E+00  0.71746710336E+03  0.71746710336E+03  0.00000000000E+00 0. -1.
         21   -1    0    0  501  502 -0.00000000000E+00 -0.00000000000E+00 -0.11182547001E+03  0.11182547001E+03  0.00000000000E+00 0. -1.
         25    1    1    2    0    0 -0.28637847882E+02 -0.18000566452E+02  0.67159721788E+03  0.68396781342E+03  0.12500000000E+03 0.  0.
         25    1    1    2    0    0  0.28637847882E+02  0.18000566452E+02 -0.65955584532E+02  0.14532475995E+03  0.12500000000E+03 0.  0.
</event>
<event>
 4    0  0.2156764E-002  0.1910720E+03  0.7546771E-02  0.1157498E+00
         21   -1    0    0  502  501  0.00000000000E+00  0.00000000000E+00  0.34112841326E+02  0.34112841326E+02  0.00000000000E+00 0.  1.
         21   -1    0    0  501  502 -0.00000000000E+00 -0.00000000000E+00 -0.10702276873E+04  0.10702276873E+04  0.00000000000E+00 0.  1.
         25    1    1    2    0    0 -0.65832806832E+02  0.10071496123E+03 -0.28675989917E+03  0.33516220199E+03  0.12500000000E+03 0.  0.
         25    1    1    2    0    0  0.65832806832E+02 -0.10071496123E+03 -0.74935494684E+03  0.76917832668E+03  0.12500000000E+03 0.  0.
</event>
<event>
 4    0  0.2156764E-002  0.2521310E+03  0.7546771E-02  0.1111965E+00
         21   -1    0    0  502  501  0.00000000000E+00  0.00000000000E+00  0.13792926744E+03  0.13792926744E+03  0.00000000000E+00 0. -1.
         21   -1    0    0  501  502 -0.00000000000E+00 -0.00000000000E+00 -0.46088869128E+03  0.46088869128E+03  0.00000000000E+00 0. -1.
         25    1    1    2    0    0  0.14872100753E+03 -0.13239935558E+03 -0.53308292711E+02  0.24106908037E+03  0.12500000000E+03 0.  0.
         25    1    1    2    0    0 -0.14872100753E+03  0.13239935558E+03 -0.26965113113E+03  0.35774887835E+03  0.12500000000E+03 0.  0.
</event>
<event>
 4    0  0.2156764E-002  0.1626117E+03  0.7546771E-02  0.1185779E+00
         21   -1    0    0  502  501  0.00000000000E+00  0.00000000000E+00  0.28005757686E+02  0.28005757686E+02  0.00000000000E+00 0.  1.
         21   -1    0    0  501  502 -0.00000000000E+00 -0.00000000000E+00 -0.94418325128E+03  0.94418325128E+03  0.00000000000E+00 0.  1.
         25    1    1    2    0    0  0.77919564022E+02 -0.52568523928E+02 -0.32498418674E+03  0.36065860560E+03  0.12500000000E+03 0.  0.
         25    1    1    2    0    0 -0.77919564022E+02  0.52568523928E+02 -0.59119330685E+03  0.61153040336E+03  0.12500000000E+03 0.  0.
</event>
<event>
 4    0  0.2156764E-002  0.1906921E+03  0.7546771E-02  0.1157839E+00
         21   -1    0    0  502  501  0.00000000000E+00  0.00000000000E+00  0.25299371819E+03  0.25299371819E+03  0.00000000000E+00 0.  1.
         21   -1    0    0  501  502 -0.00000000000E+00 -0.00000000000E+00 -0.14373269066E+03  0.14373269066E+03  0.00000000000E+00 0.  1.
         25    1    1    2    0    0  0.69111665211E+02 -0.12633550817E+03  0.53406335965E+02  0.19802605791E+03  0.12500000000E+03 0.  0.
         25    1    1    2    0    0 -0.69111665211E+02  0.12633550817E+03  0.55854691570E+02  0.19870035094E+03  0.12500000000E+03 0.  0.
</event>
<event>
 4    0  0.2156764E-002  0.2626881E+03  0.7546771E-02  0.1105539E+00
         21   -1    0    0  502  501  0.00000000000E+00  0.00000000000E+00  0.16808633954E+04  0.16808633954E+04  0.00000000000E+00 0.  1.
         21   -1    0    0  501  502 -0.00000000000E+00 -0.00000000000E+00 -0.41053315027E+02  0.41053315027E+02  0.00000000000E+00 0.  1.
         25    1    1    2    0    0  0.16268141846E+03  0.21767424133E+02  0.13528475286E+04  0.13684883997E+04  0.12500000000E+03 0.  0.
         25    1    1    2    0    0 -0.16268141846E+03 -0.21767424133E+02  0.28696255185E+03  0.35342831074E+03  0.12500000000E+03 0.  0.
</event>
<event>
 4    0  0.2156764E-002  0.1729673E+03  0.7546771E-02  0.1174788E+00
         21   -1    0    0  502  501  0.00000000000E+00  0.00000000000E+00  0.46701555516E+02  0.46701555516E+02  0.00000000000E+00 0.  1.
         21   -1    0    0  501  502 -0.00000000000E+00 -0.00000000000E+00 -0.64061403061E+03  0.64061403061E+03  0.00000000000E+00 0.  1.
         25    1    1    2    0    0  0.94104822192E+02 -0.44969059148E+02 -0.41305858115E+03  0.44398234796E+03  0.12500000000E+03 0.  0.
         25    1    1    2    0    0 -0.94104822192E+02  0.44969059148E+02 -0.18085389394E+03  0.24333323816E+03  0.12500000000E+03 0.  0.
</event>
<event>
 4    0  0.2156764E-002  0.1697033E+03  0.7546771E-02  0.1178158E+00
         21   -1    0    0  502  501  0.00000000000E+00  0.00000000000E+00  0.18187234889E+03  0.18187234889E+03  0.00000000000E+00 0.  1.
         21   -1    0    0  501  502 -0.00000000000E+00 -0.00000000000E+00 -0.15834847140E+03  0.15834847140E+03  0.00000000000E+00 0.  1.
         25    1    1    2    0    0 -0.10699219336E+02  0.91244377538E+02 -0.57208637975E+02  0.16534157972E+03  0.12500000000E+03 0.  0.
         25    1    1    2    0    0  0.10699219336E+02 -0.91244377538E+02  0.80732515472E+02  0.17487924057E+03  0.12500000000E+03 0.  0.
</event>
<event>
 4    0  0.2156764E-002  0.3086485E+03  0.7546771E-02  0.1080996E+00
         21   -1    0    0  502  501  0.00000000000E+00  0.00000000000E+00  0.86280277836E+03  0.86280277836E+03  0.00000000000E+00 0. -1.
         21   -1    0    0  501  502 -0.00000000000E+00 -0.00000000000E+00 -0.11041211443E+03  0.11041211443E+03  0.00000000000E+00 0. -1.
         25    1    1    2    0    0  0.63614716831E+02  0.13218005325E+03  0.75627900764E+03  0.78044944492E+03  0.12500000000E+03 0.  0.
         25    1    1    2    0    0 -0.63614716831E+02 -0.13218005325E+03 -0.38883437121E+01  0.19276544787E+03  0.12500000000E+03 0.  0.
</event>
<event>
 4    0  0.2156764E-002  0.2361973E+03  0.7546771E-02  0.1122352E+00
         21   -1    0    0  502  501  0.00000000000E+00  0.00000000000E+00  0.60954573236E+02  0.60954573236E+02  0.00000000000E+00 0. -1.
         21   -1    0    0  501  502 -0.00000000000E+00 -0.00000000000E+00 -0.91525808613E+03  0.91525808613E+03  0.00000000000E+00 0. -1.
         25    1    1    2    0    0 -0.15212557959E+03  0.62776632644E+02 -0.19079875908E+03  0.28126902431E+03  0.12500000000E+03 0.  0.
         25    1    1    2    0    0  0.15212557959E+03 -0.62776632644E+02 -0.66350475381E+03  0.69494363505E+03  0.12500000000E+03 0.  0.
</event>
<event>
 4    0  0.2156764E-002  0.2784341E+03  0.7546771E-02  0.1096547E+00
         21   -1    0    0  502  501  0.00000000000E+00  0.00000000000E+00  0.11278803876E+03  0.11278803876E+03  0.00000000000E+00 0. -1.
         21   -1    0    0  501  502 -0.00000000000E+00 -0.00000000000E+00 -0.68735631673E+03  0.68735631673E+03  0.00000000000E+00 0. -1.
         25    1    1    2    0    0 -0.72478355836E+01  0.24809901058E+03 -0.26260849436E+03  0.38235307176E+03  0.12500000000E+03 0.  0.
         25    1    1    2    0    0  0.72478355836E+01 -0.24809901058E+03 -0.31195978361E+03  0.41779128373E+03  0.12500000000E+03 0.  0.
</event>
<event>
 4    0  0.2156764E-002  0.2011215E+03  0.7546771E-02  0.1148796E+00
         21   -1    0    0  502  501  0.00000000000E+00  0.00000000000E+00  0.27485324648E+02  0.27485324648E+02  0.00000000000E+00 0. -1.
         21   -1    0    0  501  502 -0.00000000000E+00 -0.00000000000E+00 -0.14716891739E+04  0.14716891739E+04  0.00000000000E+00 0. -1.
         25    1    1    2    0    0  0.12272690316E+03 -0.36529541236E+02 -0.10642706084E+04  0.10792095385E+04  0.12500000000E+03 0.  0.
         25    1    1    2    0    0 -0.12272690316E+03  0.36529541236E+02 -0.37993324086E+03  0.41996496003E+03  0.12500000000E+03 0.  0.
</event>
<event>
 4    0  0.2156764E-002  0.3320997E+03  0.7546771E-02  0.1070212E+00
         21   -1    0    0  502  501  0.00000000000E+00  0.00000000000E+00  0.31669889512E+03  0.31669889512E+03  0.00000000000E+00 0.  1.
         21   -1    0    0  501  502 -0.00000000000E+00 -0.00000000000E+00 -0.34824938550E+03  0.34824938550E+03  0.00000000000E+00 0.  1.
         25    1    1    2    0    0  0.16551155415E+03  0.10024980416E+03 -0.25525428661E+03  0.34383695064E+03  0.12500000000E+03 0.  0.
         25    1    1    2    0    0 -0.16551155415E+03 -0.10024980416E+03  0.22370379623E+03  0.32111132998E+03  0.12500000000E+03 0.  0.
</event>
<event>
 4    0  0.2156764E-002  0.2616571E+03  0.7546771E-02  0.1106152E+00
         21   -1    0    0  502  501  0.00000000000E+00  0.00000000000E+00  0.18590783681E+03  0.18590783681E+03  0.00000000000E+00 0.  1.
         21   -1    0    0  501  502 -0.00000000000E+00 -0.00000000000E+00 -0.36827084144E+03  0.36827084144E+03  0.00000000000E+00 0.  1.
         25    1    1    2    0    0 -0.22544913199E+03  0.44840433105E+02 -0.89901961820E+02  0.27666828206E+03  0.12500000000E+03 0.  0.
         25    1    1    2    0    0  0.22544913199E+03 -0.44840433105E+02 -0.92461042807E+02  0.27751039619E+03  0.12500000000E+03 0.  0.
</event>
<event>
 4    0  0.2156764E-002  0.2580996E+03  0.7546771E-02  0.1108290E+00
         21   -1    0    0  502  501  0.00000000000E+00  0.00000000000E+00  0.85461704541E+03  0.85461704541E+03  0.00000000000E+00 0. -1.
         21   -1    0    0  501  502 -0.00000000000E+00 -0.00000000000E+00 -0.77947655419E+02  0.77947655419E+02  0.00000000000E+00 0. -1.
         25    1    1    2    0    0 -0.16338649154E+03 -0.54697319849E+02  0.65202045079E+03  0.68588819108E+03  0.12500000000E+03 0.  0.
         25    1    1    2    0    0  0.16338649154E+03  0.54697319849E+02  0.12464893920E+03  0.24667650975E+03  0.12500000000E+03 0.  0.
</event>
<event>
 4    0  0.2156764E-002  0.1785573E+03  0.7546771E-02  0.1169207E+00
         21   -1    0    0  502  501  0.00000000000E+00  0.00000000000E+00  0.23435415132E+03  0.23435415132E+03  0.00000000000E+00 0. -1.
         21   -1    0    0  501  502 -0.00000000000E+00 -0.00000000000E+00 -0.13604501400E+03  0.13604501400E+03  0.00000000000E+00 0. -1.
         25    1    1    2    0    0 -0.40172936022E+02 -0.84475498676E+02 -0.40715888388E+02  0.16134670196E+03  0.12500000000E+03 0.  0.
         25    1    1    2    0    0  0.40172936022E+02  0.84475498676E+02  0.13902502570E+03  0.20905246336E+03  0.12500000000E+03 0.  0.
</event>
<event>
 4    0  0.2156764E-002  0.2375636E+03  0.7546771E-02  0.1121427E+00
         21   -1    0    0  502  501  0.00000000000E+00  0.00000000000E+00  0.53667570023E+03  0.53667570023E+03  0.00000000000E+00 0. -1.
         21   -1    0    0  501  502 -0.00000000000E+00 -0.00000000000E+00 -0.10515931619E+03  0.10515931619E+03  0.00000000000E+00 0. -1.
         25    1    1    2    0    0 -0.15545656742E+03  0.86654051538E+02  0.86640307873E+02  0.23410940167E+03  0.12500000000E+03 0.  0.
         25    1    1    2    0    0  0.15545656742E+03 -0.86654051538E+02  0.34487607617E+03  0.40772561474E+03  0.12500000000E+03 0.  0.
</event>
<event>
 4    0  0.2156764E-002  0.2134599E+03  0.7546771E-02  0.1138855E+00
         21   -1    0    0  502  501  0.00000000000E+00  0.00000000000E+00  0.95157435981E+02  0.95157435981E+02  0.00000000000E+00 0.  1.
         21   -1    0    0  501  502 -0.00000000000E+00 -0.00000000000E+00 -0.47883948959E+03  0.47883948959E+03  0.00000000000E+00 0.  1.
         25    1    1    2    0    0  0.32324859384E+02 -0.12974961530E+03 -0.33949389931E+03  0.38569543279E+03  0.12500000000E+03 0.  0.
         25    1    1    2    0    0 -0.32324859384E+02  0.12974961530E+03 -0.44188154296E+02  0.18830149278E+03  0.12500000000E+03 0.  0.
</event>
<event>
 4    0  0.2156764E-002  0.1743286E+03  0.7546771E-02  0.1173408E+00
         21   -1    0    0  502  501  0.00000000000E+00  0.00000000000E+00  0.23752359554E+03  0.23752359554E+03  0.00000000000E+00 0.  1.
         21   -1    0    0  501  502 -0.00000000000E+00 -0.00000000000E+00 -0.12794712675E+03  0.12794712675E+03  0.00000000000E+00 0.  1.
         25    1    1    2    0    0 -0.87374353972E+02  0.17778540923E+02 -0.31746466677E+02  0.15679028157E+03  0.12500000000E+03 0.  0.
         25    1    1    2    0    0  0.87374353972E+02 -0.17778540923E+02  0.14132293547E+03  0.20868044072E+03  0.12500000000E+03 0.  0.
</event>
<event>
 4    0  0.2156764E-002  0.2022115E+03  0.7546771E-02  0.1147886E+00
         21   -1    0    0  502  501  0.00000000000E+00  0.00000000000E+00  0.18777950752E+02  0.18777950752E+02  0.00000000000E+00 0. -1.
         21   -1    0    0  501  502 -0.00000000000E+00 -0.00000000000E+00 -0.21775274873E+04  0.21775274873E+04  0.00000000000E+00 0. -1.
         25    1    1    2    0    0 -0.91225172280E+02  0.11693718857E+03 -0.13898370608E+04  0.14033062366E+04  0.12500000000E+03 0.  0.
         25    1    1    2    0    0  0.91225172280E+02 -0.11693718857E+03 -0.76891247575E+03  0.79299920145E+03  0.12500000000E+03 0.  0.
</event>
<event>
 4    0  0.2156764E-002  0.2097949E+03  0.7546771E-02  0.1141729E+00
         21   -1    0    0  502  501  0.00000000000E+00  0.00000000000E+00  0.72532407961E+03  0.72532407961E+03  0.00000000000E+00 0. -1.
         21   -1    0    0  501  502 -0.00000000000E+00 -0.00000000000E+00 -0.60681688506E+02  0.60681688506E+02  0.00000000000E+00 0. -1.
         25    1    1    2    0    0  0.12954343443E+02  0.28146150341E+02  0.64256621054E+03  0.65534445578E+03  0.12500000000E+03 0.  0.
         25    1    1    2    0    0 -0.12954343443E+02 -0.28146150341E+02  0.22076180563E+02  0.13066131234E+03  0.12500000000E+03 0.  0.
</event>
<event>
 4    0  0.2156764E-002  0.1382984E+03  0.7546771E-02  0.1215637E+00
         21   -1    0    0  502  501  0.00000000000E+00  0.00000000000E+00  0.23552803967E+03  0.23552803967E+03  0.00000000000E+00 0.  1.
         21   -1    0    0  501  502 -0.00000000000E+00 -0.00000000000E+00 -0.81206725805E+02  0.81206725805E+02  0.00000000000E+00 0.  1.
         25    1    1    2    0    0 -0.33940119455E+02 -0.91483233947E+00  0.13265663289E+03  0.18540644778E+03  0.12500000000E+03 0.  0.
         25    1    1    2    0    0  0.33940119455E+02  0.91483233947E+00  0.21664680966E+02  0.13132831769E+03  0.12500000000E+03 0.  0.
</event>
<event>
 4    0  0.2156764E-002  0.1922699E+03  0.7546771E-02  0.1156430E+00
         21   -1    0    0  502  501  0.00000000000E+00  0.00000000000E+00  0.59487510130E+03  0.59487510130E+03  0.00000000000E+00 0.  1.
         21   -1    0    0  501  502 -0.00000000000E+00 -0.00000000000E+00 -0.62143645614E+02  0.62143645614E+02  0.00000000000E+00 0.  1.
         25    1    1    2    0    0  0.10923975217E+03  0.91873987136E+02  0.31953963109E+03  0.37162444592E+03  0.12500000000E+03 0.  0.
         25    1    1    2    0    0 -0.10923975217E+03 -0.91873987136E+02  0.21319182460E+03  0.28539430100E+03  0.12500000000E+03 0.  0.
</event>
<event>
 4    0  0.2156764E-002  0.2998197E+03  0.7546771E-02  0.1085331E+00
         21   -1    0    0  502  501  0.00000000000E+00  0.00000000000E+00  0.16412425616E+03  0.16412425616E+03  0.00000000000E+00 0.  1.
         21   -1    0    0  501  502 -0.00000000000E+00 -0.00000000000E+00 -0.54770604809E+03  0.54770604809E+03  0.00000000000E+00 0. -1.
         25    1    1    2    0    0  0.27047975476E+03  0.20572736262E+02 -0.22284461132E+03  0.37264897156E+03  0.12500000000E+03 0.  0.
         25    1    1    2    0    0 -0.27047975476E+03 -0.20572736262E+02 -0.16073718062E+03  0.33918133269E+03  0.12500000000E+03 0.  0.
</event>
<event>
 4    0  0.2156764E-002  0.1932065E+03  0.7546771E-02  0.1155601E+00
         21   -1    0    0  502  501  0.00000000000E+00  0.00000000000E+00  0.43815548396E+03  0.43815548396E+03  0.00000000000E+00 0.  1.
         21   -1    0    0  501  502 -0.00000000000E+00 -0.00000000000E+00 -0.85195210969E+02  0.85195210969E+02  0.00000000000E+00 0.  1.
         25    1    1    2    0    0 -0.49759825074E+02  0.62501522921E+02  0.88359677561E+01  0.14861209535E+03  0.12500000000E+03 0.  0.
         25    1    1    2    0    0  0.49759825074E+02 -0.62501522921E+02  0.34412430524E+03  0.37473859958E+03  0.12500000000E+03 0.  0.
</event>
<event>
 4    0  0.2156764E-002  0.2226695E+03  0.7546771E-02  0.1131908E+00
         21   -1    0    0  502  501  0.00000000000E+00  0.00000000000E+00  0.11285398586E+03  0.11285398586E+03  0.00000000000E+00 0.  1.
         21   -1    0    0  501  502 -0.00000000000E+00 -0.00000000000E+00 -0.43934383265E+03  0.43934383265E+03  0.00000000000E+00 0.  1.
         25    1    1    2    0    0  0.12333633000E+03 -0.51197064824E+01  0.64001023514E+01  0.17579540097E+03  0.12500000000E+03 0.  0.
         25    1    1    2    0    0 -0.12333633000E+03  0.51197064824E+01 -0.33288994913E+03  0.37640241754E+03  0.12500000000E+03 0.  0.
</event>
<event>
 4    0  0.2156764E-002  0.1796872E+03  0.7546771E-02  0.1168106E+00
         21   -1    0    0  502  501  0.00000000000E+00  0.00000000000E+00  0.18304648146E+03  0.18304648146E+03  0.00000000000E+00 0.  1.
         21   -1    0    0  501  502 -0.00000000000E+00 -0.00000000000E+00 -0.17638950860E+03  0.17638950860E+03  0.00000000000E+00 0.  1.
         25    1    1    2    0    0  0.86333385858E+02  0.78210045759E+02 -0.52288733714E+02  0.17868793033E+03  0.12500000000E+03 0.  0.
         25    1    1    2    0    0 -0.86333385858E+02 -0.78210045759E+02  0.58945706579E+02  0.18074805973E+03  0.12500000000E+03 0.  0.
</event>
<event>
 4    0  0.2156764E-002  0.2496208E+03  0.7546771E-02  0.1113545E+00
         21   -1    0    0  502  501  0.00000000000E+00  0.00000000000E+00  0.51633358531E+03  0.51633358531E+03  0.00000000000E+00 0.  1.
         21   -1    0    0  501  502 -0.00000000000E+00 -0.00000000000E+00 -0.12067884617E+03  0.12067884617E+03  0.00000000000E+00 0.  1.
         25    1    1    2    0    0  0.19640733421E+03  0.63607881133E+02  0.27916658736E+03  0.36902681064E+03  0.12500000000E+03 0.  0.
         25    1    1    2    0    0 -0.19640733421E+03 -0.63607881133E+02  0.11648815178E+03  0.26798562084E+03  0.12500000000E+03 0.  0.
</event>
<event>
 4    0  0.2156764E-002  0.2273390E+03  0.7546771E-02  0.1128527E+00
         21   -1    0    0  502  501  0.00000000000E+00  0.00000000000E+00  0.83898201879E+02  0.83898201879E+02  0.00000000000E+00 0. -1.
         21   -1    0    0  501  502 -0.00000000000E+00 -0.00000000000E+00 -0.61602051342E+03  0.61602051342E+03  0.00000000000E+00 0. -1.
         25    1    1    2    0    0  0.24055380692E+02 -0.98496914958E+02 -0.51321414195E+03  0.53786063166E+03  0.12500000000E+03 0.  0.
         25    1    1    2    0    0 -0.24055380692E+02  0.98496914958E+02 -0.18908169599E+02  0.16205808364E+03  0.12500000000E+03 0.  0.
</event>
<event>
 4    0  0.2156764E-002  0.3324906E+03  0.7546771E-02  0.1070040E+00
         21   -1    0    0  502  501  0.00000000000E+00  0.00000000000E+00  0.57345796897E+03  0.57345796897E+03  0.00000000000E+00 0.  1.
         21   -1    0    0  501  502 -0.00000000000E+00 -0.00000000000E+00 -0.19277785961E+03  0.19277785961E+03  0.00000000000E+00 0.  1.
         25    1    1    2    0    0 -0.13011140219E+01 -0.12563220654E+03  0.51449355333E+03  0.54416335841E+03  0.12500000000E+03 0.  0.
         25    1    1    2    0    0  0.13011140219E+01  0.12563220654E+03 -0.13381344397E+03  0.22207247017E+03  0.12500000000E+03 0.  0.
</event>
<event>
 4    0  0.2156764E-002  0.1873288E+03  0.7546771E-02  0.1160893E+00
         21   -1    0    0  502  501  0.00000000000E+00  0.00000000000E+00  0.10761083346E+02  0.10761083346E+02  0.00000000000E+00 0.  1.
         21   -1    0    0  501  502 -0.00000000000E+00 -0.00000000000E+00 -0.32610164310E+04  0.32610164310E+04  0.00000000000E+00 0.  1.
         25    1    1    2    0    0 -0.13286022557E+03 -0.39298828804E+02 -0.14814135792E+04  0.14931200321E+04  0.12500000000E+03 0.  0.
         25    1    1    2    0    0  0.13286022557E+03  0.39298828804E+02 -0.17688417684E+04  0.17786574822E+04  0.12500000000E+03 0.  0.
</event>
<event>
 4    0  0.2156764E-002  0.2061872E+03  0.7546771E-02  0.1144621E+00
         21   -1    0    0  502  501  0.00000000000E+00  0.00000000000E+00  0.48579082434E+02  0.48579082434E+02  0.00000000000E+00 0. -1.
         21   -1    0    0  501  502 -0.00000000000E+00 -0.00000000000E+00 -0.87513271894E+03  0.87513271894E+03  0.00000000000E+00 0. -1.
         25    1    1    2    0    0 -0.24330746577E+02 -0.11415345984E+03 -0.67126565455E+03  0.69270886858E+03  0.12500000000E+03 0.  0.
         25    1    1    2    0    0  0.24330746577E+02  0.11415345984E+03 -0.15528798195E+03  0.23100293280E+03  0.12500000000E+03 0.  0.
</event>
<event>
 4    0  0.2156764E-002  0.1839667E+03  0.7546771E-02  0.1164018E+00
         21   -1    0    0  502  501  0.00000000000E+00  0.00000000000E+00  0.18506560940E+04  0.18506560940E+04  0.00000000000E+00 0. -1.
         21   -1    0    0  501  502 -0.00000000000E+00 -0.00000000000E+00 -0.18287436196E+02  0.18287436196E+02  0.00000000000E+00 0. -1.
         25    1    1    2    0    0 -0.10187251448E+03 -0.88218405762E+02  0.87741322890E+03  0.89645940821E+03  0.12500000000E+03 0.  0.
         25    1    1    2    0    0  0.10187251448E+03  0.88218405762E+02  0.95495542892E+03  0.97248412200E+03  0.12500000000E+03 0.  0.
</event>
<event>
 4    0  0.2156764E-002  0.4919095E+03  0.7546771E-02  0.1015912E+00
         21   -1    0    0  502  501  0.00000000000E+00  0.00000000000E+00  0.57468047299E+03  0.57468047299E+03  0.00000000000E+00 0. -1.
         21   -1    0    0  501  502 -0.00000000000E+00 -0.00000000000E+00 -0.42105992349E+03  0.42105992349E+03  0.00000000000E+00 0. -1.
         25    1    1    2    0    0  0.15918954808E-01 -0.44789807968E+03 -0.85561981197E+02  0.47281977820E+03  0.12500000000E+03 0.  0.
         25    1    1    2    0    0 -0.15918954808E-01  0.44789807968E+03  0.23918253070E+03  0.52292061828E+03  0.12500000000E+03 0.  0.
</event>
<event>
 4    0  0.2156764E-002  0.2662412E+03  0.7546771E-02  0.1103450E+00
         21   -1    0    0  502  501  0.00000000000E+00  0.00000000000E+00  0.28447972330E+03  0.28447972330E+03  0.00000000000E+00 0. -1.
         21   -1    0    0  501  502 -0.00000000000E+00 -0.00000000000E+00 -0.24917190268E+03  0.24917190268E+03  0.00000000000E+00 0. -1.
         25    1    1    2    0    0 -0.20549879205E+03  0.95639353350E+02 -0.44794354665E+02  0.26269406855E+03  0.12500000000E+03 0.  0.
         25    1    1    2    0    0  0.20549879205E+03 -0.95639353350E+02  0.80102175291E+02  0.27095755743E+03  0.12500000000E+03 0.  0.
</event>
<event>
 4    0  0.2156764E-002  0.2997587E+03  0.7546771E-02  0.1085361E+00
         21   -1    0    0  502  501  0.00000000000E+00  0.00000000000E+00  0.73765509344E+03  0.73765509344E+03  0.00000000000E+00 0. -1.
         21   -1    0    0  501  502 -0.00000000000E+00 -0.00000000000E+00 -0.12181204234E+03  0.12181204234E+03  0.00000000000E+00 0. -1.
         25    1    1    2    0    0 -0.68023198992E+02  0.25725409638E+03  0.22404134683E+03  0.36963001879E+03  0.12500000000E+03 0.  0.
         25    1    1    2    0    0  0.68023198992E+02 -0.25725409638E+03  0.39180170427E+03  0.48983711698E+03  0.12500000000E+03 0.  0.
</event>
<event>
 4    0  0.2156764E-002  0.2642588E+03  0.7546771E-02  0.1104611E+00
         21   -1    0    0  502  501  0.00000000000E+00  0.00000000000E+00  0.85409800138E+03  0.85409800138E+03  0.00000000000E+00 0.  1.
         21   -1    0    0  501  502 -0.00000000000E+00 -0.00000000000E+00 -0.81761921124E+02  0.81761921124E+02  0.00000000000E+00 0.  1.
         25    1    1    2    0    0  0.15068247092E+03  0.11268684711E+03  0.14335140522E+03  0.26754094628E+03  0.12500000000E+03 0.  0.
         25    1    1    2    0    0 -0.15068247092E+03 -0.11268684711E+03  0.62898467504E+03  0.66831897623E+03  0.12500000000E+03 0.  0.
</event>
<event>
 4    0  0.2156764E-002  0.1492827E+03  0.7546771E-02  0.1201357E+00
         21   -1    0    0  502  501  0.00000000000E+00  0.00000000000E+00  0.68892462710E+03  0.68892462710E+03  0.00000000000E+00 0.  1.
         21   -1    0    0  501  502 -0.00000000000E+00 -0.00000000000E+00 -0.32347968787E+02  0.32347968787E+02  0.00000000000E+00 0.  1.
         25    1    1    2    0    0 -0.37516155475E+01  0.73221524774E+02  0.41488189347E+03  0.43946268537E+03  0.12500000000E+03 0.  0.
         25    1    1    2    0    0  0.37516155475E+01 -0.73221524774E+02  0.24169476484E+03  0.28180991051E+03  0.12500000000E+03 0.  0.
</event>
<event>
 4    0  0.2156764E-002  0.1816125E+03  0.7546771E-02  0.1166252E+00
         21   -1    0    0  502  501  0.00000000000E+00  0.00000000000E+00  0.77712918642E+02  0.77712918642E+02  0.00000000000E+00 0.  1.
         21   -1    0    0  501  502 -0.00000000000E+00 -0.00000000000E+00 -0.42442241903E+03  0.42442241903E+03  0.00000000000E+00 0.  1.
         25    1    1    2    0    0  0.89188228103E+02  0.76986608479E+02 -0.91842276791E+02  0.19478573285E+03  0.12500000000E+03 0.  0.
         25    1    1    2    0    0 -0.89188228103E+02 -0.76986608479E+02 -0.25486722359E+03  0.30734960481E+03  0.12500000000E+03 0.  0.
</event>
<event>
 4    0  0.2156764E-002  0.2334552E+03  0.7546771E-02  0.1124231E+00
         21   -1    0    0  502  501  0.00000000000E+00  0.00000000000E+00  0.16983684694E+04  0.16983684694E+04  0.00000000000E+00 0. -1.
         21   -1    0    0  501  502 -0.00000000000E+00 -0.00000000000E+00 -0.32090414106E+02  0.32090414106E+02  0.00000000000E+00 0. -1.
         25    1    1    2    0    0 -0.13705447832E+03  0.13470162356E+03  0.66956667847E+03  0.70772381219E+03  0.12500000000E+03 0.  0.
         25    1    1    2    0    0  0.13705447832E+03 -0.13470162356E+03  0.99671137683E+03  0.10227350713E+04  0.12500000000E+03 0.  0.
</event>
<event>
 4    0  0.2156764E-002  0.2112116E+03  0.7546771E-02  0.1140610E+00
         21   -1    0    0  502  501  0.00000000000E+00  0.00000000000E+00  0.16745920855E+03  0.16745920855E+03  0.00000000000E+00 0.  1.
         21   -1    0    0  501  502 -0.00000000000E+00 -0.00000000000E+00 -0.26639514549E+03  0.26639514549E+03  0.00000000000E+00 0.  1.
         25    1    1    2    0    0  0.15724889724E+03 -0.49572194584E+02 -0.58849579814E+01  0.20698852840E+03  0.12500000000E+03 0.  0.
         25    1    1    2    0    0 -0.15724889724E+03  0.49572194584E+02 -0.93050978961E+02  0.22686582564E+03  0.12500000000E+03 0.  0.
</event>
<event>
 4    0  0.2156764E-002  0.2104789E+03  0.7546771E-02  0.1141187E+00
         21   -1    0    0  502  501  0.00000000000E+00  0.00000000000E+00  0.26164053437E+03  0.26164053437E+03  0.00000000000E+00 0.  1.
         21   -1    0    0  501  502 -0.00000000000E+00 -0.00000000000E+00 -0.16932143753E+03  0.16932143753E+03  0.00000000000E+00 0.  1.
         25    1    1    2    0    0 -0.79727125969E+02 -0.11041128258E+03  0.14919575757E+03  0.23755302569E+03  0.12500000000E+03 0.  0.
         25    1    1    2    0    0  0.79727125969E+02  0.11041128258E+03 -0.56876660729E+02  0.19340894620E+03  0.12500000000E+03 0.  0.
</event>
<event>
 4    0  0.2156764E-002  0.1814073E+03  0.7546771E-02  0.1166448E+00
         21   -1    0    0  502  501  0.00000000000E+00  0.00000000000E+00  0.13580451039E+03  0.13580451039E+03  0.00000000000E+00 0. -1.
         21   -1    0    0  501  502 -0.00000000000E+00 -0.00000000000E+00 -0.24232332460E+03  0.24232332460E+03  0.00000000000E+00 0. -1.
         25    1    1    2    0    0  0.10789109735E+03  0.23156504317E+02  0.21219296271E+02  0.16808322675E+03  0.12500000000E+03 0.  0.
         25    1    1    2    0    0 -0.10789109735E+03 -0.23156504317E+02 -0.12773811049E+03  0.21004460824E+03  0.12500000000E+03 0.  0.
</event>
<event>
 4    0  0.2156764E-002  0.2877591E+03  0.7546771E-02  0.1091525E+00
         21   -1    0    0  502  501  0.00000000000E+00  0.00000000000E+00  0.34541711581E+03  0.34541711581E+03  0.00000000000E+00 0. -1.
         21   -1    0    0  501  502 -0.00000000000E+00 -0.00000000000E+00 -0.23972551174E+03  0.23972551174E+03  0.00000000000E+00 0. -1.
         25    1    1    2    0    0 -0.38691452972E+02 -0.25566093909E+03  0.34636789894E+02  0.28928230420E+03  0.12500000000E+03 0.  0.
         25    1    1    2    0    0  0.38691452972E+02  0.25566093909E+03  0.71054814179E+02  0.29586032334E+03  0.12500000000E+03 0.  0.
</event>
<event>
 4    0  0.2156764E-002  0.4555425E+03  0.7546771E-02  0.1026082E+00
         21   -1    0    0  502  501  0.00000000000E+00  0.00000000000E+00  0.15607600105E+03  0.15607600105E+03  0.00000000000E+00 0. -1.
         21   -1    0    0  501  502 -0.00000000000E+00 -0.00000000000E+00 -0.13296021079E+04  0.13296021079E+04  0.00000000000E+00 0. -1.
         25    1    1    2    0    0  0.37038740724E+03 -0.14165457348E+03 -0.28326085315E+03  0.50310492003E+03  0.12500000000E+03 0.  0.
         25    1    1    2    0    0 -0.37038740724E+03  0.14165457348E+03 -0.89026525366E+03  0.98257318888E+03  0.12500000000E+03 0.  0.
</event>
<event>
 4    0  0.2156764E-002  0.1840148E+03  0.7546771E-02  0.1163973E+00
         21   -1    0    0  502  501  0.00000000000E+00  0.00000000000E+00  0.43744961595E+03  0.43744961595E+03  0.00000000000E+00 0.  1.
         21   -1    0    0  501  502 -0.00000000000E+00 -0.00000000000E+00 -0.77406500256E+02  0.77406500256E+02  0.00000000000E+00 0.  1.
         25    1    1    2    0    0 -0.95574759153E+02  0.20436300797E+02  0.49653941721E+02  0.16626091214E+03  0.12500000000E+03 0.  0.
         25    1    1    2    0    0  0.95574759153E+02 -0.20436300797E+02  0.31038917397E+03  0.34859520406E+03  0.12500000000E+03 0.  0.
</event>
<event>
 4    0  0.2156764E-002  0.1735652E+03  0.7546771E-02  0.1174180E+00
         21   -1    0    0  502  501  0.00000000000E+00  0.00000000000E+00  0.18962813178E+03  0.18962813178E+03  0.00000000000E+00 0. -1.
         21   -1    0    0  501  502 -0.00000000000E+00 -0.00000000000E+00 -0.15886300661E+03  0.15886300661E+03  0.00000000000E+00 0. -1.
         25    1    1    2    0    0 -0.53769090451E+02  0.99430326324E+02 -0.26281801089E+02  0.17056740002E+03  0.12500000000E+03 0.  0.
         25    1    1    2    0    0  0.53769090451E+02 -0.99430326324E+02  0.57046926250E+02  0.17792373837E+03  0.12500000000E+03 0.  0.
</event>
<event>
 4    0  0.2156764E-002  0.2025090E+03  0.7546771E-02  0.1147639E+00
         21   -1    0    0  502  501  0.00000000000E+00  0.00000000000E+00  0.41882770175E+03  0.41882770175E+03  0.00000000000E+00 0. -1.
         21   -1    0    0  501  502 -0.00000000000E+00 -0.00000000000E+00 -0.97915918441E+02  0.97915918441E+02  0.00000000000E+00 0. -1.
         25    1    1    2    0    0  0.93251479742E+02 -0.17143467598E+01 -0.43521807567E+01  0.15602153357E+03  0.12500000000E+03 0.  0.
         25    1    1    2    0    0 -0.93251479742E+02  0.17143467598E+01  0.32526396406E+03  0.36072208662E+03  0.12500000000E+03 0.  0.
</event>
<event>
 4    0  0.2156764E-002  0.1843724E+03  0.7546771E-02  0.1163637E+00
         21   -1    0    0  502  501  0.00000000000E+00  0.00000000000E+00  0.19434307679E+03  0.19434307679E+03  0.00000000000E+00 0. -1.
         21   -1    0    0  501  502 -0.00000000000E+00 -0.00000000000E+00 -0.17491317504E+03  0.17491317504E+03  0.00000000000E+00 0. -1.
         25    1    1    2    0    0  0.63964092601E+02  0.18030897281E+02  0.12799589709E+03  0.19085195328E+03  0.12500000000E+03 0.  0.
         25    1    1    2    0    0 -0.63964092601E+02 -0.18030897281E+02 -0.10856599534E+03  0.17840429855E+03  0.12500000000E+03 0.  0.
</event>
<event>
 4    0  0.2156764E-002  0.3168945E+03  0.7546771E-02  0.1077087E+00
         21   -1    0    0  502  501  0.00000000000E+00  0.00000000000E+00  0.14565801531E+04  0.14565801531E+04  0.00000000000E+00 0.  1.
         21   -1    0    0  501  502 -0.00000000000E+00 -0.00000000000E+00 -0.68943753860E+02  0.68943753860E+02  0.00000000000E+00 0.  1.
         25    1    1    2    0    0  0.20859215347E+03  0.14406932999E+03  0.10387025983E+04  0.10764732909E+04  0.12500000000E+03 0.  0.
         25    1    1    2    0    0 -0.20859215347E+03 -0.14406932999E+03  0.34893380094E+03  0.44905061604E+03  0.12500000000E+03 0.  0.
</event>
<event>
 4    0  0.2156764E-002  0.2142166E+03  0.7546771E-02  0.1138270E+00
         21   -1    0    0  502  501  0.00000000000E+00  0.00000000000E+00  0.13154109394E+03  0.13154109394E+03  0.00000000000E+00 0.  1.
         21   -1    0    0  501  502 -0.00000000000E+00 -0.00000000000E+00 -0.34885491961E+03  0.34885491961E+03  0.00000000000E+00 0.  1.
         25    1    1    2    0    0 -0.34137006038E+01 -0.70090279390E+02  0.69833503210E+02  0.15945538181E+03  0.12500000000E+03 0.  0.
         25    1    1    2    0    0  0.34137006038E+01  0.70090279390E+02 -0.28714732888E+03  0.32094063174E+03  0.12500000000E+03 0.  0.
</event>
<event>
 4    0  0.2156764E-002  0.2305873E+03  0.7546771E-02  0.1126227E+00
         21   -1    0    0  502  501  0.00000000000E+00  0.00000000000E+00  0.98222217076E+02  0.98222217076E+02  0.00000000000E+00 0. -1.
         21   -1    0    0  501  502 -0.00000000000E+00 -0.00000000000E+00 -0.54132862792E+03  0.54132862792E+03  0.00000000000E+00 0. -1.
         25    1    1    2    0    0  0.68898114070E+01 -0.11703259035E+03 -0.43550256004E+03  0.46800809449E+03  0.12500000000E+03 0.  0.
         25    1    1    2    0    0 -0.68898114070E+01  0.11703259035E+03 -0.76038508069E+01  0.17154275051E+03  0.12500000000E+03 0.  0.
</event>
<event>
 4    0  0.2156764E-002  0.1949789E+03  0.7546771E-02  0.1154046E+00
         21   -1    0    0  502  501  0.00000000000E+00  0.00000000000E+00  0.91869840766E+03  0.91869840766E+03  0.00000000000E+00 0. -1.
         21   -1    0    0  501  502 -0.00000000000E+00 -0.00000000000E+00 -0.41381141698E+02  0.41381141698E+02  0.00000000000E+00 0. -1.
         25    1    1    2    0    0  0.10352927351E+03  0.77488954393E+02  0.25328820402E+03  0.31064893823E+03  0.12500000000E+03 0.  0.
         25    1    1    2    0    0 -0.10352927351E+03 -0.77488954393E+02  0.62402906194E+03  0.64943061113E+03  0.12500000000E+03 0.  0.
</event>
<event>
 4    0  0.2156764E-002  0.1819373E+03  0.7546771E-02  0.1165941E+00
         21   -1    0    0  502  501  0.00000000000E+00  0.00000000000E+00  0.15127040812E+03  0.15127040812E+03  0.00000000000E+00 0.  1.
         21   -1    0    0  501  502 -0.00000000000E+00 -0.00000000000E+00 -0.21882136425E+03  0.21882136425E+03  0.00000000000E+00 0.  1.
         25    1    1    2    0    0 -0.10200880177E+03 -0.77342681178E+02 -0.21918209631E+00  0.17892102731E+03  0.12500000000E+03 0.  0.
         25    1    1    2    0    0  0.10200880177E+03  0.77342681178E+02 -0.67331774034E+02  0.19117074506E+03  0.12500000000E+03 0.  0.
</event>
<event>
 4    0  0.2156764E-002  0.2015666E+03  0.7546771E-02  0.1148424E+00
         21   -1    0    0  502  501  0.00000000000E+00  0.00000000000E+00  0.70881360655E+03  0.70881360655E+03  0.00000000000E+00 0.  1.
         21   -1    0    0  501  502 -0.00000000000E+00 -0.00000000000E+00 -0.57319883594E+02  0.57319883594E+02  0.00000000000E+00 0.  1.
         25    1    1    2    0    0  0.64022359041E+02 -0.61042001794E+02  0.76656858229E+02  0.17124912366E+03  0.12500000000E+03 0.  0.
         25    1    1    2    0    0 -0.64022359041E+02  0.61042001794E+02  0.57483686473E+03  0.59488436649E+03  0.12500000000E+03 0.  0.
</event>
<event>
 4    0  0.2156764E-002  0.2400103E+03  0.7546771E-02  0.1119786E+00
         21   -1    0    0  502  501  0.00000000000E+00  0.00000000000E+00  0.14349745208E+03  0.14349745208E+03  0.00000000000E+00 0. -1.
         21   -1    0    0  501  502 -0.00000000000E+00 -0.00000000000E+00 -0.40143527953E+03  0.40143527953E+03  0.00000000000E+00 0. -1.
         25    1    1    2    0    0  0.45302365689E+02 -0.19482252420E+03 -0.78558923206E+02  0.24860535933E+03  0.12500000000E+03 0.  0.
         25    1    1    2    0    0 -0.45302365689E+02  0.19482252420E+03 -0.17937890425E+03  0.29632737228E+03  0.12500000000E+03 0.  0.
</event>
<event>
 4    0  0.2156764E-002  0.1809755E+03  0.7546771E-02  0.1166862E+00
         21   -1    0    0  502  501  0.00000000000E+00  0.00000000000E+00  0.19048058517E+02  0.19048058517E+02  0.00000000000E+00 0.  1.
         21   -1    0    0  501  502 -0.00000000000E+00 -0.00000000000E+00 -0.17194463857E+04  0.17194463857E+04  0.00000000000E+00 0.  1.
         25    1    1    2    0    0  0.37912980640E+02 -0.11675177862E+03 -0.63226528402E+03  0.65608898885E+03  0.12500000000E+03 0.  0.
         25    1    1    2    0    0 -0.37912980640E+02  0.11675177862E+03 -0.10681330432E+04  0.10824054554E+04  0.12500000000E+03 0.  0.
</event>
<event>
 4    0  0.2156764E-002  0.2066988E+03  0.7546771E-02  0.1144207E+00
         21   -1    0    0  502  501  0.00000000000E+00  0.00000000000E+00  0.32777295872E+03  0.32777295872E+03  0.00000000000E+00 0.  1.
         21   -1    0    0  501  502 -0.00000000000E+00 -0.00000000000E+00 -0.13034747456E+03  0.13034747456E+03  0.00000000000E+00 0.  1.
         25    1    1    2    0    0 -0.38877797081E+02  0.13681378894E+03  0.19056427678E+03  0.26864333145E+03  0.12500000000E+03 0.  0.
         25    1    1    2    0    0  0.38877797081E+02 -0.13681378894E+03  0.68612073753E+01  0.18947710183E+03  0.12500000000E+03 0.  0.
</event>
<event>
 4    0  0.2156764E-002  0.2238469E+03  0.7546771E-02  0.1131047E+00
         21   -1    0    0  502  501  0.00000000000E+00  0.00000000000E+00  0.18611676248E+03  0.18611676248E+03  0.00000000000E+00 0.  1.
         21   -1    0    0  501  502 -0.00000000000E+00 -0.00000000000E+00 -0.26922577764E+03  0.26922577764E+03  0.00000000000E+00 0.  1.
         25    1    1    2    0    0  0.17601640269E+03  0.47643167312E+02 -0.58725879697E+01  0.22115861434E+03  0.12500000000E+03 0.  0.
         25    1    1    2    0    0 -0.17601640269E+03 -0.47643167312E+02 -0.77236427185E+02  0.23418392578E+03  0.12500000000E+03 0.  0.
</event>
<event>
 4    0  0.2156764E-002  0.2411319E+03  0.7546771E-02  0.1119041E+00
         21   -1    0    0  502  501  0.00000000000E+00  0.00000000000E+00  0.21672249347E+03  0.21672249347E+03  0.00000000000E+00 0.  1.
         21   -1    0    0  501  502 -0.00000000000E+00 -0.00000000000E+00 -0.26829053912E+03  0.26829053912E+03  0.00000000000E+00 0.  1.
         25    1    1    2    0    0 -0.13009887527E+02 -0.18164259878E+03 -0.12306342559E+03  0.25284955524E+03  0.12500000000E+03 0.  0.
         25    1    1    2    0    0  0.13009887527E+02  0.18164259878E+03  0.71495379947E+02  0.23216347736E+03  0.12500000000E+03 0.  0.
</event>
<event>
 4    0  0.2156764E-002  0.1769225E+03  0.7546771E-02  0.1170815E+00
         21   -1    0    0  502  501  0.00000000000E+00  0.00000000000E+00  0.11140514948E+04  0.11140514948E+04  0.00000000000E+00 0.  1.
         21   -1    0    0  501  502 -0.00000000000E+00 -0.00000000000E+00 -0.28097073298E+02  0.28097073298E+02  0.00000000000E+00 0.  1.
         25    1    1    2    0    0  0.29796580454E+02  0.62586300942E+02  0.87953392833E+03  0.89107228234E+03  0.12500000000E+03 0.  0.
         25    1    1    2    0    0 -0.29796580454E+02 -0.62586300942E+02  0.20642049322E+03  0.25107628580E+03  0.12500000000E+03 0.  0.
</event>
<event>
 4    0  0.2156764E-002  0.1855351E+03  0.7546771E-02  0.1162551E+00
         21   -1    0    0  502  501  0.00000000000E+00  0.00000000000E+00  0.27329449085E+03  0.27329449085E+03  0.00000000000E+00 0. -1.
         21   -1    0    0  501  502 -0.00000000000E+00 -0.00000000000E+00 -0.12595671672E+03  0.12595671672E+03  0.00000000000E+00 0. -1.
         25    1    1    2    0    0  0.31033156979E+01  0.13484848603E+03  0.10012340117E+03  0.20938825233E+03  0.12500000000E+03 0.  0.
         25    1    1    2    0    0 -0.31033156979E+01 -0.13484848603E+03  0.47214372962E+02  0.18986295523E+03  0.12500000000E+03 0.  0.
</event>
<event>
 4    0  0.2156764E-002  0.2131697E+03  0.7546771E-02  0.1139080E+00
         21   -1    0    0  502  501  0.00000000000E+00  0.00000000000E+00  0.13861151136E+03  0.13861151136E+03  0.00000000000E+00 0.  1.
         21   -1    0    0  501  502 -0.00000000000E+00 -0.00000000000E+00 -0.32783224850E+03  0.32783224850E+03  0.00000000000E+00 0.  1.
         25    1    1    2    0    0 -0.12125750162E+03 -0.33139819314E+02 -0.22413000531E+03  0.28576369364E+03  0.12500000000E+03 0.  0.
         25    1    1    2    0    0  0.12125750162E+03  0.33139819314E+02  0.34909268181E+02  0.18068006622E+03  0.12500000000E+03 0.  0.
</event>
<event>
 4    0  0.2156764E-002  0.1469185E+03  0.7546771E-02  0.1204312E+00
         21   -1    0    0  502  501  0.00000000000E+00  0.00000000000E+00  0.18572914126E+02  0.18572914126E+02  0.00000000000E+00 0.  1.
         21   -1    0    0  501  502 -0.00000000000E+00 -0.00000000000E+00 -0.11621781682E+04  0.11621781682E+04  0.00000000000E+00 0.  1.
         25    1    1    2    0    0  0.98845618916E+01 -0.57794251841E+02 -0.77361039505E+03  0.78583453948E+03  0.12500000000E+03 0.  0.
         25    1    1    2    0    0 -0.98845618916E+01  0.57794251841E+02 -0.36999485902E+03  0.39491654284E+03  0.12500000000E+03 0.  0.
</event>
<event>
 4    0  0.2156764E-002  0.2187027E+03  0.7546771E-02  0.1134854E+00
         21   -1    0    0  502  501  0.00000000000E+00  0.00000000000E+00  0.73613307744E+03  0.73613307744E+03  0.00000000000E+00 0. -1.
         21   -1    0    0  501  502 -0.00000000000E+00 -0.00000000000E+00 -0.64975821565E+02  0.64975821565E+02  0.00000000000E+00 0. -1.
         25    1    1    2    0    0 -0.44477758759E+02 -0.22984816217E+02  0.65121021212E+03  0.66498594960E+03  0.12500000000E+03 0.  0.
         25    1    1    2    0    0  0.44477758759E+02  0.22984816217E+02  0.19947043761E+02  0.13612294941E+03  0.12500000000E+03 0.  0.
</event>
<event>
 4    0  0.2156764E-002  0.2389881E+03  0.7546771E-02  0.1120469E+00
         21   -1    0    0  502  501  0.00000000000E+00  0.00000000000E+00  0.11359666480E+04  0.11359666480E+04  0.00000000000E+00 0. -1.
         21   -1    0    0  501  502 -0.00000000000E+00 -0.00000000000E+00 -0.50279033001E+02  0.50279033001E+02  0.00000000000E+00 0. -1.
         25    1    1    2    0    0  0.18607829798E+03  0.39347048281E+02  0.36187614770E+03  0.42749581222E+03  0.12500000000E+03 0.  0.
         25    1    1    2    0    0 -0.18607829798E+03 -0.39347048281E+02  0.72381146734E+03  0.75874986882E+03  0.12500000000E+03 0.  0.
</event>
<event>
 4    0  0.2156764E-002  0.1965172E+03  0.7546771E-02  0.1152711E+00
         21   -1    0    0  502  501  0.00000000000E+00  0.00000000000E+00  0.77134742456E+02  0.77134742456E+02  0.00000000000E+00 0.  1.
         21   -1    0    0  501  502 -0.00000000000E+00 -0.00000000000E+00 -0.50066958107E+03  0.50066958107E+03  0.00000000000E+00 0.  1.
         25    1    1    2    0    0  0.96178587342E+02 -0.29413079265E+02 -0.44933642619E+02  0.16661177069E+03  0.12500000000E+03 0.  0.
         25    1    1    2    0    0 -0.96178587342E+02  0.29413079265E+02 -0.37860119600E+03  0.41119255283E+03  0.12500000000E+03 0.  0.
</event>
<event>
 4    0  0.2156764E-002  0.2072702E+03  0.7546771E-02  0.1143746E+00
         21   -1    0    0  502  501  0.00000000000E+00  0.00000000000E+00  0.74716723034E+03  0.74716723034E+03  0.00000000000E+00 0.  1.
         21   -1    0    0  501  502 -0.00000000000E+00 -0.00000000000E+00 -0.57498402304E+02  0.57498402304E+02  0.00000000000E+00 0.  1.
         25    1    1    2    0    0  0.10692130071E+01  0.56781377393E+02  0.43427538006E+02  0.14400076074E+03  0.12500000000E+03 0.  0.
         25    1    1    2    0    0 -0.10692130071E+01 -0.56781377393E+02  0.64624129003E+03  0.66066487191E+03  0.12500000000E+03 0.  0.
</event>
<event>
 4    0  0.2156764E-002  0.2345254E+03  0.7546771E-02  0.1123495E+00
         21   -1    0    0  502  501  0.00000000000E+00  0.00000000000E+00  0.46880795312E+03  0.46880795312E+03  0.00000000000E+00 0. -1.
         21   -1    0    0  501  502 -0.00000000000E+00 -0.00000000000E+00 -0.11732341788E+03  0.11732341788E+03  0.00000000000E+00 0. -1.
         25    1    1    2    0    0  0.69955698460E+02 -0.16605208269E+03  0.71866089582E+02  0.23077441094E+03  0.12500000000E+03 0.  0.
         25    1    1    2    0    0 -0.69955698460E+02  0.16605208269E+03  0.27961844565E+03  0.35535696006E+03  0.12500000000E+03 0.  0.
</event>
<event>
 4    0  0.2156764E-002  0.1615324E+03  0.7546771E-02  0.1186977E+00
         21   -1    0    0  502  501  0.00000000000E+00  0.00000000000E+00  0.10612932685E+04  0.10612932685E+04  0.00000000000E+00 0. -1.
         21   -1    0    0  501  502 -0.00000000000E+00 -0.00000000000E+00 -0.24585781267E+02  0.24585781267E+02  0.00000000000E+00 0. -1.
         25    1    1    2    0    0 -0.61250987289E+01  0.68465800970E+02  0.26364280478E+03  0.29976259147E+03  0.12500000000E+03 0.  0.
         25    1    1    2    0    0  0.61250987289E+01 -0.68465800970E+02  0.77306468243E+03  0.78611645827E+03  0.12500000000E+03 0.  0.
</event>
<event>
 4    0  0.2156764E-002  0.2092158E+03  0.7546771E-02  0.1142189E+00
         21   -1    0    0  502  501  0.00000000000E+00  0.00000000000E+00  0.10814217085E+03  0.10814217085E+03  0.00000000000E+00 0. -1.
         21   -1    0    0  501  502 -0.00000000000E+00 -0.00000000000E+00 -0.40475648129E+03  0.40475648129E+03  0.00000000000E+00 0. -1.
         25    1    1    2    0    0  0.10486595936E+03  0.13094890657E+03 -0.14993284830E+03  0.25738948029E+03  0.12500000000E+03 0.  0.
         25    1    1    2    0    0 -0.10486595936E+03 -0.13094890657E+03 -0.14668146215E+03  0.25550917185E+03  0.12500000000E+03 0.  0.
</event>
<event>
 4    0  0.2156764E-002  0.2510413E+03  0.7546771E-02  0.1112649E+00
         21   -1    0    0  502  501  0.00000000000E+00  0.00000000000E+00  0.37997688583E+03  0.37997688583E+03  0.00000000000E+00 0.  1.
         21   -1    0    0  501  502 -0.00000000000E+00 -0.00000000000E+00 -0.16585676611E+03  0.16585676611E+03  0.00000000000E+00 0.  1.
         25    1    1    2    0    0 -0.18609570866E+03 -0.48147997450E+02 -0.40564882509E+01  0.22932792576E+03  0.12500000000E+03 0.  0.
         25    1    1    2    0    0  0.18609570866E+03  0.48147997450E+02  0.21817660797E+03  0.31650572618E+03  0.12500000000E+03 0.  0.
</event>
<event>
 4    0  0.2156764E-002  0.1991149E+03  0.7546771E-02  0.1150488E+00
         21   -1    0    0  502  501  0.00000000000E+00  0.00000000000E+00  0.94692182292E+02  0.94692182292E+02  0.00000000000E+00 0. -1.
         21   -1    0    0  501  502 -0.00000000000E+00 -0.00000000000E+00 -0.41869092533E+03  0.41869092533E+03  0.00000000000E+00 0. -1.
         25    1    1    2    0    0  0.22107128228E+02 -0.12398662017E+03 -0.27845544521E+03  0.33018758618E+03  0.12500000000E+03 0.  0.
         25    1    1    2    0    0 -0.22107128228E+02  0.12398662017E+03 -0.45543297825E+02  0.18319552144E+03  0.12500000000E+03 0.  0.
</event>
<event>
 4    0  0.2156764E-002  0.2172008E+03  0.7546771E-02  0.1135987E+00
         21   -1    0    0  502  501  0.00000000000E+00  0.00000000000E+00  0.29584169854E+03  0.29584169854E+03  0.00000000000E+00 0. -1.
         21   -1    0    0  501  502 -0.00000000000E+00 -0.00000000000E+00 -0.15946433250E+03  0.15946433250E+03  0.00000000000E+00 0. -1.
         25    1    1    2    0    0  0.85219583557E+02 -0.15580797137E+03  0.71923532715E+02  0.22877171137E+03  0.12500000000E+03 0.  0.
         25    1    1    2    0    0 -0.85219583557E+02  0.15580797137E+03  0.64453833324E+02  0.22653431968E+03  0.12500000000E+03 0.  0.
</event>
<event>
 4    0  0.2156764E-002  0.1797023E+03  0.7546771E-02  0.1168091E+00
         21   -1    0    0  502  501  0.00000000000E+00  0.00000000000E+00  0.12463154986E+03  0.12463154986E+03  0.00000000000E+00 0.  1.
         21   -1    0    0  501  502 -0.00000000000E+00 -0.00000000000E+00 -0.25910720564E+03  0.25910720564E+03  0.00000000000E+00 0.  1.
         25    1    1    2    0    0 -0.31847417027E+02 -0.12490951261E+03 -0.59591355774E+02  0.18918978301E+03  0.12500000000E+03 0.  0.
         25    1    1    2    0    0  0.31847417027E+02  0.12490951261E+03 -0.74884300004E+02  0.19454897249E+03  0.12500000000E+03 0.  0.
</event>
<event>
 4    0  0.2156764E-002  0.2358491E+03  0.7546771E-02  0.1122589E+00
         21   -1    0    0  502  501  0.00000000000E+00  0.00000000000E+00  0.10907658339E+04  0.10907658339E+04  0.00000000000E+00 0.  1.
         21   -1    0    0  501  502 -0.00000000000E+00 -0.00000000000E+00 -0.50996085400E+02  0.50996085400E+02  0.00000000000E+00 0.  1.
         25    1    1    2    0    0  0.37981928774E+00 -0.14586712317E+03  0.85108648008E+03  0.87249673836E+03  0.12500000000E+03 0.  0.
         25    1    1    2    0    0 -0.37981928774E+00  0.14586712317E+03  0.18868326845E+03  0.26926518096E+03  0.12500000000E+03 0.  0.
</event>
<event>
 4    0  0.2156764E-002  0.2788673E+03  0.7546771E-02  0.1096309E+00
         21   -1    0    0  502  501  0.00000000000E+00  0.00000000000E+00  0.70564720221E+03  0.70564720221E+03  0.00000000000E+00 0. -1.
         21   -1    0    0  501  502 -0.00000000000E+00 -0.00000000000E+00 -0.11020657966E+03  0.11020657966E+03  0.00000000000E+00 0. -1.
         25    1    1    2    0    0  0.19052792581E+03  0.12572549330E+03  0.44424998564E+03  0.51486973101E+03  0.12500000000E+03 0.  0.
         25    1    1    2    0    0 -0.19052792581E+03 -0.12572549330E+03  0.15119063692E+03  0.30098405085E+03  0.12500000000E+03 0.  0.
</event>
<event>
 4    0  0.2156764E-002  0.1882475E+03  0.7546771E-02  0.1160052E+00
         21   -1    0    0  502  501  0.00000000000E+00  0.00000000000E+00  0.17384290801E+03  0.17384290801E+03  0.00000000000E+00 0. -1.
         21   -1    0    0  501  502 -0.00000000000E+00 -0.00000000000E+00 -0.20384566499E+03  0.20384566499E+03  0.00000000000E+00 0. -1.
         25    1    1    2    0    0 -0.12160059309E+03 -0.46578551063E+02  0.38608261336E+02  0.18458565357E+03  0.12500000000E+03 0.  0.
         25    1    1    2    0    0  0.12160059309E+03  0.46578551063E+02 -0.68611018317E+02  0.19310291943E+03  0.12500000000E+03 0.  0.
</event>
<event>
 4    0  0.2156764E-002  0.1925640E+03  0.7546771E-02  0.1156169E+00
         21   -1    0    0  502  501  0.00000000000E+00  0.00000000000E+00  0.74962273170E+02  0.74962273170E+02  0.00000000000E+00 0.  1.
         21   -1    0    0  501  502 -0.00000000000E+00 -0.00000000000E+00 -0.49466073170E+03  0.49466073170E+03  0.00000000000E+00 0.  1.
         25    1    1    2    0    0  0.21043912375E+02  0.21686556378E+02 -0.42183739501E+03  0.44100446801E+03  0.12500000000E+03 0.  0.
         25    1    1    2    0    0 -0.21043912375E+02 -0.21686556378E+02  0.21389364779E+01  0.12861853686E+03  0.12500000000E+03 0.  0.
</event>
<event>
 4    0  0.2156764E-002  0.1350533E+03  0.7546771E-02  0.1220144E+00
         21   -1    0    0  502  501  0.00000000000E+00  0.00000000000E+00  0.36334766531E+02  0.36334766531E+02  0.00000000000E+00 0. -1.
         21   -1    0    0  501  502 -0.00000000000E+00 -0.00000000000E+00 -0.50198185293E+03  0.50198185293E+03  0.00000000000E+00 0. -1.
         25    1    1    2    0    0  0.47378173969E+02 -0.79162051088E+01 -0.19790170672E+03  0.23895071290E+03  0.12500000000E+03 0.  0.
         25    1    1    2    0    0 -0.47378173969E+02  0.79162051088E+01 -0.26774537968E+03  0.29936590656E+03  0.12500000000E+03 0.  0.
</event>
<event>
 4    0  0.2156764E-002  0.1916926E+03  0.7546771E-02  0.1156944E+00
         21   -1    0    0  502  501  0.00000000000E+00  0.00000000000E+00  0.11048214675E+03  0.11048214675E+03  0.00000000000E+00 0.  1.
         21   -1    0    0  501  502 -0.00000000000E+00 -0.00000000000E+00 -0.33259710865E+03  0.33259710865E+03  0.00000000000E+00 0.  1.
         25    1    1    2    0    0 -0.20968789788E+02  0.11614167074E+03 -0.13044182372E+02  0.17240570907E+03  0.12500000000E+03 0.  0.
         25    1    1    2    0    0  0.20968789788E+02 -0.11614167074E+03 -0.20907077953E+03  0.27067354633E+03  0.12500000000E+03 0.  0.
</event>
<event>
 4    0  0.2156764E-002  0.2239330E+03  0.7546771E-02  0.1130984E+00
         21   -1    0    0  502  501  0.00000000000E+00  0.00000000000E+00  0.34902275298E+02  0.34902275298E+02  0.00000000000E+00 0. -1.
         21   -1    0    0  501  502 -0.00000000000E+00 -0.00000000000E+00 -0.14367541880E+04  0.14367541880E+04  0.00000000000E+00 0. -1.
         25    1    1    2    0    0  0.15493234479E+03  0.10135229131E+03 -0.64952747468E+03  0.68686771563E+03  0.12500000000E+03 0.  0.
         25    1    1    2    0    0 -0.15493234479E+03 -0.10135229131E+03 -0.75232443807E+03  0.78478874771E+03  0.12500000000E+03 0.  0.
</event>
<event>
 4    0  0.2156764E-002  0.2278901E+03  0.7546771E-02  0.1128134E+00
         21   -1    0    0  502  501  0.00000000000E+00  0.00000000000E+00  0.14319848060E+03  0.14319848060E+03  0.00000000000E+00 0. -1.
         21   -1    0    0  501  502 -0.00000000000E+00 -0.00000000000E+00 -0.36267086808E+03  0.36267086808E+03  0.00000000000E+00 0. -1.
         25    1    1    2    0    0 -0.58159356993E+02 -0.18015132819E+03 -0.13384692092E+03  0.26339515959E+03  0.12500000000E+03 0.  0.
         25    1    1    2    0    0  0.58159356993E+02  0.18015132819E+03 -0.85625466556E+02  0.24247418909E+03  0.12500000000E+03 0.  0.
</event>
<event>
 4    0  0.2156764E-002  0.3475974E+03  0.7546771E-02  0.1063606E+00
         21   -1    0    0  502  501  0.00000000000E+00  0.00000000000E+00  0.91631785794E+02  0.91631785794E+02  0.00000000000E+00 0. -1.
         21   -1    0    0  501  502 -0.00000000000E+00 -0.00000000000E+00 -0.13185810855E+04  0.13185810855E+04  0.00000000000E+00 0. -1.
         25    1    1    2    0    0 -0.11415248954E+02  0.13307161921E+03 -0.12130391718E+04  0.12267548232E+04  0.12500000000E+03 0.  0.
         25    1    1    2    0    0  0.11415248954E+02 -0.13307161921E+03 -0.13910127813E+02  0.18345804807E+03  0.12500000000E+03 0.  0.
</event>
<event>
 4    0  0.2156764E-002  0.1810820E+03  0.7546771E-02  0.1166760E+00
         21   -1    0    0  502  501  0.00000000000E+00  0.00000000000E+00  0.89970187346E+02  0.89970187346E+02  0.00000000000E+00 0. -1.
         21   -1    0    0  501  502 -0.00000000000E+00 -0.00000000000E+00 -0.36446154654E+03  0.36446154654E+03  0.00000000000E+00 0. -1.
         25    1    1    2    0    0  0.56993174016E+02  0.76386785288E+02 -0.25005283098E+03  0.29535500864E+03  0.12500000000E+03 0.  0.
         25    1    1    2    0    0 -0.56993174016E+02 -0.76386785288E+02 -0.24438528211E+02  0.15907672524E+03  0.12500000000E+03 0.  0.
</event>
<event>
 4    0  0.2156764E-002  0.2940436E+03  0.7546771E-02  0.1088257E+00
         21   -1    0    0  502  501  0.00000000000E+00  0.00000000000E+00  0.32579479677E+02  0.32579479677E+02  0.00000000000E+00 0. -1.
         21   -1    0    0  501  502 -0.00000000000E+00 -0.00000000000E+00 -0.26538672668E+04  0.26538672668E+04  0.00000000000E+00 0. -1.
         25    1    1    2    0    0  0.23704828299E+03  0.15768704831E+02 -0.18587423854E+04  0.18780279007E+04  0.12500000000E+03 0.  0.
         25    1    1    2    0    0 -0.23704828299E+03 -0.15768704831E+02 -0.76254540174E+03  0.80841884579E+03  0.12500000000E+03 0.  0.
</event>
<event>
 4    0  0.2156764E-002  0.2431061E+03  0.7546771E-02  0.1117741E+00
         21   -1    0    0  502  501  0.00000000000E+00  0.00000000000E+00  0.28004256649E+03  0.28004256649E+03  0.00000000000E+00 0.  1.
         21   -1    0    0  501  502 -0.00000000000E+00 -0.00000000000E+00 -0.21104136629E+03  0.21104136629E+03  0.00000000000E+00 0.  1.
         25    1    1    2    0    0 -0.40833895411E+02 -0.98609784879E+02  0.21541618707E+03  0.27096204594E+03  0.12500000000E+03 0.  0.
         25    1    1    2    0    0  0.40833895411E+02  0.98609784879E+02 -0.14641498687E+03  0.22012188685E+03  0.12500000000E+03 0.  0.
</event>
<event>
 4    0  0.2156764E-002  0.2130275E+03  0.7546771E-02  0.1139191E+00
         21   -1    0    0  502  501  0.00000000000E+00  0.00000000000E+00  0.43609524562E+02  0.43609524562E+02  0.00000000000E+00 0.  1.
         21   -1    0    0  501  502 -0.00000000000E+00 -0.00000000000E+00 -0.10406150592E+04  0.10406150592E+04  0.00000000000E+00 0.  1.
         25    1    1    2    0    0 -0.18479702937E+01  0.11274775862E+03 -0.83069661256E+03  0.84758323142E+03  0.12500000000E+03 0.  0.
         25    1    1    2    0    0  0.18479702937E+01 -0.11274775862E+03 -0.16630892204E+03  0.23664135230E+03  0.12500000000E+03 0.  0.
</event>
<event>
 4    0  0.2156764E-002  0.1533933E+03  0.7546771E-02  0.1196364E+00
         21   -1    0    0  502  501  0.00000000000E+00  0.00000000000E+00  0.12438487949E+03  0.12438487949E+03  0.00000000000E+00 0.  1.
         21   -1    0    0  501  502 -0.00000000000E+00 -0.00000000000E+00 -0.18916696035E+03  0.18916696035E+03  0.00000000000E+00 0.  1.
         25    1    1    2    0    0 -0.29649780900E+02 -0.66085068020E+02 -0.85085359089E+02  0.16766294777E+03  0.12500000000E+03 0.  0.
         25    1    1    2    0    0  0.29649780900E+02  0.66085068020E+02  0.20303278236E+02  0.14588889207E+03  0.12500000000E+03 0.  0.
</event>
<event>
 4    0  0.2156764E-002  0.2613342E+03  0.7546771E-02  0.1106344E+00
         21   -1    0    0  502  501  0.00000000000E+00  0.00000000000E+00  0.54069695109E+03  0.54069695109E+03  0.00000000000E+00 0. -1.
         21   -1    0    0  501  502 -0.00000000000E+00 -0.00000000000E+00 -0.12631020529E+03  0.12631020529E+03  0.00000000000E+00 0. -1.
         25    1    1    2    0    0  0.15009561385E+03 -0.93615020077E+02  0.39378349193E+03  0.44942508140E+03  0.12500000000E+03 0.  0.
         25    1    1    2    0    0 -0.15009561385E+03  0.93615020077E+02  0.20603253866E+02  0.21758207497E+03  0.12500000000E+03 0.  0.
</event>
<event>
 4    0  0.2156764E-002  0.2387572E+03  0.7546771E-02  0.1120624E+00
         21   -1    0    0  502  501  0.00000000000E+00  0.00000000000E+00  0.61022578559E+02  0.61022578559E+02  0.00000000000E+00 0.  1.
         21   -1    0    0  501  502 -0.00000000000E+00 -0.00000000000E+00 -0.93416232111E+03  0.93416232111E+03  0.00000000000E+00 0.  1.
         25    1    1    2    0    0 -0.57753028924E+02  0.11175548752E+03 -0.10340610915E+03  0.20528644560E+03  0.12500000000E+03 0.  0.
         25    1    1    2    0    0  0.57753028924E+02 -0.11175548752E+03 -0.76973363340E+03  0.78989845406E+03  0.12500000000E+03 0.  0.
</event>
<event>
 4    0  0.2156764E-002  0.2757730E+03  0.7546771E-02  0.1098020E+00
         21   -1    0    0  502  501  0.00000000000E+00  0.00000000000E+00  0.68495630605E+03  0.68495630605E+03  0.00000000000E+00 0. -1.
         21   -1    0    0  501  502 -0.00000000000E+00 -0.00000000000E+00 -0.11103003315E+03  0.11103003315E+03  0.00000000000E+00 0. -1.
         25    1    1    2    0    0 -0.18535251783E+03  0.51195658856E+02  0.65965470217E+02  0.23864826547E+03  0.12500000000E+03 0.  0.
         25    1    1    2    0    0  0.18535251783E+03 -0.51195658856E+02  0.50796080269E+03  0.55733807372E+03  0.12500000000E+03 0.  0.
</event>
<event>
 4    0  0.2156764E-002  0.1957121E+03  0.7546771E-02  0.1153408E+00
         21   -1    0    0  502  501  0.00000000000E+00  0.00000000000E+00  0.55668493153E+03  0.55668493153E+03  0.00000000000E+00 0. -1.
         21   -1    0    0  501  502 -0.00000000000E+00 -0.00000000000E+00 -0.68805950727E+02  0.68805950727E+02  0.00000000000E+00 0. -1.
         25    1    1    2    0    0  0.13556513080E+03 -0.11856706299E+02  0.34700345850E+03  0.39313469242E+03  0.12500000000E+03 0.  0.
         25    1    1    2    0    0 -0.13556513080E+03  0.11856706299E+02  0.14087552230E+03  0.23235618983E+03  0.12500000000E+03 0.  0.
</event>
<event>
 4    0  0.2156764E-002  0.2086043E+03  0.7546771E-02  0.1142676E+00
         21   -1    0    0  502  501  0.00000000000E+00  0.00000000000E+00  0.20799769052E+03  0.20799769052E+03  0.00000000000E+00 0. -1.
         21   -1    0    0  501  502 -0.00000000000E+00 -0.00000000000E+00 -0.20921268674E+03  0.20921268674E+03  0.00000000000E+00 0. -1.
         25    1    1    2    0    0  0.53055290240E+02 -0.14755779461E+03  0.56860902845E+02  0.20843782968E+03  0.12500000000E+03 0.  0.
         25    1    1    2    0    0 -0.53055290240E+02  0.14755779461E+03 -0.58075899062E+02  0.20877254758E+03  0.12500000000E+03 0.  0.
</event>
<event>
 4    0  0.2156764E-002  0.2296321E+03  0.7546771E-02  0.1126899E+00
         21   -1    0    0  502  501  0.00000000000E+00  0.00000000000E+00  0.16627668162E+03  0.16627668162E+03  0.00000000000E+00 0. -1.
         21   -1    0    0  501  502 -0.00000000000E+00 -0.00000000000E+00 -0.31712742353E+03  0.31712742353E+03  0.00000000000E+00 0. -1.
         25    1    1    2    0    0 -0.39739733315E+02  0.15154255362E+03  0.42543814140E+02  0.20488867242E+03  0.12500000000E+03 0.  0.
         25    1    1    2    0    0  0.39739733315E+02 -0.15154255362E+03 -0.19339455604E+03  0.27851543273E+03  0.12500000000E+03 0.  0.
</event>
<event>
 4    0  0.2156764E-002  0.3038446E+03  0.7546771E-02  0.1083334E+00
         21   -1    0    0  502  501  0.00000000000E+00  0.00000000000E+00  0.12292236857E+03  0.12292236857E+03  0.00000000000E+00 0.  1.
         21   -1    0    0  501  502 -0.00000000000E+00 -0.00000000000E+00 -0.75105559298E+03  0.75105559298E+03  0.00000000000E+00 0.  1.
         25    1    1    2    0    0  0.15513367490E+03  0.21519570310E+03 -0.42840917385E+03  0.51916766844E+03  0.12500000000E+03 0.  0.
         25    1    1    2    0    0 -0.15513367490E+03 -0.21519570310E+03 -0.19972405056E+03  0.35481029311E+03  0.12500000000E+03 0.  0.
</event>
<event>
 4    0  0.2156764E-002  0.2685841E+03  0.7546771E-02  0.1102093E+00
         21   -1    0    0  502  501  0.00000000000E+00  0.00000000000E+00  0.18192882496E+03  0.18192882496E+03  0.00000000000E+00 0. -1.
         21   -1    0    0  501  502 -0.00000000000E+00 -0.00000000000E+00 -0.39651441990E+03  0.39651441990E+03  0.00000000000E+00 0. -1.
         25    1    1    2    0    0 -0.14126810683E+03 -0.95895186753E+02 -0.28541057429E+03  0.35529812941E+03  0.12500000000E+03 0.  0.
         25    1    1    2    0    0  0.14126810683E+03  0.95895186753E+02  0.70824979343E+02  0.22314511545E+03  0.12500000000E+03 0.  0.
</event>
<event>
 4    0  0.2156764E-002  0.2086312E+03  0.7546771E-02  0.1142655E+00
         21   -1    0    0  502  501  0.00000000000E+00  0.00000000000E+00  0.28792490583E+03  0.28792490583E+03  0.00000000000E+00 0. -1.
         21   -1    0    0  501  502 -0.00000000000E+00 -0.00000000000E+00 -0.15117471016E+03  0.15117471016E+03  0.00000000000E+00 0. -1.
         25    1    1    2    0    0  0.13129432550E+03 -0.61463130495E+02  0.15570015754E+03  0.24674573021E+03  0.12500000000E+03 0.  0.
         25    1    1    2    0    0 -0.13129432550E+03  0.61463130495E+02 -0.18949961873E+02  0.19235388577E+03  0.12500000000E+03 0.  0.
</event>
<event>
 4    0  0.2156764E-002  0.2000750E+03  0.7546771E-02  0.1149676E+00
         21   -1    0    0  502  501  0.00000000000E+00  0.00000000000E+00  0.64290052892E+02  0.64290052892E+02  0.00000000000E+00 0.  1.
         21   -1    0    0  501  502 -0.00000000000E+00 -0.00000000000E+00 -0.62264703404E+03  0.62264703404E+03  0.00000000000E+00 0.  1.
         25    1    1    2    0    0 -0.28882262736E+02 -0.14807014755E+03 -0.34882775870E+03  0.40008094048E+03  0.12500000000E+03 0.  0.
         25    1    1    2    0    0  0.28882262736E+02  0.14807014755E+03 -0.20952922246E+03  0.28685614646E+03  0.12500000000E+03 0.  0.
</event>
<event>
 4    0  0.2156764E-002  0.2590715E+03  0.7546771E-02  0.1107702E+00
         21   -1    0    0  502  501  0.00000000000E+00  0.00000000000E+00  0.10507609637E+03  0.10507609637E+03  0.00000000000E+00 0.  1.
         21   -1    0    0  501  502 -0.00000000000E+00 -0.00000000000E+00 -0.63875657837E+03  0.63875657837E+03  0.00000000000E+00 0.  1.
         25    1    1    2    0    0 -0.21035644159E+03 -0.78638117647E+02 -0.31356286634E+03  0.40543859857E+03  0.12500000000E+03 0.  0.
         25    1    1    2    0    0  0.21035644159E+03  0.78638117647E+02 -0.22011761566E+03  0.33839407617E+03  0.12500000000E+03 0.  0.
</event>
<event>
 4    0  0.2156764E-002  0.2601374E+03  0.7546771E-02  0.1107061E+00
         21   -1    0    0  502  501  0.00000000000E+00  0.00000000000E+00  0.23131386939E+03  0.23131386939E+03  0.00000000000E+00 0. -1.
         21   -1    0    0  501  502 -0.00000000000E+00 -0.00000000000E+00 -0.29255259980E+03  0.29255259980E+03  0.00000000000E+00 0. -1.
         25    1    1    2    0    0  0.76415426659E+02  0.18632676569E+03  0.77309650738E+02  0.24931659219E+03  0.12500000000E+03 0.  0.
         25    1    1    2    0    0 -0.76415426659E+02 -0.18632676569E+03 -0.13854838114E+03  0.27454987700E+03  0.12500000000E+03 0.  0.
</event>
<event>
 4    0  0.2156764E-002  0.2718061E+03  0.7546771E-02  0.1100250E+00
         21   -1    0    0  502  501  0.00000000000E+00  0.00000000000E+00  0.10482880768E+03  0.10482880768E+03  0.00000000000E+00 0.  1.
         21   -1    0    0  501  502 -0.00000000000E+00 -0.00000000000E+00 -0.70475436451E+03  0.70475436451E+03  0.00000000000E+00 0.  1.
         25    1    1    2    0    0 -0.19528267666E+03  0.13552193339E+03 -0.23762598449E+03  0.35859814101E+03  0.12500000000E+03 0.  0.
         25    1    1    2    0    0  0.19528267666E+03 -0.13552193339E+03 -0.36229957234E+03  0.45098503118E+03  0.12500000000E+03 0.  0.
</event>
<event>
 4    0  0.2156764E-002  0.2243346E+03  0.7546771E-02  0.1130692E+00
         21   -1    0    0  502  501  0.00000000000E+00  0.00000000000E+00  0.52292820011E+02  0.52292820011E+02  0.00000000000E+00 0. -1.
         21   -1    0    0  501  502 -0.00000000000E+00 -0.00000000000E+00 -0.96238848997E+03  0.96238848997E+03  0.00000000000E+00 0. -1.
         25    1    1    2    0    0 -0.11967436429E+03  0.12489722544E+02 -0.77665585808E+03  0.79579976660E+03  0.12500000000E+03 0.  0.
         25    1    1    2    0    0  0.11967436429E+03 -0.12489722544E+02 -0.13343981188E+03  0.21888154338E+03  0.12500000000E+03 0.  0.
</event>
<event>
 4    0  0.2156764E-002  0.2413055E+03  0.7546771E-02  0.1118926E+00
         21   -1    0    0  502  501  0.00000000000E+00  0.00000000000E+00  0.45440170681E+02  0.45440170681E+02  0.00000000000E+00 0.  1.
         21   -1    0    0  501  502 -0.00000000000E+00 -0.00000000000E+00 -0.12814288432E+04  0.12814288432E+04  0.00000000000E+00 0.  1.
         25    1    1    2    0    0 -0.16527319099E+03 -0.28121532252E+02 -0.28695900235E+03  0.35507255212E+03  0.12500000000E+03 0.  0.
         25    1    1    2    0    0  0.16527319099E+03  0.28121532252E+02 -0.94902967016E+03  0.97179646176E+03  0.12500000000E+03 0.  0.
</event>
<event>
 4    0  0.2156764E-002  0.4446262E+03  0.7546771E-02  0.1029337E+00
         21   -1    0    0  502  501  0.00000000000E+00  0.00000000000E+00  0.41514586730E+03  0.41514586730E+03  0.00000000000E+00 0. -1.
         21   -1    0    0  501  502 -0.00000000000E+00 -0.00000000000E+00 -0.47620002773E+03  0.47620002773E+03  0.00000000000E+00 0. -1.
         25    1    1    2    0    0 -0.79005390542E+02 -0.41846229604E+03 -0.37259853896E+01  0.44383716373E+03  0.12500000000E+03 0.  0.
         25    1    1    2    0    0  0.79005390542E+02  0.41846229604E+03 -0.57328175035E+02  0.44750873130E+03  0.12500000000E+03 0.  0.
</event>
<event>
 4    0  0.2156764E-002  0.1942606E+03  0.7546771E-02  0.1154674E+00
         21   -1    0    0  502  501  0.00000000000E+00  0.00000000000E+00  0.28575044291E+03  0.28575044291E+03  0.00000000000E+00 0.  1.
         21   -1    0    0  501  502 -0.00000000000E+00 -0.00000000000E+00 -0.13206343190E+03  0.13206343190E+03  0.00000000000E+00 0.  1.
         25    1    1    2    0    0 -0.48986350231E+02 -0.11674683830E+03  0.16071535549E+03  0.23975802854E+03  0.12500000000E+03 0.  0.
         25    1    1    2    0    0  0.48986350231E+02  0.11674683830E+03 -0.70283444788E+01  0.17805584626E+03  0.12500000000E+03 0.  0.
</event>
<event>
 4    0  0.2156764E-002  0.1669993E+03  0.7546771E-02  0.1181014E+00
         21   -1    0    0  502  501  0.00000000000E+00  0.00000000000E+00  0.13069944258E+03  0.13069944258E+03  0.00000000000E+00 0. -1.
         21   -1    0    0  501  502 -0.00000000000E+00 -0.00000000000E+00 -0.21338092460E+03  0.21338092460E+03  0.00000000000E+00 0. -1.
         25    1    1    2    0    0  0.43787074797E+01 -0.10876775579E+03 -0.20375270294E+02  0.16700224375E+03  0.12500000000E+03 0.  0.
         25    1    1    2    0    0 -0.43787074797E+01  0.10876775579E+03 -0.62306211725E+02  0.17707812343E+03  0.12500000000E+03 0.  0.
</event>
<event>
 4    0  0.2156764E-002  0.2095550E+03  0.7546771E-02  0.1141919E+00
         21   -1    0    0  502  501  0.00000000000E+00  0.00000000000E+00  0.11303489424E+03  0.11303489424E+03  0.00000000000E+00 0.  1.
         21   -1    0    0  501  502 -0.00000000000E+00 -0.00000000000E+00 -0.38849312060E+03  0.38849312060E+03  0.00000000000E+00 0.  1.
         25    1    1    2    0    0  0.14675921561E+03  0.81844784234E+02 -0.14631191852E+03  0.25547800996E+03  0.12500000000E+03 0.  0.
         25    1    1    2    0    0 -0.14675921561E+03 -0.81844784234E+02 -0.12914630784E+03  0.24605000488E+03  0.12500000000E+03 0.  0.
</event>
<event>
 4    0  0.2156764E-002  0.2162888E+03  0.7546771E-02  0.1136681E+00
         21   -1    0    0  502  501  0.00000000000E+00  0.00000000000E+00  0.29473751667E+03  0.29473751667E+03  0.00000000000E+00 0.  1.
         21   -1    0    0  501  502 -0.00000000000E+00 -0.00000000000E+00 -0.15872029748E+03  0.15872029748E+03  0.00000000000E+00 0.  1.
         25    1    1    2    0    0  0.59096514107E+02  0.96431450399E+02 -0.74047974031E+02  0.18411823664E+03  0.12500000000E+03 0.  0.
         25    1    1    2    0    0 -0.59096514107E+02 -0.96431450399E+02  0.21006519322E+03  0.26933957750E+03  0.12500000000E+03 0.  0.
</event>
<event>
 4    0  0.2156764E-002  0.2242147E+03  0.7546771E-02  0.1130779E+00
         21   -1    0    0  502  501  0.00000000000E+00  0.00000000000E+00  0.12439471211E+03  0.12439471211E+03  0.00000000000E+00 0.  1.
         21   -1    0    0  501  502 -0.00000000000E+00 -0.00000000000E+00 -0.40413493011E+03  0.40413493011E+03  0.00000000000E+00 0.  1.
         25    1    1    2    0    0 -0.10697562526E+02 -0.71455291161E+02 -0.34205459981E+03  0.37127704714E+03  0.12500000000E+03 0.  0.
         25    1    1    2    0    0  0.10697562526E+02  0.71455291161E+02  0.62314381815E+02  0.15725259508E+03  0.12500000000E+03 0.  0.
</event>
<event>
 4    0  0.2156764E-002  0.2215841E+03  0.7546771E-02  0.1132708E+00
         21   -1    0    0  502  501  0.00000000000E+00  0.00000000000E+00  0.43920821539E+03  0.43920821539E+03  0.00000000000E+00 0. -1.
         21   -1    0    0  501  502 -0.00000000000E+00 -0.00000000000E+00 -0.11179098835E+03  0.11179098835E+03  0.00000000000E+00 0. -1.
         25    1    1    2    0    0  0.14390703597E+03  0.67797160130E+02  0.27608169605E+03  0.34227444079E+03  0.12500000000E+03 0.  0.
         25    1    1    2    0    0 -0.14390703597E+03 -0.67797160130E+02  0.51335530992E+02  0.20872476295E+03  0.12500000000E+03 0.  0.
</event>
<event>
 4    0  0.2156764E-002  0.2446668E+03  0.7546771E-02  0.1116722E+00
         21   -1    0    0  502  501  0.00000000000E+00  0.00000000000E+00  0.76331440251E+02  0.76331440251E+02  0.00000000000E+00 0. -1.
         21   -1    0    0  501  502 -0.00000000000E+00 -0.00000000000E+00 -0.78423594562E+03  0.78423594562E+03  0.00000000000E+00 0. -1.
         25    1    1    2    0    0  0.13657654737E+03 -0.15325058969E+03 -0.43450468661E+03  0.49654629111E+03  0.12500000000E+03 0.  0.
         25    1    1    2    0    0 -0.13657654737E+03  0.15325058969E+03 -0.27339981875E+03  0.36402109475E+03  0.12500000000E+03 0.  0.
</event>
<event>
 4    0  0.2156764E-002  0.2083932E+03  0.7546771E-02  0.1142845E+00
         21   -1    0    0  502  501  0.00000000000E+00  0.00000000000E+00  0.14381904805E+03  0.14381904805E+03  0.00000000000E+00 0.  1.
         21   -1    0    0  501  502 -0.00000000000E+00 -0.00000000000E+00 -0.30196083444E+03  0.30196083444E+03  0.00000000000E+00 0.  1.
         25    1    1    2    0    0  0.63199641581E+02 -0.10312744790E+03 -0.20182993740E+03  0.26643909030E+03  0.12500000000E+03 0.  0.
         25    1    1    2    0    0 -0.63199641581E+02  0.10312744790E+03  0.43688151010E+02  0.17934079220E+03  0.12500000000E+03 0.  0.
</event>
<event>
 4    0  0.2156764E-002  0.2935685E+03  0.7546771E-02  0.1088501E+00
         21   -1    0    0  502  501  0.00000000000E+00  0.00000000000E+00  0.27233392776E+03  0.27233392776E+03  0.00000000000E+00 0.  1.
         21   -1    0    0  501  502 -0.00000000000E+00 -0.00000000000E+00 -0.31645886818E+03  0.31645886818E+03  0.00000000000E+00 0.  1.
         25    1    1    2    0    0  0.13121331328E+02  0.26256101715E+03 -0.60209582895E+02  0.29725519496E+03  0.12500000000E+03 0.  0.
         25    1    1    2    0    0 -0.13121331328E+02 -0.26256101715E+03  0.16084642479E+02  0.29153760098E+03  0.12500000000E+03 0.  0.
</event>
<event>
 4    0  0.2156764E-002  0.1794797E+03  0.7546771E-02  0.1168308E+00
         21   -1    0    0  502  501  0.00000000000E+00  0.00000000000E+00  0.12102783371E+03  0.12102783371E+03  0.00000000000E+00 0.  1.
         21   -1    0    0  501  502 -0.00000000000E+00 -0.00000000000E+00 -0.26616163434E+03  0.26616163434E+03  0.00000000000E+00 0.  1.
         25    1    1    2    0    0  0.10841926214E+03 -0.16954006254E+02 -0.14529176615E+03  0.22085486647E+03  0.12500000000E+03 0.  0.
         25    1    1    2    0    0 -0.10841926214E+03  0.16954006254E+02  0.15796551661E+00  0.16633460158E+03  0.12500000000E+03 0.  0.
</event>
<event>
 4    0  0.2156764E-002  0.2158134E+03  0.7546771E-02  0.1137043E+00
         21   -1    0    0  502  501  0.00000000000E+00  0.00000000000E+00  0.37116214973E+03  0.37116214973E+03  0.00000000000E+00 0.  1.
         21   -1    0    0  501  502 -0.00000000000E+00 -0.00000000000E+00 -0.12548537394E+03  0.12548537394E+03  0.00000000000E+00 0.  1.
         25    1    1    2    0    0  0.73432233938E+02 -0.15985983991E+03  0.12481794444E+03  0.24930298965E+03  0.12500000000E+03 0.  0.
         25    1    1    2    0    0 -0.73432233938E+02  0.15985983991E+03  0.12085883135E+03  0.24734453402E+03  0.12500000000E+03 0.  0.
</event>
<event>
 4    0  0.2156764E-002  0.3840695E+03  0.7546771E-02  0.1049440E+00
         21   -1    0    0  502  501  0.00000000000E+00  0.00000000000E+00  0.30167053963E+03  0.30167053963E+03  0.00000000000E+00 0. -1.
         21   -1    0    0  501  502 -0.00000000000E+00 -0.00000000000E+00 -0.48897505277E+03  0.48897505277E+03  0.00000000000E+00 0. -1.
         25    1    1    2    0    0 -0.89700319986E+02 -0.19604829655E+03 -0.39445330664E+03  0.46658278269E+03  0.12500000000E+03 0.  0.
         25    1    1    2    0    0  0.89700319986E+02  0.19604829655E+03  0.20714879350E+03  0.32406280970E+03  0.12500000000E+03 0.  0.
</event>
<event>
 4    0  0.2156764E-002  0.1825108E+03  0.7546771E-02  0.1165395E+00
         21   -1    0    0  502  501  0.00000000000E+00  0.00000000000E+00  0.46226878718E+02  0.46226878718E+02  0.00000000000E+00 0.  1.
         21   -1    0    0  501  502 -0.00000000000E+00 -0.00000000000E+00 -0.72058075416E+03  0.72058075416E+03  0.00000000000E+00 0.  1.
         25    1    1    2    0    0 -0.37241365642E+02  0.22119435538E+01 -0.69029590282E+02  0.14758691115E+03  0.12500000000E+03 0.  0.
         25    1    1    2    0    0  0.37241365642E+02 -0.22119435538E+01 -0.60532428516E+03  0.61922072173E+03  0.12500000000E+03 0.  0.
</event>
<event>
 4    0  0.2156764E-002  0.3738408E+03  0.7546771E-02  0.1053234E+00
         21   -1    0    0  502  501  0.00000000000E+00  0.00000000000E+00  0.14771975292E+04  0.14771975292E+04  0.00000000000E+00 0. -1.
         21   -1    0    0  501  502 -0.00000000000E+00 -0.00000000000E+00 -0.94609517879E+02  0.94609517879E+02  0.00000000000E+00 0. -1.
         25    1    1    2    0    0  0.12934133631E+03  0.32661582568E+03  0.74789339616E+03  0.83568930284E+03  0.12500000000E+03 0.  0.
         25    1    1    2    0    0 -0.12934133631E+03 -0.32661582568E+03  0.63469461512E+03  0.73611774420E+03  0.12500000000E+03 0.  0.
</event>
<event>
 4    0  0.2156764E-002  0.2085725E+03  0.7546771E-02  0.1142701E+00
         21   -1    0    0  502  501  0.00000000000E+00  0.00000000000E+00  0.62586387804E+03  0.62586387804E+03  0.00000000000E+00 0.  1.
         21   -1    0    0  501  502 -0.00000000000E+00 -0.00000000000E+00 -0.69507924545E+02  0.69507924545E+02  0.00000000000E+00 0.  1.
         25    1    1    2    0    0 -0.15408775982E+03 -0.38608544045E+01  0.38517092238E+03  0.43328926062E+03  0.12500000000E+03 0.  0.
         25    1    1    2    0    0  0.15408775982E+03  0.38608544045E+01  0.17118503112E+03  0.26208254197E+03  0.12500000000E+03 0.  0.
</event>
<event>
 4    0  0.2156764E-002  0.2005308E+03  0.7546771E-02  0.1149292E+00
         21   -1    0    0  502  501  0.00000000000E+00  0.00000000000E+00  0.86442233472E+02  0.86442233472E+02  0.00000000000E+00 0.  1.
         21   -1    0    0  501  502 -0.00000000000E+00 -0.00000000000E+00 -0.46519606230E+03  0.46519606230E+03  0.00000000000E+00 0.  1.
         25    1    1    2    0    0 -0.11083490868E+03 -0.83229986593E+02 -0.88527776854E+02  0.20657631743E+03  0.12500000000E+03 0.  0.
         25    1    1    2    0    0  0.11083490868E+03  0.83229986593E+02 -0.29022605197E+03  0.34506197834E+03  0.12500000000E+03 0.  0.
</event>
<event>
 4    0  0.2156764E-002  0.2089899E+03  0.7546771E-02  0.1142368E+00
         21   -1    0    0  502  501  0.00000000000E+00  0.00000000000E+00  0.49904841526E+02  0.49904841526E+02  0.00000000000E+00 0. -1.
         21   -1    0    0  501  502 -0.00000000000E+00 -0.00000000000E+00 -0.87520134713E+03  0.87520134713E+03  0.00000000000E+00 0. -1.
         25    1    1    2    0    0  0.23338997485E+02 -0.65845822410E+02 -0.74955711149E+03  0.76311286486E+03  0.12500000000E+03 0.  0.
         25    1    1    2    0    0 -0.23338997485E+02  0.65845822410E+02 -0.75739394111E+02  0.16199332379E+03  0.12500000000E+03 0.  0.
</event>
<event>
 4    0  0.2156764E-002  0.1894025E+03  0.7546771E-02  0.1159001E+00
         21   -1    0    0  502  501  0.00000000000E+00  0.00000000000E+00  0.10516805628E+03  0.10516805628E+03  0.00000000000E+00 0.  1.
         21   -1    0    0  501  502 -0.00000000000E+00 -0.00000000000E+00 -0.34110476401E+03  0.34110476401E+03  0.00000000000E+00 0.  1.
         25    1    1    2    0    0  0.45202804807E+02 -0.12780889209E+03 -0.67024010184E+02  0.19620301833E+03  0.12500000000E+03 0.  0.
         25    1    1    2    0    0 -0.45202804807E+02  0.12780889209E+03 -0.16891269755E+03  0.25006980196E+03  0.12500000000E+03 0.  0.
</event>
<event>
 4    0  0.2156764E-002  0.2241019E+03  0.7546771E-02  0.1130861E+00
         21   -1    0    0  502  501  0.00000000000E+00  0.00000000000E+00  0.73388123781E+02  0.73388123781E+02  0.00000000000E+00 0. -1.
         21   -1    0    0  501  502 -0.00000000000E+00 -0.00000000000E+00 -0.68432982027E+03  0.68432982027E+03  0.00000000000E+00 0. -1.
         25    1    1    2    0    0  0.17935521098E+03  0.94947280028E+01 -0.22372296920E+03  0.31294633488E+03  0.12500000000E+03 0.  0.
         25    1    1    2    0    0 -0.17935521098E+03 -0.94947280028E+01 -0.38721872729E+03  0.44477160918E+03  0.12500000000E+03 0.  0.
</event>
<event>
 4    0  0.2156764E-002  0.3048598E+03  0.7546771E-02  0.1082836E+00
         21   -1    0    0  502  501  0.00000000000E+00  0.00000000000E+00  0.16598867200E+03  0.16598867200E+03  0.00000000000E+00 0.  1.
         21   -1    0    0  501  502 -0.00000000000E+00 -0.00000000000E+00 -0.55991465337E+03  0.55991465337E+03  0.00000000000E+00 0.  1.
         25    1    1    2    0    0 -0.22634376673E+01  0.54136492559E+02  0.12772981646E+03  0.18675060640E+03  0.12500000000E+03 0.  0.
         25    1    1    2    0    0  0.22634376673E+01 -0.54136492559E+02 -0.52165579783E+03  0.53915271898E+03  0.12500000000E+03 0.  0.
</event>
<event>
 4    0  0.2156764E-002  0.1724229E+03  0.7546771E-02  0.1175345E+00
         21   -1    0    0  502  501  0.00000000000E+00  0.00000000000E+00  0.10077342333E+04  0.10077342333E+04  0.00000000000E+00 0.  1.
         21   -1    0    0  501  502 -0.00000000000E+00 -0.00000000000E+00 -0.29501468135E+02  0.29501468135E+02  0.00000000000E+00 0.  1.
         25    1    1    2    0    0  0.44993864633E+01 -0.43694618540E+02  0.15722937587E+03  0.20561016708E+03  0.12500000000E+03 0.  0.
         25    1    1    2    0    0 -0.44993864633E+01  0.43694618540E+02  0.82100338926E+03  0.83162553432E+03  0.12500000000E+03 0.  0.
</event>
<event>
 4    0  0.2156764E-002  0.2222342E+03  0.7546771E-02  0.1132228E+00
         21   -1    0    0  502  501  0.00000000000E+00  0.00000000000E+00  0.40770945999E+02  0.40770945999E+02  0.00000000000E+00 0. -1.
         21   -1    0    0  501  502 -0.00000000000E+00 -0.00000000000E+00 -0.12113539180E+04  0.12113539180E+04  0.00000000000E+00 0. -1.
         25    1    1    2    0    0  0.27443094378E+02  0.42812223794E+02 -0.10827125046E+04  0.10910899952E+04  0.12500000000E+03 0.  0.
         25    1    1    2    0    0 -0.27443094378E+02 -0.42812223794E+02 -0.87870467378E+02  0.16103486881E+03  0.12500000000E+03 0.  0.
</event>
<event>
 4    0  0.2156764E-002  0.1712789E+03  0.7546771E-02  0.1176521E+00
         21   -1    0    0  502  501  0.00000000000E+00  0.00000000000E+00  0.22715595704E+03  0.22715595704E+03  0.00000000000E+00 0.  1.
         21   -1    0    0  501  502 -0.00000000000E+00 -0.00000000000E+00 -0.12914671535E+03  0.12914671535E+03  0.00000000000E+00 0.  1.
         25    1    1    2    0    0  0.47362375331E+02  0.26073437276E+02  0.15703960184E+03  0.20786884152E+03  0.12500000000E+03 0.  0.
         25    1    1    2    0    0 -0.47362375331E+02 -0.26073437276E+02 -0.59030360148E+02  0.14843383087E+03  0.12500000000E+03 0.  0.
</event>
<event>
 4    0  0.2156764E-002  0.2588592E+03  0.7546771E-02  0.1107831E+00
         21   -1    0    0  502  501  0.00000000000E+00  0.00000000000E+00  0.14216817704E+04  0.14216817704E+04  0.00000000000E+00 0.  1.
         21   -1    0    0  501  502 -0.00000000000E+00 -0.00000000000E+00 -0.47132971830E+02  0.47132971830E+02  0.00000000000E+00 0.  1.
         25    1    1    2    0    0 -0.15758358273E+03  0.17832581401E+01  0.11495316913E+04  0.11669978041E+04  0.12500000000E+03 0.  0.
         25    1    1    2    0    0  0.15758358273E+03 -0.17832581401E+01  0.22501710726E+03  0.30181693809E+03  0.12500000000E+03 0.  0.
</event>
<event>
 4    0  0.2156764E-002  0.2125275E+03  0.7546771E-02  0.1139580E+00
         21   -1    0    0  502  501  0.00000000000E+00  0.00000000000E+00  0.10351799865E+03  0.10351799865E+03  0.00000000000E+00 0.  1.
         21   -1    0    0  501  502 -0.00000000000E+00 -0.00000000000E+00 -0.43632939880E+03  0.43632939880E+03  0.00000000000E+00 0.  1.
         25    1    1    2    0    0 -0.92856430664E+02 -0.23564460086E+02  0.14841679948E+02  0.15818620660E+03  0.12500000000E+03 0.  0.
         25    1    1    2    0    0  0.92856430664E+02  0.23564460086E+02 -0.34765308010E+03  0.38166119085E+03  0.12500000000E+03 0.  0.
</event>
<event>
 4    0  0.2156764E-002  0.1951505E+03  0.7546771E-02  0.1153896E+00
         21   -1    0    0  502  501  0.00000000000E+00  0.00000000000E+00  0.84073635838E+02  0.84073635838E+02  0.00000000000E+00 0. -1.
         21   -1    0    0  501  502 -0.00000000000E+00 -0.00000000000E+00 -0.45298042679E+03  0.45298042679E+03  0.00000000000E+00 0. -1.
         25    1    1    2    0    0  0.11034212676E+03 -0.48469317985E+02 -0.30701823226E+03  0.35271781166E+03  0.12500000000E+03 0.  0.
         25    1    1    2    0    0 -0.11034212676E+03  0.48469317985E+02 -0.61888558698E+02  0.18433625097E+03  0.12500000000E+03 0.  0.
</event>
<event>
 4    0  0.2156764E-002  0.2553975E+03  0.7546771E-02  0.1109940E+00
         21   -1    0    0  502  501  0.00000000000E+00  0.00000000000E+00  0.25259974180E+03  0.25259974180E+03  0.00000000000E+00 0.  1.
         21   -1    0    0  501  502 -0.00000000000E+00 -0.00000000000E+00 -0.25822630224E+03  0.25822630224E+03  0.00000000000E+00 0.  1.
         25    1    1    2    0    0 -0.36786214499E+01 -0.26008148062E+02 -0.22398940052E+03  0.25784919540E+03  0.12500000000E+03 0.  0.
         25    1    1    2    0    0  0.36786214499E+01  0.26008148062E+02  0.21836284008E+03  0.25297684864E+03  0.12500000000E+03 0.  0.
</event>
<event>
 4    0  0.2156764E-002  0.3381574E+03  0.7546771E-02  0.1067583E+00
         21   -1    0    0  502  501  0.00000000000E+00  0.00000000000E+00  0.97662316632E+02  0.97662316632E+02  0.00000000000E+00 0.  1.
         21   -1    0    0  501  502 -0.00000000000E+00 -0.00000000000E+00 -0.11708756441E+04  0.11708756441E+04  0.00000000000E+00 0.  1.
         25    1    1    2    0    0  0.27886280499E+03 -0.42013533460E+02 -0.79647776551E+03  0.85412612180E+03  0.12500000000E+03 0.  0.
         25    1    1    2    0    0 -0.27886280499E+03  0.42013533460E+02 -0.27673556198E+03  0.41441183895E+03  0.12500000000E+03 0.  0.
</event>
<event>
 4    0  0.2156764E-002  0.4962939E+03  0.7546771E-02  0.1014751E+00
         21   -1    0    0  502  501  0.00000000000E+00  0.00000000000E+00  0.27707073105E+04  0.27707073105E+04  0.00000000000E+00 0.  1.
         21   -1    0    0  501  502 -0.00000000000E+00 -0.00000000000E+00 -0.88897030850E+02  0.88897030850E+02  0.00000000000E+00 0.  1.
         25    1    1    2    0    0 -0.31012268360E+03 -0.27645594477E+03  0.20352022955E+04  0.20809318470E+04  0.12500000000E+03 0.  0.
         25    1    1    2    0    0  0.31012268360E+03  0.27645594477E+03  0.64660798416E+03  0.77867249435E+03  0.12500000000E+03 0.  0.
</event>
<event>
 4    0  0.2156764E-002  0.2392994E+03  0.7546771E-02  0.1120260E+00
         21   -1    0    0  502  501  0.00000000000E+00  0.00000000000E+00  0.58509718644E+02  0.58509718644E+02  0.00000000000E+00 0.  1.
         21   -1    0    0  501  502 -0.00000000000E+00 -0.00000000000E+00 -0.97871232872E+03  0.97871232872E+03  0.00000000000E+00 0.  1.
         25    1    1    2    0    0  0.13067351024E+03 -0.15597200145E+03 -0.42678327111E+03  0.48905193182E+03  0.12500000000E+03 0.  0.
         25    1    1    2    0    0 -0.13067351024E+03  0.15597200145E+03 -0.49341933897E+03  0.54817011555E+03  0.12500000000E+03 0.  0.
</event>
<event>
 4    0  0.2156764E-002  0.2564751E+03  0.7546771E-02  0.1109280E+00
         21   -1    0    0  502  501  0.00000000000E+00  0.00000000000E+00  0.69025579912E+02  0.69025579912E+02  0.00000000000E+00 0.  1.
         21   -1    0    0  501  502 -0.00000000000E+00 -0.00000000000E+00 -0.95297216267E+03  0.95297216267E+03  0.00000000000E+00 0.  1.
         25    1    1    2    0    0 -0.10784727303E+03 -0.25981859524E+02 -0.82958631639E+03  0.84625324086E+03  0.12500000000E+03 0.  0.
         25    1    1    2    0    0  0.10784727303E+03  0.25981859524E+02 -0.54360266362E+02  0.17574450172E+03  0.12500000000E+03 0.  0.
</event>
<event>
 4    0  0.2156764E-002  0.2016150E+03  0.7546771E-02  0.1148384E+00
         21   -1    0    0  502  501  0.00000000000E+00  0.00000000000E+00  0.32885020709E+02  0.32885020709E+02  0.00000000000E+00 0.  1.
         21   -1    0    0  501  502 -0.00000000000E+00 -0.00000000000E+00 -0.12360833754E+04  0.12360833754E+04  0.00000000000E+00 0.  1.
         25    1    1    2    0    0 -0.38977394799E+02  0.10966393591E+03 -0.26444000847E+03  0.31479983200E+03  0.12500000000E+03 0.  0.
         25    1    1    2    0    0  0.38977394799E+02 -0.10966393591E+03 -0.93875834624E+03  0.95416856413E+03  0.12500000000E+03 0.  0.
</event>
<event>
 4    0  0.2156764E-002  0.2067868E+03  0.7546771E-02  0.1144136E+00
         21   -1    0    0  502  501  0.00000000000E+00  0.00000000000E+00  0.24785172328E+03  0.24785172328E+03  0.00000000000E+00 0.  1.
         21   -1    0    0  501  502 -0.00000000000E+00 -0.00000000000E+00 -0.17252558999E+03  0.17252558999E+03  0.00000000000E+00 0.  1.
         25    1    1    2    0    0  0.13641427523E+02  0.13031581368E+03 -0.63816569411E+02  0.19200482903E+03  0.12500000000E+03 0.  0.
         25    1    1    2    0    0 -0.13641427523E+02 -0.13031581368E+03  0.13914270270E+03  0.22837248424E+03  0.12500000000E+03 0.  0.
</event>
<event>
 4    0  0.2156764E-002  0.2627645E+03  0.7546771E-02  0.1105494E+00
         21   -1    0    0  502  501  0.00000000000E+00  0.00000000000E+00  0.43033046901E+03  0.43033046901E+03  0.00000000000E+00 0.  1.
         21   -1    0    0  501  502 -0.00000000000E+00 -0.00000000000E+00 -0.16044688850E+03  0.16044688850E+03  0.00000000000E+00 0.  1.
         25    1    1    2    0    0  0.11091744709E+03 -0.20071510136E+03  0.10253654413E+03  0.28058505817E+03  0.12500000000E+03 0.  0.
         25    1    1    2    0    0 -0.11091744709E+03  0.20071510136E+03  0.16734703638E+03  0.31019229934E+03  0.12500000000E+03 0.  0.
</event>
<event>
 4    0  0.2156764E-002  0.3952928E+03  0.7546771E-02  0.1045422E+00
         21   -1    0    0  502  501  0.00000000000E+00  0.00000000000E+00  0.94899144303E+03  0.94899144303E+03  0.00000000000E+00 0.  1.
         21   -1    0    0  501  502 -0.00000000000E+00 -0.00000000000E+00 -0.16465519283E+03  0.16465519283E+03  0.00000000000E+00 0.  1.
         25    1    1    2    0    0 -0.27455723972E+03 -0.18846872303E+03  0.63504736318E+03  0.72788205839E+03  0.12500000000E+03 0.  0.
         25    1    1    2    0    0  0.27455723972E+03  0.18846872303E+03  0.14928888702E+03  0.38576457747E+03  0.12500000000E+03 0.  0.
</event>
<event>
 4    0  0.2156764E-002  0.3256812E+03  0.7546771E-02  0.1073064E+00
         21   -1    0    0  502  501  0.00000000000E+00  0.00000000000E+00  0.10515958369E+04  0.10515958369E+04  0.00000000000E+00 0. -1.
         21   -1    0    0  501  502 -0.00000000000E+00 -0.00000000000E+00 -0.10086407950E+03  0.10086407950E+03  0.00000000000E+00 0. -1.
         25    1    1    2    0    0 -0.27438543457E+03  0.66956700792E+02  0.29258116374E+03  0.42544012958E+03  0.12500000000E+03 0.  0.
         25    1    1    2    0    0  0.27438543457E+03 -0.66956700792E+02  0.65815059363E+03  0.72701978679E+03  0.12500000000E+03 0.  0.
</event>
<event>
 4    0  0.2156764E-002  0.3362209E+03  0.7546771E-02  0.1068417E+00
         21   -1    0    0  502  501  0.00000000000E+00  0.00000000000E+00  0.58657986630E+03  0.58657986630E+03  0.00000000000E+00 0. -1.
         21   -1    0    0  501  502 -0.00000000000E+00 -0.00000000000E+00 -0.19271801209E+03  0.19271801209E+03  0.00000000000E+00 0. -1.
         25    1    1    2    0    0  0.33696549871E+01  0.18725035807E+02  0.55797762141E+03  0.57212411899E+03  0.12500000000E+03 0.  0.
         25    1    1    2    0    0 -0.33696549871E+01 -0.18725035807E+02 -0.16411576719E+03  0.20717375940E+03  0.12500000000E+03 0.  0.
</event>
<event>
 4    0  0.2156764E-002  0.2759456E+03  0.7546771E-02  0.1097924E+00
         21   -1    0    0  502  501  0.00000000000E+00  0.00000000000E+00  0.31802009308E+03  0.31802009308E+03  0.00000000000E+00 0. -1.
         21   -1    0    0  501  502 -0.00000000000E+00 -0.00000000000E+00 -0.23943765279E+03  0.23943765279E+03  0.00000000000E+00 0. -1.
         25    1    1    2    0    0 -0.14935527406E+03  0.65976758709E+02  0.22516096029E+03  0.30493013727E+03  0.12500000000E+03 0.  0.
         25    1    1    2    0    0  0.14935527406E+03 -0.65976758709E+02 -0.14657851999E+03  0.25252760860E+03  0.12500000000E+03 0.  0.
</event>
<event>
 4    0  0.2156764E-002  0.2040051E+03  0.7546771E-02  0.1146403E+00
         21   -1    0    0  502  501  0.00000000000E+00  0.00000000000E+00  0.55390928744E+03  0.55390928744E+03  0.00000000000E+00 0.  1.
         21   -1    0    0  501  502 -0.00000000000E+00 -0.00000000000E+00 -0.75135211359E+02  0.75135211359E+02  0.00000000000E+00 0.  1.
         25    1    1    2    0    0  0.82477723917E+02 -0.13705897808E+03  0.27042741407E+03  0.33814748956E+03  0.12500000000E+03 0.  0.
         25    1    1    2    0    0 -0.82477723917E+02  0.13705897808E+03  0.20834666201E+03  0.29089700924E+03  0.12500000000E+03 0.  0.
</event>
<event>
 4    0  0.2156764E-002  0.2062711E+03  0.7546771E-02  0.1144553E+00
         21   -1    0    0  502  501  0.00000000000E+00  0.00000000000E+00  0.10578087961E+03  0.10578087961E+03  0.00000000000E+00 0.  1.
         21   -1    0    0  501  502 -0.00000000000E+00 -0.00000000000E+00 -0.40222535369E+03  0.40222535369E+03  0.00000000000E+00 0.  1.
         25    1    1    2    0    0 -0.81534933812E+02 -0.14227198272E+03 -0.15534835867E+03  0.25816152897E+03  0.12500000000E+03 0.  0.
         25    1    1    2    0    0  0.81534933812E+02  0.14227198272E+03 -0.14109611541E+03  0.24984470433E+03  0.12500000000E+03 0.  0.
</event>
<event>
 4    0  0.2156764E-002  0.1606239E+03  0.7546771E-02  0.1187994E+00
         21   -1    0    0  502  501  0.00000000000E+00  0.00000000000E+00  0.40840724911E+02  0.40840724911E+02  0.00000000000E+00 0.  1.
         21   -1    0    0  501  502 -0.00000000000E+00 -0.00000000000E+00 -0.63172321632E+03  0.63172321632E+03  0.00000000000E+00 0.  1.
         25    1    1    2    0    0 -0.36762079692E+02 -0.90354153622E+02 -0.34921497390E+03  0.38352499472E+03  0.12500000000E+03 0.  0.
         25    1    1    2    0    0  0.36762079692E+02  0.90354153622E+02 -0.24166751750E+03  0.28903894650E+03  0.12500000000E+03 0.  0.
</event>
<event>
 4    0  0.2156764E-002  0.2937626E+03  0.7546771E-02  0.1088401E+00
         21   -1    0    0  502  501  0.00000000000E+00  0.00000000000E+00  0.14543751364E+04  0.14543751364E+04  0.00000000000E+00 0.  1.
         21   -1    0    0  501  502 -0.00000000000E+00 -0.00000000000E+00 -0.59335765638E+02  0.59335765638E+02  0.00000000000E+00 0.  1.
         25    1    1    2    0    0 -0.20426406821E+03  0.16703884883E+03  0.61420626840E+03  0.68007361861E+03  0.12500000000E+03 0.  0.
         25    1    1    2    0    0  0.20426406821E+03 -0.16703884883E+03  0.78083310238E+03  0.83363728344E+03  0.12500000000E+03 0.  0.
</event>
<event>
 4    0  0.2156764E-002  0.2315620E+03  0.7546771E-02  0.1125545E+00
         21   -1    0    0  502  501  0.00000000000E+00  0.00000000000E+00  0.30320387831E+04  0.30320387831E+04  0.00000000000E+00 0.  1.
         21   -1    0    0  501  502 -0.00000000000E+00 -0.00000000000E+00 -0.17684782374E+02  0.17684782374E+02  0.00000000000E+00 0.  1.
         25    1    1    2    0    0  0.13686029399E+02  0.19438068773E+03  0.15399619139E+04  0.15572664689E+04  0.12500000000E+03 0.  0.
         25    1    1    2    0    0 -0.13686029399E+02 -0.19438068773E+03  0.14743920868E+04  0.14924570965E+04  0.12500000000E+03 0.  0.
</event>
<event>
 4    0  0.2156764E-002  0.2329500E+03  0.7546771E-02  0.1124581E+00
         21   -1    0    0  502  501  0.00000000000E+00  0.00000000000E+00  0.30207890572E+03  0.30207890572E+03  0.00000000000E+00 0.  1.
         21   -1    0    0  501  502 -0.00000000000E+00 -0.00000000000E+00 -0.17964076192E+03  0.17964076192E+03  0.00000000000E+00 0.  1.
         25    1    1    2    0    0  0.16874823026E+03  0.10056912584E+03  0.53866312560E+02  0.23899099128E+03  0.12500000000E+03 0.  0.
         25    1    1    2    0    0 -0.16874823026E+03 -0.10056912584E+03  0.68571831239E+02  0.24272867635E+03  0.12500000000E+03 0.  0.
</event>
<event>
 4    0  0.2156764E-002  0.2230492E+03  0.7546771E-02  0.1131630E+00
         21   -1    0    0  502  501  0.00000000000E+00  0.00000000000E+00  0.14994570058E+03  0.14994570058E+03  0.00000000000E+00 0.  1.
         21   -1    0    0  501  502 -0.00000000000E+00 -0.00000000000E+00 -0.33179311074E+03  0.33179311074E+03  0.00000000000E+00 0.  1.
         25    1    1    2    0    0  0.13180896539E+02 -0.16492867256E+03 -0.17965092583E+03  0.27436227550E+03  0.12500000000E+03 0.  0.
         25    1    1    2    0    0 -0.13180896539E+02  0.16492867256E+03 -0.21964843355E+01  0.20737653582E+03  0.12500000000E+03 0.  0.
</event>
<event>
 4    0  0.2156764E-002  0.1979724E+03  0.7546771E-02  0.1151461E+00
         21   -1    0    0  502  501  0.00000000000E+00  0.00000000000E+00  0.15829360962E+03  0.15829360962E+03  0.00000000000E+00 0. -1.
         21   -1    0    0  501  502 -0.00000000000E+00 -0.00000000000E+00 -0.24759732879E+03  0.24759732879E+03  0.00000000000E+00 0. -1.
         25    1    1    2    0    0  0.72972985047E+02  0.24842880858E+01 -0.18308802612E+03  0.23340405640E+03  0.12500000000E+03 0.  0.
         25    1    1    2    0    0 -0.72972985047E+02 -0.24842880858E+01  0.93784306955E+02  0.17248688201E+03  0.12500000000E+03 0.  0.
</event>
<event>
 4    0  0.2156764E-002  0.2060112E+03  0.7546771E-02  0.1144764E+00
         21   -1    0    0  502  501  0.00000000000E+00  0.00000000000E+00  0.48677588097E+02  0.48677588097E+02  0.00000000000E+00 0. -1.
         21   -1    0    0  501  502 -0.00000000000E+00 -0.00000000000E+00 -0.87187161388E+03  0.87187161388E+03  0.00000000000E+00 0. -1.
         25    1    1    2    0    0 -0.38331715962E+02  0.63457868158E+02 -0.85374777117E+02  0.16855288205E+03  0.12500000000E+03 0.  0.
         25    1    1    2    0    0  0.38331715962E+02 -0.63457868158E+02 -0.73781924867E+03  0.75199631993E+03  0.12500000000E+03 0.  0.
</event>
<event>
 4    0  0.2156764E-002  0.1999509E+03  0.7546771E-02  0.1149780E+00
         21   -1    0    0  502  501  0.00000000000E+00  0.00000000000E+00  0.60505759680E+02  0.60505759680E+02  0.00000000000E+00 0.  1.
         21   -1    0    0  501  502 -0.00000000000E+00 -0.00000000000E+00 -0.66076933051E+03  0.66076933051E+03  0.00000000000E+00 0.  1.
         25    1    1    2    0    0  0.14444749174E+03 -0.55226490313E+02 -0.33797826958E+03  0.39213435684E+03  0.12500000000E+03 0.  0.
         25    1    1    2    0    0 -0.14444749174E+03  0.55226490313E+02 -0.26228530125E+03  0.32914073336E+03  0.12500000000E+03 0.  0.
</event>
<event>
 4    0  0.2156764E-002  0.1356468E+03  0.7546771E-02  0.1219309E+00
         21   -1    0    0  502  501  0.00000000000E+00  0.00000000000E+00  0.21331237387E+02  0.21331237387E+02  0.00000000000E+00 0. -1.
         21   -1    0    0  501  502 -0.00000000000E+00 -0.00000000000E+00 -0.86258736570E+03  0.86258736570E+03  0.00000000000E+00 0. -1.
         25    1    1    2    0    0  0.84058671598E+01 -0.49686064254E+02 -0.47064825995E+03  0.48956526447E+03  0.12500000000E+03 0.  0.
         25    1    1    2    0    0 -0.84058671598E+01  0.49686064254E+02 -0.37060786836E+03  0.39435333861E+03  0.12500000000E+03 0.  0.
</event>
<event>
 4    0  0.2156764E-002  0.1640211E+03  0.7546771E-02  0.1184230E+00
         21   -1    0    0  502  501  0.00000000000E+00  0.00000000000E+00  0.22962111658E+03  0.22962111658E+03  0.00000000000E+00 0.  1.
         21   -1    0    0  501  502 -0.00000000000E+00 -0.00000000000E+00 -0.11716225222E+03  0.11716225222E+03  0.00000000000E+00 0.  1.
         25    1    1    2    0    0  0.80265697489E+01  0.55623617565E+02 -0.39026828465E+02  0.14250089822E+03  0.12500000000E+03 0.  0.
         25    1    1    2    0    0 -0.80265697489E+01 -0.55623617565E+02  0.15148569283E+03  0.20428247058E+03  0.12500000000E+03 0.  0.
</event>
<event>
 4    0  0.2156764E-002  0.2653374E+03  0.7546771E-02  0.1103978E+00
         21   -1    0    0  502  501  0.00000000000E+00  0.00000000000E+00  0.72834331406E+02  0.72834331406E+02  0.00000000000E+00 0.  1.
         21   -1    0    0  501  502 -0.00000000000E+00 -0.00000000000E+00 -0.96663114246E+03  0.96663114246E+03  0.00000000000E+00 0.  1.
         25    1    1    2    0    0 -0.81359111745E+02 -0.18469671510E+03 -0.67904887160E+03  0.71935008978E+03  0.12500000000E+03 0.  0.
         25    1    1    2    0    0  0.81359111745E+02  0.18469671510E+03 -0.21474793945E+03  0.32011538409E+03  0.12500000000E+03 0.  0.
</event>
<event>
 4    0  0.2156764E-002  0.1597862E+03  0.7546771E-02  0.1188938E+00
         21   -1    0    0  502  501  0.00000000000E+00  0.00000000000E+00  0.14624650691E+03  0.14624650691E+03  0.00000000000E+00 0.  1.
         21   -1    0    0  501  502 -0.00000000000E+00 -0.00000000000E+00 -0.17457930800E+03  0.17457930800E+03  0.00000000000E+00 0.  1.
         25    1    1    2    0    0 -0.37683760227E+02  0.90342679221E+02  0.39250651264E+01  0.15881521215E+03  0.12500000000E+03 0.  0.
         25    1    1    2    0    0  0.37683760227E+02 -0.90342679221E+02 -0.32257866211E+02  0.16201060276E+03  0.12500000000E+03 0.  0.
</event>
<event>
 4    0  0.2156764E-002  0.2213021E+03  0.7546771E-02  0.1132916E+00
         21   -1    0    0  502  501  0.00000000000E+00  0.00000000000E+00  0.27684683373E+03  0.27684683373E+03  0.00000000000E+00 0. -1.
         21   -1    0    0  501  502 -0.00000000000E+00 -0.00000000000E+00 -0.17690152075E+03  0.17690152075E+03  0.00000000000E+00 0. -1.
         25    1    1    2    0    0 -0.17509249913E+03 -0.38673471213E+02  0.14509698289E+02  0.21906289501E+03  0.12500000000E+03 0.  0.
         25    1    1    2    0    0  0.17509249913E+03  0.38673471213E+02  0.85435614692E+02  0.23468545946E+03  0.12500000000E+03 0.  0.
</event>
<event>
 4    0  0.2156764E-002  0.3343662E+03  0.7546771E-02  0.1069221E+00
         21   -1    0    0  502  501  0.00000000000E+00  0.00000000000E+00  0.10783690822E+04  0.10783690822E+04  0.00000000000E+00 0.  1.
         21   -1    0    0  501  502 -0.00000000000E+00 -0.00000000000E+00 -0.10367580174E+03  0.10367580174E+03  0.00000000000E+00 0.  1.
         25    1    1    2    0    0  0.25334155449E+03  0.14674036328E+03  0.66813491876E+03  0.74009725517E+03  0.12500000000E+03 0.  0.
         25    1    1    2    0    0 -0.25334155449E+03 -0.14674036328E+03  0.30655836168E+03  0.44194762875E+03  0.12500000000E+03 0.  0.
</event>
<event>
 4    0  0.2156764E-002  0.4047229E+03  0.7546771E-02  0.1042156E+00
         21   -1    0    0  502  501  0.00000000000E+00  0.00000000000E+00  0.24522139103E+03  0.24522139103E+03  0.00000000000E+00 0. -1.
         21   -1    0    0  501  502 -0.00000000000E+00 -0.00000000000E+00 -0.66797049012E+03  0.66797049012E+03  0.00000000000E+00 0. -1.
         25    1    1    2    0    0 -0.47079654723E+02 -0.37792404081E+03 -0.14823155190E+03  0.42736479440E+03  0.12500000000E+03 0.  0.
         25    1    1    2    0    0  0.47079654723E+02  0.37792404081E+03 -0.27451754719E+03  0.48582708675E+03  0.12500000000E+03 0.  0.
</event>
<event>
 4    0  0.2156764E-002  0.2131211E+03  0.7546771E-02  0.1139118E+00
         21   -1    0    0  502  501  0.00000000000E+00  0.00000000000E+00  0.24165408515E+03  0.24165408515E+03  0.00000000000E+00 0.  1.
         21   -1    0    0  501  502 -0.00000000000E+00 -0.00000000000E+00 -0.18795717861E+03  0.18795717861E+03  0.00000000000E+00 0.  1.
         25    1    1    2    0    0  0.15323748408E+03 -0.79362632577E+02  0.30812229182E+02  0.21530106234E+03  0.12500000000E+03 0.  0.
         25    1    1    2    0    0 -0.15323748408E+03  0.79362632577E+02  0.22884677354E+02  0.21431020142E+03  0.12500000000E+03 0.  0.
</event>
<event>
 4    0  0.2156764E-002  0.1987225E+03  0.7546771E-02  0.1150821E+00
         21   -1    0    0  502  501  0.00000000000E+00  0.00000000000E+00  0.19428593153E+03  0.19428593153E+03  0.00000000000E+00 0.  1.
         21   -1    0    0  501  502 -0.00000000000E+00 -0.00000000000E+00 -0.20326031164E+03  0.20326031164E+03  0.00000000000E+00 0.  1.
         25    1    1    2    0    0 -0.57571392084E+02  0.48547723419E+01 -0.14779821992E+03  0.20200828649E+03  0.12500000000E+03 0.  0.
         25    1    1    2    0    0  0.57571392084E+02 -0.48547723419E+01  0.13882383981E+03  0.19553795667E+03  0.12500000000E+03 0.  0.
</event>
<event>
 4    0  0.2156764E-002  0.2916464E+03  0.7546771E-02  0.1089493E+00
         21   -1    0    0  502  501  0.00000000000E+00  0.00000000000E+00  0.21694144961E+03  0.21694144961E+03  0.00000000000E+00 0.  1.
         21   -1    0    0  501  502 -0.00000000000E+00 -0.00000000000E+00 -0.39207649324E+03  0.39207649324E+03  0.00000000000E+00 0.  1.
         25    1    1    2    0    0 -0.20299064639E+03  0.73474313776E+02 -0.24532375819E+03  0.34987486854E+03  0.12500000000E+03 0.  0.
         25    1    1    2    0    0  0.20299064639E+03 -0.73474313776E+02  0.70188714558E+02  0.25914307430E+03  0.12500000000E+03 0.  0.
</event>
<event>
 4    0  0.2156764E-002  0.3468876E+03  0.7546771E-02  0.1063900E+00
         21   -1    0    0  502  501  0.00000000000E+00  0.00000000000E+00  0.98734765830E+02  0.98734765830E+02  0.00000000000E+00 0.  1.
         21   -1    0    0  501  502 -0.00000000000E+00 -0.00000000000E+00 -0.12187296484E+04  0.12187296484E+04  0.00000000000E+00 0.  1.
         25    1    1    2    0    0 -0.39730484611E+02  0.27544973333E+03 -0.24649378469E+03  0.39221837398E+03  0.12500000000E+03 0.  0.
         25    1    1    2    0    0  0.39730484611E+02 -0.27544973333E+03 -0.87350109786E+03  0.92524604022E+03  0.12500000000E+03 0.  0.
</event>
<event>
 4    0  0.2156764E-002  0.6382397E+03  0.7546771E-02  0.9829100E-01
         21   -1    0    0  502  501  0.00000000000E+00  0.00000000000E+00  0.94554159314E+03  0.94554159314E+03  0.00000000000E+00 0.  1.
         21   -1    0    0  501  502 -0.00000000000E+00 -0.00000000000E+00 -0.43081114043E+03  0.43081114043E+03  0.00000000000E+00 0.  1.
         25    1    1    2    0    0 -0.16190358138E+03 -0.56797454662E+03  0.33992248245E+02  0.60463900652E+03  0.12500000000E+03 0.  0.
         25    1    1    2    0    0  0.16190358138E+03  0.56797454662E+03  0.48073820446E+03  0.77171372704E+03  0.12500000000E+03 0.  0.
</event>
<event>
 4    0  0.2156764E-002  0.1968532E+03  0.7546771E-02  0.1152421E+00
         21   -1    0    0  502  501  0.00000000000E+00  0.00000000000E+00  0.17047739485E+04  0.17047739485E+04  0.00000000000E+00 0. -1.
         21   -1    0    0  501  502 -0.00000000000E+00 -0.00000000000E+00 -0.22730984794E+02  0.22730984794E+02  0.00000000000E+00 0. -1.
         25    1    1    2    0    0  0.10294258997E+03  0.17225494401E+02  0.35573212186E+03  0.39123424826E+03  0.12500000000E+03 0.  0.
         25    1    1    2    0    0 -0.10294258997E+03 -0.17225494401E+02  0.13263108418E+04  0.13362706850E+04  0.12500000000E+03 0.  0.
</event>
<event>
 4    0  0.2156764E-002  0.2362020E+03  0.7546771E-02  0.1122349E+00
         21   -1    0    0  502  501  0.00000000000E+00  0.00000000000E+00  0.53488270605E+03  0.53488270605E+03  0.00000000000E+00 0. -1.
         21   -1    0    0  501  502 -0.00000000000E+00 -0.00000000000E+00 -0.10430586067E+03  0.10430586067E+03  0.00000000000E+00 0. -1.
         25    1    1    2    0    0  0.14972237048E+03  0.52579405038E+02  0.49656510002E+02  0.20801959292E+03  0.12500000000E+03 0.  0.
         25    1    1    2    0    0 -0.14972237048E+03 -0.52579405038E+02  0.38092033538E+03  0.43116897379E+03  0.12500000000E+03 0.  0.
</event>
<event>
 4    0  0.2156764E-002  0.2107861E+03  0.7546771E-02  0.1140945E+00
         21   -1    0    0  502  501  0.00000000000E+00  0.00000000000E+00  0.37044440568E+03  0.37044440568E+03  0.00000000000E+00 0.  1.
         21   -1    0    0  501  502 -0.00000000000E+00 -0.00000000000E+00 -0.11993917229E+03  0.11993917229E+03  0.00000000000E+00 0.  1.
         25    1    1    2    0    0  0.12573299652E+03 -0.27677608736E+02 -0.33927451284E+01  0.17947519929E+03  0.12500000000E+03 0.  0.
         25    1    1    2    0    0 -0.12573299652E+03  0.27677608736E+02  0.25389797852E+03  0.31090837868E+03  0.12500000000E+03 0.  0.
</event>
<event>
 4    0  0.2156764E-002  0.1452054E+03  0.7546771E-02  0.1206491E+00
         21   -1    0    0  502  501  0.00000000000E+00  0.00000000000E+00  0.39624667199E+02  0.39624667199E+02  0.00000000000E+00 0.  1.
         21   -1    0    0  501  502 -0.00000000000E+00 -0.00000000000E+00 -0.53210829349E+03  0.53210829349E+03  0.00000000000E+00 0.  1.
         25    1    1    2    0    0  0.79750476182E+01 -0.55113513893E+02 -0.34185098722E+03  0.36822302788E+03  0.12500000000E+03 0.  0.
         25    1    1    2    0    0 -0.79750476182E+01  0.55113513893E+02 -0.15063263907E+03  0.20350993281E+03  0.12500000000E+03 0.  0.
</event>
<event>
 4    0  0.2156764E-002  0.1877282E+03  0.7546771E-02  0.1160526E+00
         21   -1    0    0  502  501  0.00000000000E+00  0.00000000000E+00  0.12256989810E+03  0.12256989810E+03  0.00000000000E+00 0.  1.
         21   -1    0    0  501  502 -0.00000000000E+00 -0.00000000000E+00 -0.28752459863E+03  0.28752459863E+03  0.00000000000E+00 0.  1.
         25    1    1    2    0    0 -0.39718751992E+02 -0.11703923583E+03 -0.15444285306E+03  0.23399435216E+03  0.12500000000E+03 0.  0.
         25    1    1    2    0    0  0.39718751992E+02  0.11703923583E+03 -0.10511847477E+02  0.17610014458E+03  0.12500000000E+03 0.  0.
</event>
<event>
 4    0  0.2156764E-002  0.2353534E+03  0.7546771E-02  0.1122928E+00
         21   -1    0    0  502  501  0.00000000000E+00  0.00000000000E+00  0.55550818209E+02  0.55550818209E+02  0.00000000000E+00 0. -1.
         21   -1    0    0  501  502 -0.00000000000E+00 -0.00000000000E+00 -0.99712741244E+03  0.99712741244E+03  0.00000000000E+00 0. -1.
         25    1    1    2    0    0 -0.11684103361E+03 -0.15182111937E+03 -0.59459484694E+03  0.63707888949E+03  0.12500000000E+03 0.  0.
         25    1    1    2    0    0  0.11684103361E+03  0.15182111937E+03 -0.34698174729E+03  0.41559934116E+03  0.12500000000E+03 0.  0.
</event>
<event>
 4    0  0.2156764E-002  0.1533242E+03  0.7546771E-02  0.1196447E+00
         21   -1    0    0  502  501  0.00000000000E+00  0.00000000000E+00  0.60315316594E+03  0.60315316594E+03  0.00000000000E+00 0. -1.
         21   -1    0    0  501  502 -0.00000000000E+00 -0.00000000000E+00 -0.38975714464E+02  0.38975714464E+02  0.00000000000E+00 0. -1.
         25    1    1    2    0    0 -0.57646989913E+02 -0.44546147857E+02  0.38836508207E+03  0.41443934623E+03  0.12500000000E+03 0.  0.
         25    1    1    2    0    0  0.57646989913E+02  0.44546147857E+02  0.17581236941E+03  0.22768953417E+03  0.12500000000E+03 0.  0.
</event>
<event>
 4    0  0.2156764E-002  0.1961085E+03  0.7546771E-02  0.1153064E+00
         21   -1    0    0  502  501  0.00000000000E+00  0.00000000000E+00  0.44188903605E+03  0.44188903605E+03  0.00000000000E+00 0. -1.
         21   -1    0    0  501  502 -0.00000000000E+00 -0.00000000000E+00 -0.87032114658E+02  0.87032114658E+02  0.00000000000E+00 0. -1.
         25    1    1    2    0    0 -0.13235147806E+03 -0.72805503658E+02  0.18281961874E+03  0.26807754122E+03  0.12500000000E+03 0.  0.
         25    1    1    2    0    0  0.13235147806E+03  0.72805503658E+02  0.17203730265E+03  0.26084360949E+03  0.12500000000E+03 0.  0.
</event>
<event>
 4    0  0.2156764E-002  0.3031274E+03  0.7546771E-02  0.1083688E+00
         21   -1    0    0  502  501  0.00000000000E+00  0.00000000000E+00  0.10268489029E+03  0.10268489029E+03  0.00000000000E+00 0.  1.
         21   -1    0    0  501  502 -0.00000000000E+00 -0.00000000000E+00 -0.89483660262E+03  0.89483660262E+03  0.00000000000E+00 0.  1.
         25    1    1    2    0    0  0.21086616369E+03 -0.12209590427E+03 -0.18224405182E+03  0.32895264591E+03  0.12500000000E+03 0.  0.
         25    1    1    2    0    0 -0.21086616369E+03  0.12209590427E+03 -0.60990766052E+03  0.66856884701E+03  0.12500000000E+03 0.  0.
</event>
<event>
 4    0  0.2156764E-002  0.1714880E+03  0.7546771E-02  0.1176305E+00
         21   -1    0    0  502  501  0.00000000000E+00  0.00000000000E+00  0.22254888320E+03  0.22254888320E+03  0.00000000000E+00 0.  1.
         21   -1    0    0  501  502 -0.00000000000E+00 -0.00000000000E+00 -0.13214232712E+03  0.13214232712E+03  0.00000000000E+00 0.  1.
         25    1    1    2    0    0 -0.39028817591E+02  0.77130302107E+02 -0.36950736297E+02  0.15640552746E+03  0.12500000000E+03 0.  0.
         25    1    1    2    0    0  0.39028817591E+02 -0.77130302107E+02  0.12735729238E+03  0.19828568286E+03  0.12500000000E+03 0.  0.
</event>
<event>
 4    0  0.2156764E-002  0.3871947E+03  0.7546771E-02  0.1048306E+00
         21   -1    0    0  502  501  0.00000000000E+00  0.00000000000E+00  0.70214796823E+03  0.70214796823E+03  0.00000000000E+00 0. -1.
         21   -1    0    0  501  502 -0.00000000000E+00 -0.00000000000E+00 -0.21351583595E+03  0.21351583595E+03  0.00000000000E+00 0.  1.
         25    1    1    2    0    0 -0.25329441414E+03  0.26478644553E+03  0.25020316292E+03  0.46097347506E+03  0.12500000000E+03 0.  0.
         25    1    1    2    0    0  0.25329441414E+03 -0.26478644553E+03  0.23842896936E+03  0.45469032913E+03  0.12500000000E+03 0.  0.
</event>
<event>
 4    0  0.2156764E-002  0.2049308E+03  0.7546771E-02  0.1145644E+00
         21   -1    0    0  502  501  0.00000000000E+00  0.00000000000E+00  0.12909889468E+04  0.12909889468E+04  0.00000000000E+00 0.  1.
         21   -1    0    0  501  502 -0.00000000000E+00 -0.00000000000E+00 -0.32530605596E+02  0.32530605596E+02  0.00000000000E+00 0.  1.
         25    1    1    2    0    0  0.68546679912E+02  0.57998966759E+02  0.19228412228E+03  0.24629395274E+03  0.12500000000E+03 0.  0.
         25    1    1    2    0    0 -0.68546679912E+02 -0.57998966759E+02  0.10661742189E+04  0.10772255997E+04  0.12500000000E+03 0.  0.
</event>
<event>
 4    0  0.2156764E-002  0.1967477E+03  0.7546771E-02  0.1152512E+00
         21   -1    0    0  502  501  0.00000000000E+00  0.00000000000E+00  0.53722403024E+02  0.53722403024E+02  0.00000000000E+00 0. -1.
         21   -1    0    0  501  502 -0.00000000000E+00 -0.00000000000E+00 -0.72054967154E+03  0.72054967154E+03  0.00000000000E+00 0. -1.
         25    1    1    2    0    0 -0.15342709066E+02 -0.11244195397E+03 -0.53219842551E+03  0.55833570175E+03  0.12500000000E+03 0.  0.
         25    1    1    2    0    0  0.15342709066E+02  0.11244195397E+03 -0.13462884300E+03  0.21593637281E+03  0.12500000000E+03 0.  0.
</event>
<event>
 4    0  0.2156764E-002  0.2327264E+03  0.7546771E-02  0.1124735E+00
         21   -1    0    0  502  501  0.00000000000E+00  0.00000000000E+00  0.28499775206E+03  0.28499775206E+03  0.00000000000E+00 0. -1.
         21   -1    0    0  501  502 -0.00000000000E+00 -0.00000000000E+00 -0.19004208107E+03  0.19004208107E+03  0.00000000000E+00 0. -1.
         25    1    1    2    0    0 -0.73143438433E+02 -0.28067486055E+02  0.23118200750E+03  0.27424052755E+03  0.12500000000E+03 0.  0.
         25    1    1    2    0    0  0.73143438433E+02  0.28067486055E+02 -0.13622633652E+03  0.20079930558E+03  0.12500000000E+03 0.  0.
</event>
<event>
 4    0  0.2156764E-002  0.2566632E+03  0.7546771E-02  0.1109165E+00
         21   -1    0    0  502  501  0.00000000000E+00  0.00000000000E+00  0.14888104233E+03  0.14888104233E+03  0.00000000000E+00 0.  1.
         21   -1    0    0  501  502 -0.00000000000E+00 -0.00000000000E+00 -0.44247409127E+03  0.44247409127E+03  0.00000000000E+00 0.  1.
         25    1    1    2    0    0  0.12979032679E+03 -0.53656545717E+02 -0.34807294663E+03  0.39560628155E+03  0.12500000000E+03 0.  0.
         25    1    1    2    0    0 -0.12979032679E+03  0.53656545717E+02  0.54479897692E+02  0.19574885205E+03  0.12500000000E+03 0.  0.
</event>
<event>
 4    0  0.2156764E-002  0.1785003E+03  0.7546771E-02  0.1169262E+00
         21   -1    0    0  502  501  0.00000000000E+00  0.00000000000E+00  0.91910220304E+02  0.91910220304E+02  0.00000000000E+00 0.  1.
         21   -1    0    0  501  502 -0.00000000000E+00 -0.00000000000E+00 -0.34666814695E+03  0.34666814695E+03  0.00000000000E+00 0.  1.
         25    1    1    2    0    0 -0.10391646433E+03  0.49466018757E+02 -0.19457545358E+03  0.25832174842E+03  0.12500000000E+03 0.  0.
         25    1    1    2    0    0  0.10391646433E+03 -0.49466018757E+02 -0.60182473073E+02  0.18025661884E+03  0.12500000000E+03 0.  0.
</event>
<event>
 4    0  0.2156764E-002  0.2112173E+03  0.7546771E-02  0.1140606E+00
         21   -1    0    0  502  501  0.00000000000E+00  0.00000000000E+00  0.17240068001E+04  0.17240068001E+04  0.00000000000E+00 0. -1.
         21   -1    0    0  501  502 -0.00000000000E+00 -0.00000000000E+00 -0.25877366784E+02  0.25877366784E+02  0.00000000000E+00 0. -1.
         25    1    1    2    0    0 -0.16503428521E+03  0.93409619325E+01  0.10180507836E+04  0.10389302031E+04  0.12500000000E+03 0.  0.
         25    1    1    2    0    0  0.16503428521E+03 -0.93409619325E+01  0.68007864976E+03  0.71095396386E+03  0.12500000000E+03 0.  0.
</event>
<event>
 4    0  0.2156764E-002  0.1951965E+03  0.7546771E-02  0.1153856E+00
         21   -1    0    0  502  501  0.00000000000E+00  0.00000000000E+00  0.23294912515E+03  0.23294912515E+03  0.00000000000E+00 0. -1.
         21   -1    0    0  501  502 -0.00000000000E+00 -0.00000000000E+00 -0.16356217054E+03  0.16356217054E+03  0.00000000000E+00 0. -1.
         25    1    1    2    0    0 -0.73200931334E+02  0.62450112291E+02 -0.82079117378E+02  0.17782118654E+03  0.12500000000E+03 0.  0.
         25    1    1    2    0    0  0.73200931334E+02 -0.62450112291E+02  0.15146607199E+03  0.21869010914E+03  0.12500000000E+03 0.  0.
</event>
<event>
 4    0  0.2156764E-002  0.1685103E+03  0.7546771E-02  0.1179410E+00
         21   -1    0    0  502  501  0.00000000000E+00  0.00000000000E+00  0.12309253104E+03  0.12309253104E+03  0.00000000000E+00 0.  1.
         21   -1    0    0  501  502 -0.00000000000E+00 -0.00000000000E+00 -0.23068591950E+03  0.23068591950E+03  0.00000000000E+00 0.  1.
         25    1    1    2    0    0  0.79496059053E+02 -0.45421299679E+02  0.15739047053E+02  0.15574156629E+03  0.12500000000E+03 0.  0.
         25    1    1    2    0    0 -0.79496059053E+02  0.45421299679E+02 -0.12333243552E+03  0.19803688424E+03  0.12500000000E+03 0.  0.
</event>
<event>
 4    0  0.2156764E-002  0.1603147E+03  0.7546771E-02  0.1188342E+00
         21   -1    0    0  502  501  0.00000000000E+00  0.00000000000E+00  0.15352202807E+03  0.15352202807E+03  0.00000000000E+00 0.  1.
         21   -1    0    0  501  502 -0.00000000000E+00 -0.00000000000E+00 -0.16740796365E+03  0.16740796365E+03  0.00000000000E+00 0.  1.
         25    1    1    2    0    0 -0.95080258886E+01 -0.85569308824E+02 -0.58598521715E+02  0.16270001818E+03  0.12500000000E+03 0.  0.
         25    1    1    2    0    0  0.95080258886E+01  0.85569308824E+02  0.44712586135E+02  0.15822997354E+03  0.12500000000E+03 0.  0.
</event>
<event>
 4    0  0.2156764E-002  0.3435279E+03  0.7546771E-02  0.1065303E+00
         21   -1    0    0  502  501  0.00000000000E+00  0.00000000000E+00  0.22376425829E+03  0.22376425829E+03  0.00000000000E+00 0. -1.
         21   -1    0    0  501  502 -0.00000000000E+00 -0.00000000000E+00 -0.52739185980E+03  0.52739185980E+03  0.00000000000E+00 0. -1.
         25    1    1    2    0    0  0.62690785213E+02 -0.87213487609E+02  0.17772070679E+03  0.24237569308E+03  0.12500000000E+03 0.  0.
         25    1    1    2    0    0 -0.62690785213E+02  0.87213487609E+02 -0.48134830830E+03  0.50878042501E+03  0.12500000000E+03 0.  0.
</event>
<event>
 4    0  0.2156764E-002  0.2696959E+03  0.7546771E-02  0.1101454E+00
         21   -1    0    0  502  501  0.00000000000E+00  0.00000000000E+00  0.67293087242E+03  0.67293087242E+03  0.00000000000E+00 0. -1.
         21   -1    0    0  501  502 -0.00000000000E+00 -0.00000000000E+00 -0.10808818891E+03  0.10808818891E+03  0.00000000000E+00 0. -1.
         25    1    1    2    0    0 -0.35851642577E+02 -0.16143069291E+03  0.32608289856E+02  0.20984162947E+03  0.12500000000E+03 0.  0.
         25    1    1    2    0    0  0.35851642577E+02  0.16143069291E+03  0.53223439365E+03  0.57117743186E+03  0.12500000000E+03 0.  0.
</event>
<event>
 4    0  0.2156764E-002  0.1958322E+03  0.7546771E-02  0.1153304E+00
         21   -1    0    0  502  501  0.00000000000E+00  0.00000000000E+00  0.45359060686E+03  0.45359060686E+03  0.00000000000E+00 0.  1.
         21   -1    0    0  501  502 -0.00000000000E+00 -0.00000000000E+00 -0.84548174184E+02  0.84548174184E+02  0.00000000000E+00 0.  1.
         25    1    1    2    0    0 -0.28227104249E+02  0.71305099820E+02  0.61997267753E+01  0.14678086826E+03  0.12500000000E+03 0.  0.
         25    1    1    2    0    0  0.28227104249E+02 -0.71305099820E+02  0.36284270590E+03  0.39135791279E+03  0.12500000000E+03 0.  0.
</event>
<event>
 4    0  0.2156764E-002  0.2064680E+03  0.7546771E-02  0.1144394E+00
         21   -1    0    0  502  501  0.00000000000E+00  0.00000000000E+00  0.22476675964E+03  0.22476675964E+03  0.00000000000E+00 0. -1.
         21   -1    0    0  501  502 -0.00000000000E+00 -0.00000000000E+00 -0.18965897704E+03  0.18965897704E+03  0.00000000000E+00 0. -1.
         25    1    1    2    0    0  0.84168057024E+02  0.11903011319E+03 -0.58559043531E+02  0.20076501500E+03  0.12500000000E+03 0.  0.
         25    1    1    2    0    0 -0.84168057024E+02 -0.11903011319E+03  0.93666826132E+02  0.21366072167E+03  0.12500000000E+03 0.  0.
</event>
<event>
 4    0  0.2156764E-002  0.3408126E+03  0.7546771E-02  0.1066450E+00
         21   -1    0    0  502  501  0.00000000000E+00  0.00000000000E+00  0.14475220908E+03  0.14475220908E+03  0.00000000000E+00 0. -1.
         21   -1    0    0  501  502 -0.00000000000E+00 -0.00000000000E+00 -0.80242806106E+03  0.80242806106E+03  0.00000000000E+00 0. -1.
         25    1    1    2    0    0 -0.10969761963E+03  0.82120742804E+02 -0.72615125299E+03  0.74946516021E+03  0.12500000000E+03 0.  0.
         25    1    1    2    0    0  0.10969761963E+03 -0.82120742804E+02  0.68475401007E+02  0.19771510993E+03  0.12500000000E+03 0.  0.
</event>
<event>
 4    0  0.2156764E-002  0.2490592E+03  0.7546771E-02  0.1113901E+00
         21   -1    0    0  502  501  0.00000000000E+00  0.00000000000E+00  0.70946727129E+02  0.70946727129E+02  0.00000000000E+00 0.  1.
         21   -1    0    0  501  502 -0.00000000000E+00 -0.00000000000E+00 -0.87432505345E+03  0.87432505345E+03  0.00000000000E+00 0.  1.
         25    1    1    2    0    0  0.18087471572E+03  0.48585394148E+02 -0.60367715293E+03  0.64430373915E+03  0.12500000000E+03 0.  0.
         25    1    1    2    0    0 -0.18087471572E+03 -0.48585394148E+02 -0.19970117339E+03  0.30096804143E+03  0.12500000000E+03 0.  0.
</event>
<event>
 4    0  0.2156764E-002  0.1794586E+03  0.7546771E-02  0.1168328E+00
         21   -1    0    0  502  501  0.00000000000E+00  0.00000000000E+00  0.77151649260E+03  0.77151649260E+03  0.00000000000E+00 0.  1.
         21   -1    0    0  501  502 -0.00000000000E+00 -0.00000000000E+00 -0.41742989286E+02  0.41742989286E+02  0.00000000000E+00 0.  1.
         25    1    1    2    0    0 -0.11776773876E+02  0.73758629095E+02  0.60254794941E+03  0.61989358692E+03  0.12500000000E+03 0.  0.
         25    1    1    2    0    0  0.11776773876E+02 -0.73758629095E+02  0.12722555390E+03  0.19336589496E+03  0.12500000000E+03 0.  0.
</event>
<event>
 4    0  0.2156764E-002  0.3349508E+03  0.7546771E-02  0.1068967E+00
         21   -1    0    0  502  501  0.00000000000E+00  0.00000000000E+00  0.47693386570E+03  0.47693386570E+03  0.00000000000E+00 0.  1.
         21   -1    0    0  501  502 -0.00000000000E+00 -0.00000000000E+00 -0.23523609224E+03  0.23523609224E+03  0.00000000000E+00 0.  1.
         25    1    1    2    0    0  0.76584918219E+02 -0.29884511834E+03  0.81165276103E+02  0.34261706977E+03  0.12500000000E+03 0.  0.
         25    1    1    2    0    0 -0.76584918219E+02  0.29884511834E+03  0.16053249735E+03  0.36955288817E+03  0.12500000000E+03 0.  0.
</event>
<event>
 4    0  0.2156764E-002  0.2786887E+03  0.7546771E-02  0.1096407E+00
         21   -1    0    0  502  501  0.00000000000E+00  0.00000000000E+00  0.54955130837E+02  0.54955130837E+02  0.00000000000E+00 0. -1.
         21   -1    0    0  501  502 -0.00000000000E+00 -0.00000000000E+00 -0.14132873180E+04  0.14132873180E+04  0.00000000000E+00 0. -1.
         25    1    1    2    0    0 -0.16649513450E+03 -0.20122167223E+02 -0.11642939726E+04  0.11829332128E+04  0.12500000000E+03 0.  0.
         25    1    1    2    0    0  0.16649513450E+03  0.20122167223E+02 -0.19403821455E+03  0.28530923597E+03  0.12500000000E+03 0.  0.
</event>
<event>
 4    0  0.2156764E-002  0.2676759E+03  0.7546771E-02  0.1102617E+00
         21   -1    0    0  502  501  0.00000000000E+00  0.00000000000E+00  0.77163420432E+03  0.77163420432E+03  0.00000000000E+00 0.  1.
         21   -1    0    0  501  502 -0.00000000000E+00 -0.00000000000E+00 -0.92855373536E+02  0.92855373536E+02  0.00000000000E+00 0.  1.
         25    1    1    2    0    0  0.84985016230E+02 -0.22082253037E+03  0.34964558219E+03  0.44029771297E+03  0.12500000000E+03 0.  0.
         25    1    1    2    0    0 -0.84985016230E+02  0.22082253037E+03  0.32913324859E+03  0.42419186488E+03  0.12500000000E+03 0.  0.
</event>
<event>
 4    0  0.2156764E-002  0.1874817E+03  0.7546771E-02  0.1160752E+00
         21   -1    0    0  502  501  0.00000000000E+00  0.00000000000E+00  0.35496872841E+02  0.35496872841E+02  0.00000000000E+00 0. -1.
         21   -1    0    0  501  502 -0.00000000000E+00 -0.00000000000E+00 -0.99021112808E+03  0.99021112808E+03  0.00000000000E+00 0. -1.
         25    1    1    2    0    0  0.59250265447E+02  0.11329703267E+03 -0.32315743104E+03  0.36932714063E+03  0.12500000000E+03 0.  0.
         25    1    1    2    0    0 -0.59250265447E+02 -0.11329703267E+03 -0.63155682419E+03  0.65638086029E+03  0.12500000000E+03 0.  0.
</event>
<event>
 4    0  0.2156764E-002  0.1576198E+03  0.7546771E-02  0.1191410E+00
         21   -1    0    0  502  501  0.00000000000E+00  0.00000000000E+00  0.37914934507E+02  0.37914934507E+02  0.00000000000E+00 0. -1.
         21   -1    0    0  501  502 -0.00000000000E+00 -0.00000000000E+00 -0.65525657688E+03  0.65525657688E+03  0.00000000000E+00 0. -1.
         25    1    1    2    0    0 -0.86775780909E+02  0.32185258350E+02 -0.36486406630E+03  0.39663171064E+03  0.12500000000E+03 0.  0.
         25    1    1    2    0    0  0.86775780909E+02 -0.32185258350E+02 -0.25247757607E+03  0.29653980074E+03  0.12500000000E+03 0.  0.
</event>
<event>
 4    0  0.2156764E-002  0.1936182E+03  0.7546771E-02  0.1155238E+00
         21   -1    0    0  502  501  0.00000000000E+00  0.00000000000E+00  0.61881545904E+02  0.61881545904E+02  0.00000000000E+00 0.  1.
         21   -1    0    0  501  502 -0.00000000000E+00 -0.00000000000E+00 -0.60580252891E+03  0.60580252891E+03  0.00000000000E+00 0.  1.
         25    1    1    2    0    0  0.60307028844E+01  0.11517494466E+03 -0.43149927533E+03  0.46380843230E+03  0.12500000000E+03 0.  0.
         25    1    1    2    0    0 -0.60307028844E+01 -0.11517494466E+03 -0.11242170767E+03  0.20387564251E+03  0.12500000000E+03 0.  0.
</event>
<event>
 4    0  0.2156764E-002  0.1637803E+03  0.7546771E-02  0.1184494E+00
         21   -1    0    0  502  501  0.00000000000E+00  0.00000000000E+00  0.57620166018E+03  0.57620166018E+03  0.00000000000E+00 0. -1.
         21   -1    0    0  501  502 -0.00000000000E+00 -0.00000000000E+00 -0.46553125678E+02  0.46553125678E+02  0.00000000000E+00 0. -1.
         25    1    1    2    0    0 -0.21869632777E+02  0.10316318628E+03  0.28162205490E+03  0.32566379235E+03  0.12500000000E+03 0.  0.
         25    1    1    2    0    0  0.21869632777E+02 -0.10316318628E+03  0.24802647960E+03  0.29709099351E+03  0.12500000000E+03 0.  0.
</event>
<event>
 4    0  0.2156764E-002  0.2272388E+03  0.7546771E-02  0.1128598E+00
         21   -1    0    0  502  501  0.00000000000E+00  0.00000000000E+00  0.55916159481E+03  0.55916159481E+03  0.00000000000E+00 0.  1.
         21   -1    0    0  501  502 -0.00000000000E+00 -0.00000000000E+00 -0.92348034125E+02  0.92348034125E+02  0.00000000000E+00 0.  1.
         25    1    1    2    0    0 -0.74139048688E+02  0.12302068977E+03  0.41119857837E+03  0.45314452386E+03  0.12500000000E+03 0.  0.
         25    1    1    2    0    0  0.74139048688E+02 -0.12302068977E+03  0.55614982317E+02  0.19836510507E+03  0.12500000000E+03 0.  0.
</event>
<event>
 4    0  0.2156764E-002  0.4193270E+03  0.7546771E-02  0.1037286E+00
         21   -1    0    0  502  501  0.00000000000E+00  0.00000000000E+00  0.30776134890E+03  0.30776134890E+03  0.00000000000E+00 0. -1.
         21   -1    0    0  501  502 -0.00000000000E+00 -0.00000000000E+00 -0.57133590312E+03  0.57133590312E+03  0.00000000000E+00 0. -1.
         25    1    1    2    0    0 -0.97488239605E+00 -0.38638633346E+03 -0.22275403711E+02  0.40671432565E+03  0.12500000000E+03 0.  0.
         25    1    1    2    0    0  0.97488239605E+00  0.38638633346E+03 -0.24129915051E+03  0.47238292636E+03  0.12500000000E+03 0.  0.
</event>
<event>
 4    0  0.2156764E-002  0.2814864E+03  0.7546771E-02  0.1094880E+00
         21   -1    0    0  502  501  0.00000000000E+00  0.00000000000E+00  0.40855038865E+03  0.40855038865E+03  0.00000000000E+00 0.  1.
         21   -1    0    0  501  502 -0.00000000000E+00 -0.00000000000E+00 -0.19394079844E+03  0.19394079844E+03  0.00000000000E+00 0.  1.
         25    1    1    2    0    0 -0.14216943496E+03 -0.44738644814E+02 -0.11043706693E+03  0.22368513658E+03  0.12500000000E+03 0.  0.
         25    1    1    2    0    0  0.14216943496E+03  0.44738644814E+02  0.32504665714E+03  0.37880605050E+03  0.12500000000E+03 0.  0.
</event>
<event>
 4    0  0.2156764E-002  0.1831566E+03  0.7546771E-02  0.1164783E+00
         21   -1    0    0  502  501  0.00000000000E+00  0.00000000000E+00  0.20045620297E+04  0.20045620297E+04  0.00000000000E+00 0. -1.
         21   -1    0    0  501  502 -0.00000000000E+00 -0.00000000000E+00 -0.16734999221E+02  0.16734999221E+02  0.00000000000E+00 0. -1.
         25    1    1    2    0    0  0.43096170158E+00 -0.57269317522E+02  0.16615938770E+04  0.16672729748E+04  0.12500000000E+03 0.  0.
         25    1    1    2    0    0 -0.43096170158E+00  0.57269317522E+02  0.32623315347E+03  0.35402405410E+03  0.12500000000E+03 0.  0.
</event>
<event>
 4    0  0.2156764E-002  0.1979892E+03  0.7546771E-02  0.1151447E+00
         21   -1    0    0  502  501  0.00000000000E+00  0.00000000000E+00  0.13820753625E+04  0.13820753625E+04  0.00000000000E+00 0. -1.
         21   -1    0    0  501  502 -0.00000000000E+00 -0.00000000000E+00 -0.28362947746E+02  0.28362947746E+02  0.00000000000E+00 0. -1.
         25    1    1    2    0    0  0.71896542403E+02 -0.64713192209E+02  0.11015726549E+04  0.11128540893E+04  0.12500000000E+03 0.  0.
         25    1    1    2    0    0 -0.71896542403E+02  0.64713192209E+02  0.25213975986E+03  0.29758422095E+03  0.12500000000E+03 0.  0.
</event>
<event>
 4    0  0.2156764E-002  0.2735044E+03  0.7546771E-02  0.1099291E+00
         21   -1    0    0  502  501  0.00000000000E+00  0.00000000000E+00  0.24068074090E+03  0.24068074090E+03  0.00000000000E+00 0. -1.
         21   -1    0    0  501  502 -0.00000000000E+00 -0.00000000000E+00 -0.31080457836E+03  0.31080457836E+03  0.00000000000E+00 0. -1.
         25    1    1    2    0    0 -0.15806523809E+03  0.18488375827E+03 -0.38704326893E+02  0.27620580820E+03  0.12500000000E+03 0.  0.
         25    1    1    2    0    0  0.15806523809E+03 -0.18488375827E+03 -0.31419510567E+02  0.27527951106E+03  0.12500000000E+03 0.  0.
</event>
<event>
 4    0  0.2156764E-002  0.1611232E+03  0.7546771E-02  0.1187434E+00
         21   -1    0    0  502  501  0.00000000000E+00  0.00000000000E+00  0.59303235484E+02  0.59303235484E+02  0.00000000000E+00 0. -1.
         21   -1    0    0  501  502 -0.00000000000E+00 -0.00000000000E+00 -0.43776194596E+03  0.43776194596E+03  0.00000000000E+00 0. -1.
         25    1    1    2    0    0 -0.35354214421E+02 -0.70231192306E+02 -0.28863816662E+03  0.32422111603E+03  0.12500000000E+03 0.  0.
         25    1    1    2    0    0  0.35354214421E+02  0.70231192306E+02 -0.89820543856E+02  0.17284406541E+03  0.12500000000E+03 0.  0.
</event>
<event>
 4    0  0.2156764E-002  0.1927381E+03  0.7546771E-02  0.1156015E+00
         21   -1    0    0  502  501  0.00000000000E+00  0.00000000000E+00  0.18846537750E+02  0.18846537750E+02  0.00000000000E+00 0. -1.
         21   -1    0    0  501  502 -0.00000000000E+00 -0.00000000000E+00 -0.19710770105E+04  0.19710770105E+04  0.00000000000E+00 0. -1.
         25    1    1    2    0    0 -0.14425707030E+03 -0.14352187895E+02 -0.10923391580E+04  0.11089841855E+04  0.12500000000E+03 0.  0.
         25    1    1    2    0    0  0.14425707030E+03  0.14352187895E+02 -0.85989131480E+03  0.88093936278E+03  0.12500000000E+03 0.  0.
</event>
<event>
 4    0  0.2156764E-002  0.2153356E+03  0.7546771E-02  0.1137409E+00
         21   -1    0    0  502  501  0.00000000000E+00  0.00000000000E+00  0.90738387748E+02  0.90738387748E+02  0.00000000000E+00 0. -1.
         21   -1    0    0  501  502 -0.00000000000E+00 -0.00000000000E+00 -0.51102332122E+03  0.51102332122E+03  0.00000000000E+00 0. -1.
         25    1    1    2    0    0 -0.46116873700E+02 -0.14054767425E+03 -0.34169341006E+03  0.39275921537E+03  0.12500000000E+03 0.  0.
         25    1    1    2    0    0  0.46116873700E+02  0.14054767425E+03 -0.78591523409E+02  0.20900249360E+03  0.12500000000E+03 0.  0.
</event>
<event>
 4    0  0.2156764E-002  0.1687760E+03  0.7546771E-02  0.1179130E+00
         21   -1    0    0  502  501  0.00000000000E+00  0.00000000000E+00  0.12832360074E+03  0.12832360074E+03  0.00000000000E+00 0. -1.
         21   -1    0    0  501  502 -0.00000000000E+00 -0.00000000000E+00 -0.22198055435E+03  0.22198055435E+03  0.00000000000E+00 0. -1.
         25    1    1    2    0    0 -0.79495342426E+02 -0.80843490672E+02 -0.44470052641E+02  0.17452153172E+03  0.12500000000E+03 0.  0.
         25    1    1    2    0    0  0.79495342426E+02  0.80843490672E+02 -0.49186900968E+02  0.17578262337E+03  0.12500000000E+03 0.  0.
</event>
<event>
 4    0  0.2156764E-002  0.3238073E+03  0.7546771E-02  0.1073910E+00
         21   -1    0    0  502  501  0.00000000000E+00  0.00000000000E+00  0.25106658709E+03  0.25106658709E+03  0.00000000000E+00 0.  1.
         21   -1    0    0  501  502 -0.00000000000E+00 -0.00000000000E+00 -0.41762297538E+03  0.41762297538E+03  0.00000000000E+00 0.  1.
         25    1    1    2    0    0 -0.19212246861E+03  0.12934520065E+03 -0.27805672473E+03  0.38285998230E+03  0.12500000000E+03 0.  0.
         25    1    1    2    0    0  0.19212246861E+03 -0.12934520065E+03  0.11150033643E+03  0.28582958017E+03  0.12500000000E+03 0.  0.
</event>
<event>
 4    0  0.2156764E-002  0.2390838E+03  0.7546771E-02  0.1120405E+00
         21   -1    0    0  502  501  0.00000000000E+00  0.00000000000E+00  0.40074203754E+02  0.40074203754E+02  0.00000000000E+00 0. -1.
         21   -1    0    0  501  502 -0.00000000000E+00 -0.00000000000E+00 -0.14263799292E+04  0.14263799292E+04  0.00000000000E+00 0. -1.
         25    1    1    2    0    0 -0.18053142052E+03 -0.68725788247E+02 -0.89240684828E+03  0.92159091284E+03  0.12500000000E+03 0.  0.
         25    1    1    2    0    0  0.18053142052E+03  0.68725788247E+02 -0.49389887712E+03  0.54486322008E+03  0.12500000000E+03 0.  0.
</event>
<event>
 4    0  0.2156764E-002  0.2004758E+03  0.7546771E-02  0.1149338E+00
         21   -1    0    0  502  501  0.00000000000E+00  0.00000000000E+00  0.33998216743E+03  0.33998216743E+03  0.00000000000E+00 0.  1.
         21   -1    0    0  501  502 -0.00000000000E+00 -0.00000000000E+00 -0.11821369793E+03  0.11821369793E+03  0.00000000000E+00 0.  1.
         25    1    1    2    0    0  0.17402025598E+02  0.63650171240E+02 -0.51579758503E+02  0.15046476757E+03  0.12500000000E+03 0.  0.
         25    1    1    2    0    0 -0.17402025598E+02 -0.63650171240E+02  0.27334822800E+03  0.30773109779E+03  0.12500000000E+03 0.  0.
</event>
<event>
 4    0  0.2156764E-002  0.2658352E+03  0.7546771E-02  0.1103687E+00
         21   -1    0    0  502  501  0.00000000000E+00  0.00000000000E+00  0.55293236626E+03  0.55293236626E+03  0.00000000000E+00 0. -1.
         21   -1    0    0  501  502 -0.00000000000E+00 -0.00000000000E+00 -0.12780653257E+03  0.12780653257E+03  0.00000000000E+00 0. -1.
         25    1    1    2    0    0  0.79016403771E+02 -0.11477578950E+02 -0.69899047470E+02  0.16397013057E+03  0.12500000000E+03 0.  0.
         25    1    1    2    0    0 -0.79016403771E+02  0.11477578950E+02  0.49502488116E+03  0.51676876826E+03  0.12500000000E+03 0.  0.
</event>
<event>
 4    0  0.2156764E-002  0.1931040E+03  0.7546771E-02  0.1155691E+00
         21   -1    0    0  502  501  0.00000000000E+00  0.00000000000E+00  0.50085178266E+02  0.50085178266E+02  0.00000000000E+00 0. -1.
         21   -1    0    0  501  502 -0.00000000000E+00 -0.00000000000E+00 -0.74451447849E+03  0.74451447849E+03  0.00000000000E+00 0. -1.
         25    1    1    2    0    0 -0.70611020708E+02 -0.36499643876E+02 -0.60208821319E+03  0.62004302811E+03  0.12500000000E+03 0.  0.
         25    1    1    2    0    0  0.70611020708E+02  0.36499643876E+02 -0.92341087032E+02  0.17455662864E+03  0.12500000000E+03 0.  0.
</event>
<event>
 4    0  0.2156764E-002  0.2424388E+03  0.7546771E-02  0.1118179E+00
         21   -1    0    0  502  501  0.00000000000E+00  0.00000000000E+00  0.23656705442E+03  0.23656705442E+03  0.00000000000E+00 0.  1.
         21   -1    0    0  501  502 -0.00000000000E+00 -0.00000000000E+00 -0.24845629007E+03  0.24845629007E+03  0.00000000000E+00 0.  1.
         25    1    1    2    0    0  0.18710493123E+03  0.58701312523E+02  0.62614098565E+02  0.24083111245E+03  0.12500000000E+03 0.  0.
         25    1    1    2    0    0 -0.18710493123E+03 -0.58701312523E+02 -0.74503334208E+02  0.24419223204E+03  0.12500000000E+03 0.  0.
</event>
<event>
 4    0  0.2156764E-002  0.2457181E+03  0.7546771E-02  0.1116041E+00
         21   -1    0    0  502  501  0.00000000000E+00  0.00000000000E+00  0.56941940033E+02  0.56941940033E+02  0.00000000000E+00 0. -1.
         21   -1    0    0  501  502 -0.00000000000E+00 -0.00000000000E+00 -0.10603322011E+04  0.10603322011E+04  0.00000000000E+00 0. -1.
         25    1    1    2    0    0 -0.16191382272E+03 -0.40761616078E+02 -0.20636233846E+03  0.29340758352E+03  0.12500000000E+03 0.  0.
         25    1    1    2    0    0  0.16191382272E+03  0.40761616078E+02 -0.79702792256E+03  0.82386655756E+03  0.12500000000E+03 0.  0.
</event>
<event>
 4    0  0.2156764E-002  0.2697058E+03  0.7546771E-02  0.1101448E+00
         21   -1    0    0  502  501  0.00000000000E+00  0.00000000000E+00  0.19630396276E+03  0.19630396276E+03  0.00000000000E+00 0.  1.
         21   -1    0    0  501  502 -0.00000000000E+00 -0.00000000000E+00 -0.37055397649E+03  0.37055397649E+03  0.00000000000E+00 0.  1.
         25    1    1    2    0    0 -0.70431618909E+02 -0.57369580681E+02  0.14517538895E+03  0.21202069542E+03  0.12500000000E+03 0.  0.
         25    1    1    2    0    0  0.70431618909E+02  0.57369580681E+02 -0.31942540268E+03  0.35483724383E+03  0.12500000000E+03 0.  0.
</event>
<event>
 4    0  0.2156764E-002  0.2677919E+03  0.7546771E-02  0.1102550E+00
         21   -1    0    0  502  501  0.00000000000E+00  0.00000000000E+00  0.20310060693E+04  0.20310060693E+04  0.00000000000E+00 0. -1.
         21   -1    0    0  501  502 -0.00000000000E+00 -0.00000000000E+00 -0.35308857591E+02  0.35308857591E+02  0.00000000000E+00 0. -1.
         25    1    1    2    0    0  0.18586220936E+03  0.97138999518E+02  0.57334341633E+03  0.62316002692E+03  0.12500000000E+03 0.  0.
         25    1    1    2    0    0 -0.18586220936E+03 -0.97138999518E+02  0.14223537954E+04  0.14431549000E+04  0.12500000000E+03 0.  0.
</event>
<event>
 4    0  0.2156764E-002  0.1572330E+03  0.7546771E-02  0.1191857E+00
         21   -1    0    0  502  501  0.00000000000E+00  0.00000000000E+00  0.77415402149E+02  0.77415402149E+02  0.00000000000E+00 0. -1.
         21   -1    0    0  501  502 -0.00000000000E+00 -0.00000000000E+00 -0.31934492587E+03  0.31934492587E+03  0.00000000000E+00 0. -1.
         25    1    1    2    0    0  0.60251837080E+02 -0.72971142534E+02 -0.10592228532E+03  0.18920782764E+03  0.12500000000E+03 0.  0.
         25    1    1    2    0    0 -0.60251837080E+02  0.72971142534E+02 -0.13600723840E+03  0.20755250038E+03  0.12500000000E+03 0.  0.
</event>
<event>
 4    0  0.2156764E-002  0.2521599E+03  0.7546771E-02  0.1111947E+00
         21   -1    0    0  502  501  0.00000000000E+00  0.00000000000E+00  0.57542720816E+03  0.57542720816E+03  0.00000000000E+00 0.  1.
         21   -1    0    0  501  502 -0.00000000000E+00 -0.00000000000E+00 -0.11049982430E+03  0.11049982430E+03  0.00000000000E+00 0.  1.
         25    1    1    2    0    0 -0.19541217468E+03 -0.33950212310E+02  0.10617847039E+03  0.25736628082E+03  0.12500000000E+03 0.  0.
         25    1    1    2    0    0  0.19541217468E+03  0.33950212310E+02  0.35874891347E+03  0.42856075164E+03  0.12500000000E+03 0.  0.
</event>
<event>
 4    0  0.2156764E-002  0.2352571E+03  0.7546771E-02  0.1122993E+00
         21   -1    0    0  502  501  0.00000000000E+00  0.00000000000E+00  0.78415119481E+02  0.78415119481E+02  0.00000000000E+00 0.  1.
         21   -1    0    0  501  502 -0.00000000000E+00 -0.00000000000E+00 -0.70580653452E+03  0.70580653452E+03  0.00000000000E+00 0.  1.
         25    1    1    2    0    0 -0.19566519282E+03  0.32420028870E+02 -0.34639843119E+03  0.41827359358E+03  0.12500000000E+03 0.  0.
         25    1    1    2    0    0  0.19566519282E+03 -0.32420028870E+02 -0.28099298385E+03  0.36594806042E+03  0.12500000000E+03 0.  0.
</event>
<event>
 4    0  0.2156764E-002  0.1833401E+03  0.7546771E-02  0.1164609E+00
         21   -1    0    0  502  501  0.00000000000E+00  0.00000000000E+00  0.36627775423E+03  0.36627775423E+03  0.00000000000E+00 0.  1.
         21   -1    0    0  501  502 -0.00000000000E+00 -0.00000000000E+00 -0.91770809610E+02  0.91770809610E+02  0.00000000000E+00 0.  1.
         25    1    1    2    0    0  0.10933544428E+03 -0.20398789638E+02  0.23088556745E+03  0.28513767772E+03  0.12500000000E+03 0.  0.
         25    1    1    2    0    0 -0.10933544428E+03  0.20398789638E+02  0.43621377168E+02  0.17291088613E+03  0.12500000000E+03 0.  0.
</event>
<event>
 4    0  0.2156764E-002  0.4268677E+03  0.7546771E-02  0.1034854E+00
         21   -1    0    0  502  501  0.00000000000E+00  0.00000000000E+00  0.15378459785E+03  0.15378459785E+03  0.00000000000E+00 0. -1.
         21   -1    0    0  501  502 -0.00000000000E+00 -0.00000000000E+00 -0.11848784255E+04  0.11848784255E+04  0.00000000000E+00 0.  1.
         25    1    1    2    0    0 -0.11614457411E+03 -0.32127416273E+03 -0.86575836481E+03  0.93907890828E+03  0.12500000000E+03 0.  0.
         25    1    1    2    0    0  0.11614457411E+03  0.32127416273E+03 -0.16533546282E+03  0.39958411505E+03  0.12500000000E+03 0.  0.
</event>
<event>
 4    0  0.2156764E-002  0.5036925E+03  0.7546771E-02  0.1012820E+00
         21   -1    0    0  502  501  0.00000000000E+00  0.00000000000E+00  0.12729192216E+04  0.12729192216E+04  0.00000000000E+00 0.  1.
         21   -1    0    0  501  502 -0.00000000000E+00 -0.00000000000E+00 -0.19931050437E+03  0.19931050437E+03  0.00000000000E+00 0. -1.
         25    1    1    2    0    0  0.41473552795E+03  0.16654521246E+03  0.82295619078E+03  0.94478820795E+03  0.12500000000E+03 0.  0.
         25    1    1    2    0    0 -0.41473552795E+03 -0.16654521246E+03  0.25065252650E+03  0.52744151807E+03  0.12500000000E+03 0.  0.
</event>
<event>
 4    0  0.2156764E-002  0.1809820E+03  0.7546771E-02  0.1166856E+00
         21   -1    0    0  502  501  0.00000000000E+00  0.00000000000E+00  0.82270617156E+03  0.82270617156E+03  0.00000000000E+00 0. -1.
         21   -1    0    0  501  502 -0.00000000000E+00 -0.00000000000E+00 -0.39813093034E+02  0.39813093034E+02  0.00000000000E+00 0. -1.
         25    1    1    2    0    0 -0.11051812683E+03 -0.48149426253E+00  0.22438951040E+03  0.27962499990E+03  0.12500000000E+03 0.  0.
         25    1    1    2    0    0  0.11051812683E+03  0.48149426253E+00  0.55850356813E+03  0.58289426469E+03  0.12500000000E+03 0.  0.
</event>
<event>
 4    0  0.2156764E-002  0.1973004E+03  0.7546771E-02  0.1152037E+00
         21   -1    0    0  502  501  0.00000000000E+00  0.00000000000E+00  0.49604427363E+03  0.49604427363E+03  0.00000000000E+00 0. -1.
         21   -1    0    0  501  502 -0.00000000000E+00 -0.00000000000E+00 -0.78475741310E+02  0.78475741310E+02  0.00000000000E+00 0. -1.
         25    1    1    2    0    0 -0.15296667707E+02  0.77705709145E+02  0.39878622895E+03  0.42535587650E+03  0.12500000000E+03 0.  0.
         25    1    1    2    0    0  0.15296667707E+02 -0.77705709145E+02  0.18782303375E+02  0.14916413844E+03  0.12500000000E+03 0.  0.
</event>
<event>
 4    0  0.2156764E-002  0.1798262E+03  0.7546771E-02  0.1167971E+00
         21   -1    0    0  502  501  0.00000000000E+00  0.00000000000E+00  0.10945288194E+03  0.10945288194E+03  0.00000000000E+00 0.  1.
         21   -1    0    0  501  502 -0.00000000000E+00 -0.00000000000E+00 -0.29544656209E+03  0.29544656209E+03  0.00000000000E+00 0.  1.
         25    1    1    2    0    0  0.78270619365E+02 -0.99740854279E+02 -0.12143211102E+03  0.21551168288E+03  0.12500000000E+03 0.  0.
         25    1    1    2    0    0 -0.78270619365E+02  0.99740854279E+02 -0.64561569119E+02  0.18938776115E+03  0.12500000000E+03 0.  0.
</event>
<event>
 4    0  0.2156764E-002  0.1776947E+03  0.7546771E-02  0.1170053E+00
         21   -1    0    0  502  501  0.00000000000E+00  0.00000000000E+00  0.64049245836E+02  0.64049245836E+02  0.00000000000E+00 0.  1.
         21   -1    0    0  501  502 -0.00000000000E+00 -0.00000000000E+00 -0.49298637248E+03  0.49298637248E+03  0.00000000000E+00 0.  1.
         25    1    1    2    0    0  0.61782444965E+02  0.97184232781E+02 -0.13319704940E+03  0.21593586913E+03  0.12500000000E+03 0.  0.
         25    1    1    2    0    0 -0.61782444965E+02 -0.97184232781E+02 -0.29574007725E+03  0.34109974919E+03  0.12500000000E+03 0.  0.
</event>
<event>
 4    0  0.2156764E-002  0.2031503E+03  0.7546771E-02  0.1147108E+00
         21   -1    0    0  502  501  0.00000000000E+00  0.00000000000E+00  0.17801061895E+03  0.17801061895E+03  0.00000000000E+00 0.  1.
         21   -1    0    0  501  502 -0.00000000000E+00 -0.00000000000E+00 -0.23184029981E+03  0.23184029981E+03  0.00000000000E+00 0.  1.
         25    1    1    2    0    0 -0.13087303849E+03 -0.82885125673E+02 -0.67856928506E+02  0.21030277936E+03  0.12500000000E+03 0.  0.
         25    1    1    2    0    0  0.13087303849E+03  0.82885125673E+02  0.14027247642E+02  0.19954813940E+03  0.12500000000E+03 0.  0.
</event>
<event>
 4    0  0.2156764E-002  0.2792528E+03  0.7546771E-02  0.1096098E+00
         21   -1    0    0  502  501  0.00000000000E+00  0.00000000000E+00  0.11590798621E+04  0.11590798621E+04  0.00000000000E+00 0.  1.
         21   -1    0    0  501  502 -0.00000000000E+00 -0.00000000000E+00 -0.67279332125E+02  0.67279332125E+02  0.00000000000E+00 0.  1.
         25    1    1    2    0    0 -0.18527531838E+03  0.65322642342E+02  0.20741327449E+03  0.31183209847E+03  0.12500000000E+03 0.  0.
         25    1    1    2    0    0  0.18527531838E+03 -0.65322642342E+02  0.88438725548E+03  0.91452709574E+03  0.12500000000E+03 0.  0.
</event>
<event>
 4    0  0.2156764E-002  0.2854193E+03  0.7546771E-02  0.1092765E+00
         21   -1    0    0  502  501  0.00000000000E+00  0.00000000000E+00  0.84677904123E+03  0.84677904123E+03  0.00000000000E+00 0.  1.
         21   -1    0    0  501  502 -0.00000000000E+00 -0.00000000000E+00 -0.96204791821E+02  0.96204791821E+02  0.00000000000E+00 0.  1.
         25    1    1    2    0    0  0.18182561017E+03  0.20525556756E+01  0.67434721621E+03  0.70953078404E+03  0.12500000000E+03 0.  0.
         25    1    1    2    0    0 -0.18182561017E+03 -0.20525556756E+01  0.76227033198E+02  0.23345304900E+03  0.12500000000E+03 0.  0.
</event>
<event>
 4    0  0.2156764E-002  0.2058794E+03  0.7546771E-02  0.1144871E+00
         21   -1    0    0  502  501  0.00000000000E+00  0.00000000000E+00  0.17157303909E+03  0.17157303909E+03  0.00000000000E+00 0.  1.
         21   -1    0    0  501  502 -0.00000000000E+00 -0.00000000000E+00 -0.24704547669E+03  0.24704547669E+03  0.00000000000E+00 0.  1.
         25    1    1    2    0    0 -0.86227105563E+02  0.11617875162E+03 -0.11535419704E+03  0.22330294856E+03  0.12500000000E+03 0.  0.
         25    1    1    2    0    0  0.86227105563E+02 -0.11617875162E+03  0.39881759442E+02  0.19531556722E+03  0.12500000000E+03 0.  0.
</event>
<event>
 4    0  0.2156764E-002  0.1732101E+03  0.7546771E-02  0.1174541E+00
         21   -1    0    0  502  501  0.00000000000E+00  0.00000000000E+00  0.17799011857E+03  0.17799011857E+03  0.00000000000E+00 0.  1.
         21   -1    0    0  501  502 -0.00000000000E+00 -0.00000000000E+00 -0.16855850814E+03  0.16855850814E+03  0.00000000000E+00 0.  1.
         25    1    1    2    0    0  0.11715402386E+03 -0.49592684590E+01 -0.20335223268E+02  0.17259252868E+03  0.12500000000E+03 0.  0.
         25    1    1    2    0    0 -0.11715402386E+03  0.49592684590E+01  0.29766833697E+02  0.17395609802E+03  0.12500000000E+03 0.  0.
</event>
<event>
 4    0  0.2156764E-002  0.3502321E+03  0.7546771E-02  0.1062520E+00
         21   -1    0    0  502  501  0.00000000000E+00  0.00000000000E+00  0.26640190151E+03  0.26640190151E+03  0.00000000000E+00 0.  1.
         21   -1    0    0  501  502 -0.00000000000E+00 -0.00000000000E+00 -0.46044167977E+03  0.46044167977E+03  0.00000000000E+00 0. -1.
         25    1    1    2    0    0  0.78969620852E+02 -0.20036467083E+03  0.15853812094E+03  0.29519745616E+03  0.12500000000E+03 0.  0.
         25    1    1    2    0    0 -0.78969620852E+02  0.20036467083E+03 -0.35257789920E+03  0.43164612512E+03  0.12500000000E+03 0.  0.
</event>
<event>
 4    0  0.2156764E-002  0.2751962E+03  0.7546771E-02  0.1098342E+00
         21   -1    0    0  502  501  0.00000000000E+00  0.00000000000E+00  0.10639799184E+03  0.10639799184E+03  0.00000000000E+00 0. -1.
         21   -1    0    0  501  502 -0.00000000000E+00 -0.00000000000E+00 -0.71178933520E+03  0.71178933520E+03  0.00000000000E+00 0. -1.
         25    1    1    2    0    0 -0.78329743737E+02 -0.22770973731E+03 -0.23423862777E+03  0.35844108018E+03  0.12500000000E+03 0.  0.
         25    1    1    2    0    0  0.78329743737E+02  0.22770973731E+03 -0.37115271559E+03  0.45974624687E+03  0.12500000000E+03 0.  0.
</event>
<event>
 4    0  0.2156764E-002  0.1862523E+03  0.7546771E-02  0.1161886E+00
         21   -1    0    0  502  501  0.00000000000E+00  0.00000000000E+00  0.93509281800E+02  0.93509281800E+02  0.00000000000E+00 0.  1.
         21   -1    0    0  501  502 -0.00000000000E+00 -0.00000000000E+00 -0.37097830735E+03  0.37097830735E+03  0.00000000000E+00 0.  1.
         25    1    1    2    0    0 -0.26161985718E+02 -0.12383937476E+03 -0.20753387779E+03  0.27334218604E+03  0.12500000000E+03 0.  0.
         25    1    1    2    0    0  0.26161985718E+02  0.12383937476E+03 -0.69935147759E+02  0.19114540311E+03  0.12500000000E+03 0.  0.
</event>
<event>
 4    0  0.2156764E-002  0.1729567E+03  0.7546771E-02  0.1174799E+00
         21   -1    0    0  502  501  0.00000000000E+00  0.00000000000E+00  0.37127065538E+02  0.37127065538E+02  0.00000000000E+00 0.  1.
         21   -1    0    0  501  502 -0.00000000000E+00 -0.00000000000E+00 -0.80572007659E+03  0.80572007659E+03  0.00000000000E+00 0.  1.
         25    1    1    2    0    0 -0.12539020814E+02 -0.93188381274E+02 -0.56413755669E+03  0.58542077544E+03  0.12500000000E+03 0.  0.
         25    1    1    2    0    0  0.12539020814E+02  0.93188381274E+02 -0.20445545435E+03  0.25742636668E+03  0.12500000000E+03 0.  0.
</event>
<event>
 4    0  0.2156764E-002  0.1836499E+03  0.7546771E-02  0.1164317E+00
         21   -1    0    0  502  501  0.00000000000E+00  0.00000000000E+00  0.38005984043E+02  0.38005984043E+02  0.00000000000E+00 0.  1.
         21   -1    0    0  501  502 -0.00000000000E+00 -0.00000000000E+00 -0.88742054542E+03  0.88742054542E+03  0.00000000000E+00 0.  1.
         25    1    1    2    0    0  0.78596007627E+02 -0.10814959896E+03 -0.38661112959E+03  0.42774622581E+03  0.12500000000E+03 0.  0.
         25    1    1    2    0    0 -0.78596007627E+02  0.10814959896E+03 -0.46280343179E+03  0.49768030366E+03  0.12500000000E+03 0.  0.
</event>
<event>
 4    0  0.2156764E-002  0.1730922E+03  0.7546771E-02  0.1174661E+00
         21   -1    0    0  502  501  0.00000000000E+00  0.00000000000E+00  0.25062312937E+03  0.25062312937E+03  0.00000000000E+00 0.  1.
         21   -1    0    0  501  502 -0.00000000000E+00 -0.00000000000E+00 -0.11954562774E+03  0.11954562774E+03  0.00000000000E+00 0.  1.
         25    1    1    2    0    0  0.64485741320E+02  0.71852095055E+02 -0.10182474389E+02  0.15827134037E+03  0.12500000000E+03 0.  0.
         25    1    1    2    0    0 -0.64485741320E+02 -0.71852095055E+02  0.14125997602E+03  0.21189741674E+03  0.12500000000E+03 0.  0.
</event>
<event>
 4    0  0.2156764E-002  0.1811175E+03  0.7546771E-02  0.1166726E+00
         21   -1    0    0  502  501  0.00000000000E+00  0.00000000000E+00  0.22101139065E+03  0.22101139065E+03  0.00000000000E+00 0. -1.
         21   -1    0    0  501  502 -0.00000000000E+00 -0.00000000000E+00 -0.14842464632E+03  0.14842464632E+03  0.00000000000E+00 0. -1.
         25    1    1    2    0    0 -0.10933846174E+03  0.16134436698E+02  0.10814473032E+03  0.19883536395E+03  0.12500000000E+03 0.  0.
         25    1    1    2    0    0  0.10933846174E+03 -0.16134436698E+02 -0.35557985988E+02  0.17060067301E+03  0.12500000000E+03 0.  0.
</event>
<event>
 4    0  0.2156764E-002  0.1849484E+03  0.7546771E-02  0.1163098E+00
         21   -1    0    0  502  501  0.00000000000E+00  0.00000000000E+00  0.63801385409E+02  0.63801385409E+02  0.00000000000E+00 0. -1.
         21   -1    0    0  501  502 -0.00000000000E+00 -0.00000000000E+00 -0.53613104793E+03  0.53613104793E+03  0.00000000000E+00 0. -1.
         25    1    1    2    0    0 -0.12118052832E+03  0.62404477063E+02 -0.23395024045E+03  0.29822265877E+03  0.12500000000E+03 0.  0.
         25    1    1    2    0    0  0.12118052832E+03 -0.62404477063E+02 -0.23837942207E+03  0.30170977457E+03  0.12500000000E+03 0.  0.
</event>
<event>
 4    0  0.2156764E-002  0.2757713E+03  0.7546771E-02  0.1098021E+00
         21   -1    0    0  502  501  0.00000000000E+00  0.00000000000E+00  0.75961019248E+03  0.75961019248E+03  0.00000000000E+00 0. -1.
         21   -1    0    0  501  502 -0.00000000000E+00 -0.00000000000E+00 -0.10011689377E+03  0.10011689377E+03  0.00000000000E+00 0. -1.
         25    1    1    2    0    0  0.73779770731E+02 -0.49593138063E+02 -0.27486429384E+02  0.15583144006E+03  0.12500000000E+03 0.  0.
         25    1    1    2    0    0 -0.73779770731E+02  0.49593138063E+02  0.68697972809E+03  0.70389564618E+03  0.12500000000E+03 0.  0.
</event>
<event>
 4    0  0.2156764E-002  0.3272537E+03  0.7546771E-02  0.1072359E+00
         21   -1    0    0  502  501  0.00000000000E+00  0.00000000000E+00  0.15019065454E+04  0.15019065454E+04  0.00000000000E+00 0.  1.
         21   -1    0    0  501  502 -0.00000000000E+00 -0.00000000000E+00 -0.71306005606E+02  0.71306005606E+02  0.00000000000E+00 0.  1.
         25    1    1    2    0    0 -0.82186046921E+02 -0.24484369899E+03  0.33702376700E+03  0.44262060816E+03  0.12500000000E+03 0.  0.
         25    1    1    2    0    0  0.82186046921E+02  0.24484369899E+03  0.10935767728E+04  0.11305919429E+04  0.12500000000E+03 0.  0.
</event>
<event>
 4    0  0.2156764E-002  0.2003333E+03  0.7546771E-02  0.1149458E+00
         21   -1    0    0  502  501  0.00000000000E+00  0.00000000000E+00  0.15022459820E+03  0.15022459820E+03  0.00000000000E+00 0. -1.
         21   -1    0    0  501  502 -0.00000000000E+00 -0.00000000000E+00 -0.26715631005E+03  0.26715631005E+03  0.00000000000E+00 0. -1.
         25    1    1    2    0    0 -0.21461666195E+02 -0.13211237369E+03 -0.14305785905E+03  0.23238940044E+03  0.12500000000E+03 0.  0.
         25    1    1    2    0    0  0.21461666195E+02  0.13211237369E+03  0.26126147204E+02  0.18499150782E+03  0.12500000000E+03 0.  0.
</event>
<event>
 4    0  0.2156764E-002  0.2911264E+03  0.7546771E-02  0.1089763E+00
         21   -1    0    0  502  501  0.00000000000E+00  0.00000000000E+00  0.61133358846E+02  0.61133358846E+02  0.00000000000E+00 0. -1.
         21   -1    0    0  501  502 -0.00000000000E+00 -0.00000000000E+00 -0.13863883145E+04  0.13863883145E+04  0.00000000000E+00 0. -1.
         25    1    1    2    0    0  0.31977636679E+02  0.24191359448E+02 -0.13086318502E+04  0.13151996466E+04  0.12500000000E+03 0.  0.
         25    1    1    2    0    0 -0.31977636679E+02 -0.24191359448E+02 -0.16623105446E+02  0.13232202672E+03  0.12500000000E+03 0.  0.
</event>
<event>
 4    0  0.2156764E-002  0.2418737E+03  0.7546771E-02  0.1118551E+00
         21   -1    0    0  502  501  0.00000000000E+00  0.00000000000E+00  0.78198225320E+02  0.78198225320E+02  0.00000000000E+00 0.  1.
         21   -1    0    0  501  502 -0.00000000000E+00 -0.00000000000E+00 -0.74813572531E+03  0.74813572531E+03  0.00000000000E+00 0.  1.
         25    1    1    2    0    0  0.12570437021E+02 -0.20588457299E+03 -0.36606596896E+03  0.43837856576E+03  0.12500000000E+03 0.  0.
         25    1    1    2    0    0 -0.12570437021E+02  0.20588457299E+03 -0.30387153103E+03  0.38795538487E+03  0.12500000000E+03 0.  0.
</event>
<event>
 4    0  0.2156764E-002  0.2554633E+03  0.7546771E-02  0.1109900E+00
         21   -1    0    0  502  501  0.00000000000E+00  0.00000000000E+00  0.17549479819E+03  0.17549479819E+03  0.00000000000E+00 0.  1.
         21   -1    0    0  501  502 -0.00000000000E+00 -0.00000000000E+00 -0.37187135400E+03  0.37187135400E+03  0.00000000000E+00 0.  1.
         25    1    1    2    0    0 -0.12208198422E+02 -0.14249838979E+03 -0.28119811326E+03  0.33934084649E+03  0.12500000000E+03 0.  0.
         25    1    1    2    0    0  0.12208198422E+02  0.14249838979E+03  0.84821557454E+02  0.20802530570E+03  0.12500000000E+03 0.  0.
</event>
<event>
 4    0  0.2156764E-002  0.1847114E+03  0.7546771E-02  0.1163320E+00
         21   -1    0    0  502  501  0.00000000000E+00  0.00000000000E+00  0.55913350658E+02  0.55913350658E+02  0.00000000000E+00 0.  1.
         21   -1    0    0  501  502 -0.00000000000E+00 -0.00000000000E+00 -0.61019965869E+03  0.61019965869E+03  0.00000000000E+00 0.  1.
         25    1    1    2    0    0 -0.29157870403E+02  0.72682428824E+02 -0.76677360046E+02  0.16624480266E+03  0.12500000000E+03 0.  0.
         25    1    1    2    0    0  0.29157870403E+02 -0.72682428824E+02 -0.47760894799E+03  0.49986820669E+03  0.12500000000E+03 0.  0.
</event>
<event>
 4    0  0.2156764E-002  0.4322088E+03  0.7546771E-02  0.1033164E+00
         21   -1    0    0  502  501  0.00000000000E+00  0.00000000000E+00  0.93838843139E+03  0.93838843139E+03  0.00000000000E+00 0. -1.
         21   -1    0    0  501  502 -0.00000000000E+00 -0.00000000000E+00 -0.19906944566E+03  0.19906944566E+03  0.00000000000E+00 0. -1.
         25    1    1    2    0    0  0.23940587505E+03 -0.31675096651E+03  0.52273673176E+03  0.66822529024E+03  0.12500000000E+03 0.  0.
         25    1    1    2    0    0 -0.23940587505E+03  0.31675096651E+03  0.21658225397E+03  0.46923258681E+03  0.12500000000E+03 0.  0.
</event>
<event>
 4    0  0.2156764E-002  0.1853234E+03  0.7546771E-02  0.1162748E+00
         21   -1    0    0  502  501  0.00000000000E+00  0.00000000000E+00  0.46852641696E+03  0.46852641696E+03  0.00000000000E+00 0. -1.
         21   -1    0    0  501  502 -0.00000000000E+00 -0.00000000000E+00 -0.73303825363E+02  0.73303825363E+02  0.00000000000E+00 0. -1.
         25    1    1    2    0    0  0.25132505612E+02 -0.12888079897E+03  0.25380941807E+03  0.31190723602E+03  0.12500000000E+03 0.  0.
         25    1    1    2    0    0 -0.25132505612E+02  0.12888079897E+03  0.14141317354E+03  0.22992300631E+03  0.12500000000E+03 0.  0.
</event>
<event>
 4    0  0.2156764E-002  0.1724455E+03  0.7546771E-02  0.1175321E+00
         21   -1    0    0  502  501  0.00000000000E+00  0.00000000000E+00  0.17737150390E+03  0.17737150390E+03  0.00000000000E+00 0. -1.
         21   -1    0    0  501  502 -0.00000000000E+00 -0.00000000000E+00 -0.16765629836E+03  0.16765629836E+03  0.00000000000E+00 0. -1.
         25    1    1    2    0    0  0.78115165991E+02 -0.79857873176E+02 -0.35571181891E+02  0.17137551764E+03  0.12500000000E+03 0.  0.
         25    1    1    2    0    0 -0.78115165991E+02  0.79857873176E+02  0.45286387440E+02  0.17365228462E+03  0.12500000000E+03 0.  0.
</event>
<event>
 4    0  0.2156764E-002  0.2494346E+03  0.7546771E-02  0.1113663E+00
         21   -1    0    0  502  501  0.00000000000E+00  0.00000000000E+00  0.87791358685E+02  0.87791358685E+02  0.00000000000E+00 0. -1.
         21   -1    0    0  501  502 -0.00000000000E+00 -0.00000000000E+00 -0.70869842936E+03  0.70869842936E+03  0.00000000000E+00 0. -1.
         25    1    1    2    0    0 -0.12699632145E+03  0.38345277239E+02 -0.58231581354E+03  0.61017631276E+03  0.12500000000E+03 0.  0.
         25    1    1    2    0    0  0.12699632145E+03 -0.38345277239E+02 -0.38591257136E+02  0.18631347529E+03  0.12500000000E+03 0.  0.
</event>
<event>
 4    0  0.2156764E-002  0.3251354E+03  0.7546771E-02  0.1073310E+00
         21   -1    0    0  502  501  0.00000000000E+00  0.00000000000E+00  0.37783120415E+03  0.37783120415E+03  0.00000000000E+00 0. -1.
         21   -1    0    0  501  502 -0.00000000000E+00 -0.00000000000E+00 -0.27978910441E+03  0.27978910441E+03  0.00000000000E+00 0. -1.
         25    1    1    2    0    0  0.34562185577E+02 -0.28669044724E+03  0.13181264799E+03  0.34115323739E+03  0.12500000000E+03 0.  0.
         25    1    1    2    0    0 -0.34562185577E+02  0.28669044724E+03 -0.33770548244E+02  0.31646707117E+03  0.12500000000E+03 0.  0.
</event>
<event>
 4    0  0.2156764E-002  0.2105461E+03  0.7546771E-02  0.1141134E+00
         21   -1    0    0  502  501  0.00000000000E+00  0.00000000000E+00  0.18086215936E+03  0.18086215936E+03  0.00000000000E+00 0. -1.
         21   -1    0    0  501  502 -0.00000000000E+00 -0.00000000000E+00 -0.24510182636E+03  0.24510182636E+03  0.00000000000E+00 0. -1.
         25    1    1    2    0    0  0.62185690216E+02  0.47560161331E+02  0.11987035967E+03  0.19006033816E+03  0.12500000000E+03 0.  0.
         25    1    1    2    0    0 -0.62185690216E+02 -0.47560161331E+02 -0.18411002667E+03  0.23590364756E+03  0.12500000000E+03 0.  0.
</event>
<event>
 4    0  0.2156764E-002  0.1820029E+03  0.7546771E-02  0.1165879E+00
         21   -1    0    0  502  501  0.00000000000E+00  0.00000000000E+00  0.61312505691E+03  0.61312505691E+03  0.00000000000E+00 0.  1.
         21   -1    0    0  501  502 -0.00000000000E+00 -0.00000000000E+00 -0.54026559712E+02  0.54026559712E+02  0.00000000000E+00 0.  1.
         25    1    1    2    0    0  0.52997204618E+02  0.12086923428E+03  0.26295633516E+03  0.31967031406E+03  0.12500000000E+03 0.  0.
         25    1    1    2    0    0 -0.52997204618E+02 -0.12086923428E+03  0.29614216204E+03  0.34748130257E+03  0.12500000000E+03 0.  0.
</event>
<event>
 4    0  0.2156764E-002  0.1913571E+03  0.7546771E-02  0.1157243E+00
         21   -1    0    0  502  501  0.00000000000E+00  0.00000000000E+00  0.11851092230E+03  0.11851092230E+03  0.00000000000E+00 0.  1.
         21   -1    0    0  501  502 -0.00000000000E+00 -0.00000000000E+00 -0.30898029445E+03  0.30898029445E+03  0.00000000000E+00 0.  1.
         25    1    1    2    0    0 -0.11365593573E+03  0.36092862803E+02 -0.18715608991E+03  0.25470133189E+03  0.12500000000E+03 0.  0.
         25    1    1    2    0    0  0.11365593573E+03 -0.36092862803E+02 -0.33132822371E+01  0.17278988487E+03  0.12500000000E+03 0.  0.
</event>
<event>
 4    0  0.2156764E-002  0.2674579E+03  0.7546771E-02  0.1102743E+00
         21   -1    0    0  502  501  0.00000000000E+00  0.00000000000E+00  0.18564872952E+04  0.18564872952E+04  0.00000000000E+00 0. -1.
         21   -1    0    0  501  502 -0.00000000000E+00 -0.00000000000E+00 -0.38531760925E+02  0.38531760925E+02  0.00000000000E+00 0. -1.
         25    1    1    2    0    0  0.13352889331E+02 -0.18364077064E+02  0.75188428571E+02  0.14762736457E+03  0.12500000000E+03 0.  0.
         25    1    1    2    0    0 -0.13352889331E+02  0.18364077064E+02  0.17427671057E+04  0.17473916915E+04  0.12500000000E+03 0.  0.
</event>
<event>
 4    0  0.2156764E-002  0.3306959E+03  0.7546771E-02  0.1070829E+00
         21   -1    0    0  502  501  0.00000000000E+00  0.00000000000E+00  0.57112861031E+02  0.57112861031E+02  0.00000000000E+00 0. -1.
         21   -1    0    0  501  502 -0.00000000000E+00 -0.00000000000E+00 -0.19148013147E+04  0.19148013147E+04  0.00000000000E+00 0. -1.
         25    1    1    2    0    0 -0.23524908890E+03 -0.19103504137E+03 -0.10587436150E+04  0.11083318832E+04  0.12500000000E+03 0.  0.
         25    1    1    2    0    0  0.23524908890E+03  0.19103504137E+03 -0.79894483863E+03  0.86358229257E+03  0.12500000000E+03 0.  0.
</event>
<event>
 4    0  0.2156764E-002  0.3525289E+03  0.7546771E-02  0.1061582E+00
         21   -1    0    0  502  501  0.00000000000E+00  0.00000000000E+00  0.14840873621E+03  0.14840873621E+03  0.00000000000E+00 0.  1.
         21   -1    0    0  501  502 -0.00000000000E+00 -0.00000000000E+00 -0.83739420672E+03  0.83739420672E+03  0.00000000000E+00 0.  1.
         25    1    1    2    0    0  0.16764983102E+03 -0.12586557585E+03  0.11161215311E+02  0.24433211363E+03  0.12500000000E+03 0.  0.
         25    1    1    2    0    0 -0.16764983102E+03  0.12586557585E+03 -0.70014668582E+03  0.74147082929E+03  0.12500000000E+03 0.  0.
</event>
<event>
 4    0  0.2156764E-002  0.2652951E+03  0.7546771E-02  0.1104003E+00
         21   -1    0    0  502  501  0.00000000000E+00  0.00000000000E+00  0.10288222934E+04  0.10288222934E+04  0.00000000000E+00 0. -1.
         21   -1    0    0  501  502 -0.00000000000E+00 -0.00000000000E+00 -0.68409758955E+02  0.68409758955E+02  0.00000000000E+00 0. -1.
         25    1    1    2    0    0 -0.83543358813E+02  0.21855179301E+03  0.48740143488E+03  0.55491399131E+03  0.12500000000E+03 0.  0.
         25    1    1    2    0    0  0.83543358813E+02 -0.21855179301E+03  0.47301109962E+03  0.54231806110E+03  0.12500000000E+03 0.  0.
</event>
<event>
 4    0  0.2156764E-002  0.3528557E+03  0.7546771E-02  0.1061449E+00
         21   -1    0    0  502  501  0.00000000000E+00  0.00000000000E+00  0.77341995533E+03  0.77341995533E+03  0.00000000000E+00 0.  1.
         21   -1    0    0  501  502 -0.00000000000E+00 -0.00000000000E+00 -0.16098262891E+03  0.16098262891E+03  0.00000000000E+00 0.  1.
         25    1    1    2    0    0  0.54773585463E+02  0.24546766405E+03  0.23391622588E+02  0.28182740776E+03  0.12500000000E+03 0.  0.
         25    1    1    2    0    0 -0.54773585463E+02 -0.24546766405E+03  0.58904570383E+03  0.65257517648E+03  0.12500000000E+03 0.  0.
</event>
<event>
 4    0  0.2156764E-002  0.2311677E+03  0.7546771E-02  0.1125821E+00
         21   -1    0    0  502  501  0.00000000000E+00  0.00000000000E+00  0.22554419288E+03  0.22554419288E+03  0.00000000000E+00 0. -1.
         21   -1    0    0  501  502 -0.00000000000E+00 -0.00000000000E+00 -0.23693135161E+03  0.23693135161E+03  0.00000000000E+00 0. -1.
         25    1    1    2    0    0  0.85609176194E+02 -0.17412625116E+03 -0.18527438024E+02  0.23155376989E+03  0.12500000000E+03 0.  0.
         25    1    1    2    0    0 -0.85609176194E+02  0.17412625116E+03  0.71402793002E+01  0.23092177459E+03  0.12500000000E+03 0.  0.
</event>
<event>
 4    0  0.2156764E-002  0.1673377E+03  0.7546771E-02  0.1180653E+00
         21   -1    0    0  502  501  0.00000000000E+00  0.00000000000E+00  0.94439634257E+02  0.94439634257E+02  0.00000000000E+00 0.  1.
         21   -1    0    0  501  502 -0.00000000000E+00 -0.00000000000E+00 -0.29650583807E+03  0.29650583807E+03  0.00000000000E+00 0.  1.
         25    1    1    2    0    0 -0.82486476984E+01 -0.11094464866E+03 -0.10148195574E+03  0.19570473320E+03  0.12500000000E+03 0.  0.
         25    1    1    2    0    0  0.82486476984E+01  0.11094464866E+03 -0.10058424807E+03  0.19524073913E+03  0.12500000000E+03 0.  0.
</event>
<event>
 4    0  0.2156764E-002  0.2260494E+03  0.7546771E-02  0.1129452E+00
         21   -1    0    0  502  501  0.00000000000E+00  0.00000000000E+00  0.28873622209E+03  0.28873622209E+03  0.00000000000E+00 0.  1.
         21   -1    0    0  501  502 -0.00000000000E+00 -0.00000000000E+00 -0.17697238331E+03  0.17697238331E+03  0.00000000000E+00 0.  1.
         25    1    1    2    0    0 -0.78932912894E+02 -0.72067264353E+02 -0.10386466432E+03  0.19451725842E+03  0.12500000000E+03 0.  0.
         25    1    1    2    0    0  0.78932912894E+02  0.72067264353E+02  0.21562850309E+03  0.27119134698E+03  0.12500000000E+03 0.  0.
</event>
<event>
 4    0  0.2156764E-002  0.1888265E+03  0.7546771E-02  0.1159524E+00
         21   -1    0    0  502  501  0.00000000000E+00  0.00000000000E+00  0.20178129789E+02  0.20178129789E+02  0.00000000000E+00 0.  1.
         21   -1    0    0  501  502 -0.00000000000E+00 -0.00000000000E+00 -0.17670334920E+04  0.17670334920E+04  0.00000000000E+00 0.  1.
         25    1    1    2    0    0 -0.76291973168E+01 -0.10990797635E+03 -0.45300182071E+03  0.48267340665E+03  0.12500000000E+03 0.  0.
         25    1    1    2    0    0  0.76291973168E+01  0.10990797635E+03 -0.12938535415E+04  0.13045382151E+04  0.12500000000E+03 0.  0.
</event>
<event>
 4    0  0.2156764E-002  0.2145006E+03  0.7546771E-02  0.1138051E+00
         21   -1    0    0  502  501  0.00000000000E+00  0.00000000000E+00  0.78520266930E+03  0.78520266930E+03  0.00000000000E+00 0. -1.
         21   -1    0    0  501  502 -0.00000000000E+00 -0.00000000000E+00 -0.58596994057E+02  0.58596994057E+02  0.00000000000E+00 0. -1.
         25    1    1    2    0    0  0.88971781081E+02 -0.86344017290E+02  0.60431147453E+03  0.62943516378E+03  0.12500000000E+03 0.  0.
         25    1    1    2    0    0 -0.88971781081E+02  0.86344017290E+02  0.12229420070E+03  0.21436449957E+03  0.12500000000E+03 0.  0.
</event>
<event>
 4    0  0.2156764E-002  0.2740709E+03  0.7546771E-02  0.1098972E+00
         21   -1    0    0  502  501  0.00000000000E+00  0.00000000000E+00  0.15576993755E+04  0.15576993755E+04  0.00000000000E+00 0. -1.
         21   -1    0    0  501  502 -0.00000000000E+00 -0.00000000000E+00 -0.48221649032E+02  0.48221649032E+02  0.00000000000E+00 0. -1.
         25    1    1    2    0    0  0.14361862386E+03  0.13383992721E+03  0.11787990190E+04  0.12015538117E+04  0.12500000000E+03 0.  0.
         25    1    1    2    0    0 -0.14361862386E+03 -0.13383992721E+03  0.33067870746E+03  0.40436721282E+03  0.12500000000E+03 0.  0.
</event>
<event>
 4    0  0.2156764E-002  0.2088504E+03  0.7546771E-02  0.1142480E+00
         21   -1    0    0  502  501  0.00000000000E+00  0.00000000000E+00  0.38371528878E+03  0.38371528878E+03  0.00000000000E+00 0.  1.
         21   -1    0    0  501  502 -0.00000000000E+00 -0.00000000000E+00 -0.11367413020E+03  0.11367413020E+03  0.00000000000E+00 0.  1.
         25    1    1    2    0    0 -0.16486700294E+03  0.85207587810E+01  0.10263292863E+03  0.23111090417E+03  0.12500000000E+03 0.  0.
         25    1    1    2    0    0  0.16486700294E+03 -0.85207587810E+01  0.16740822996E+03  0.26627851480E+03  0.12500000000E+03 0.  0.
</event>
<event>
 4    0  0.2156764E-002  0.1604706E+03  0.7546771E-02  0.1188167E+00
         21   -1    0    0  502  501  0.00000000000E+00  0.00000000000E+00  0.51738428000E+03  0.51738428000E+03  0.00000000000E+00 0.  1.
         21   -1    0    0  501  502 -0.00000000000E+00 -0.00000000000E+00 -0.49771133679E+02  0.49771133679E+02  0.00000000000E+00 0.  1.
         25    1    1    2    0    0 -0.10607490485E+02  0.67188850172E+02  0.36485030840E+03  0.39162176648E+03  0.12500000000E+03 0.  0.
         25    1    1    2    0    0  0.10607490485E+02 -0.67188850172E+02  0.10276283793E+03  0.17553364720E+03  0.12500000000E+03 0.  0.
</event>
<event>
 4    0  0.2156764E-002  0.2045622E+03  0.7546771E-02  0.1145946E+00
         21   -1    0    0  502  501  0.00000000000E+00  0.00000000000E+00  0.25576422664E+03  0.25576422664E+03  0.00000000000E+00 0. -1.
         21   -1    0    0  501  502 -0.00000000000E+00 -0.00000000000E+00 -0.16361043733E+03  0.16361043733E+03  0.00000000000E+00 0. -1.
         25    1    1    2    0    0 -0.11788366904E+03  0.85485571755E+02  0.11867761068E+03  0.22564068269E+03  0.12500000000E+03 0.  0.
         25    1    1    2    0    0  0.11788366904E+03 -0.85485571755E+02 -0.26523821378E+02  0.19373398129E+03  0.12500000000E+03 0.  0.
</event>
<event>
 4    0  0.2156764E-002  0.2099461E+03  0.7546771E-02  0.1141609E+00
         21   -1    0    0  502  501  0.00000000000E+00  0.00000000000E+00  0.19718519765E+04  0.19718519765E+04  0.00000000000E+00 0.  1.
         21   -1    0    0  501  502 -0.00000000000E+00 -0.00000000000E+00 -0.22353276918E+02  0.22353276918E+02  0.00000000000E+00 0.  1.
         25    1    1    2    0    0  0.63123579570E+02  0.14854366717E+03  0.12075412977E+04  0.12246757910E+04  0.12500000000E+03 0.  0.
         25    1    1    2    0    0 -0.63123579570E+02 -0.14854366717E+03  0.74195740184E+03  0.76952946240E+03  0.12500000000E+03 0.  0.
</event>
<event>
 4    0  0.2156764E-002  0.2763356E+03  0.7546771E-02  0.1097707E+00
         21   -1    0    0  502  501  0.00000000000E+00  0.00000000000E+00  0.18909115597E+04  0.18909115597E+04  0.00000000000E+00 0. -1.
         21   -1    0    0  501  502 -0.00000000000E+00 -0.00000000000E+00 -0.40383361348E+02  0.40383361348E+02  0.00000000000E+00 0. -1.
         25    1    1    2    0    0 -0.60102635982E+02 -0.10813646467E+03  0.18043656078E+03  0.25196859786E+03  0.12500000000E+03 0.  0.
         25    1    1    2    0    0  0.60102635982E+02  0.10813646467E+03  0.16700916376E+04  0.16793263232E+04  0.12500000000E+03 0.  0.
</event>
<event>
 4    0  0.2156764E-002  0.1993108E+03  0.7546771E-02  0.1150322E+00
         21   -1    0    0  502  501  0.00000000000E+00  0.00000000000E+00  0.82598934075E+03  0.82598934075E+03  0.00000000000E+00 0.  1.
         21   -1    0    0  501  502 -0.00000000000E+00 -0.00000000000E+00 -0.48093609431E+02  0.48093609431E+02  0.00000000000E+00 0.  1.
         25    1    1    2    0    0 -0.57415360184E+02  0.21048980601E+02  0.70183163757E+03  0.71549439597E+03  0.12500000000E+03 0.  0.
         25    1    1    2    0    0  0.57415360184E+02 -0.21048980601E+02  0.76064093752E+02  0.15858855421E+03  0.12500000000E+03 0.  0.
</event>
<event>
 4    0  0.2156764E-002  0.2713217E+03  0.7546771E-02  0.1100526E+00
         21   -1    0    0  502  501  0.00000000000E+00  0.00000000000E+00  0.19824213678E+04  0.19824213678E+04  0.00000000000E+00 0. -1.
         21   -1    0    0  501  502 -0.00000000000E+00 -0.00000000000E+00 -0.37134107338E+02  0.37134107338E+02  0.00000000000E+00 0. -1.
         25    1    1    2    0    0  0.38154023899E+02 -0.90024045501E+02  0.15361271781E+03  0.22086630658E+03  0.12500000000E+03 0.  0.
         25    1    1    2    0    0 -0.38154023899E+02  0.90024045501E+02  0.17916745426E+04  0.17986891685E+04  0.12500000000E+03 0.  0.
</event>
<event>
 4    0  0.2156764E-002  0.3020113E+03  0.7546771E-02  0.1084239E+00
         21   -1    0    0  502  501  0.00000000000E+00  0.00000000000E+00  0.31020272402E+03  0.31020272402E+03  0.00000000000E+00 0. -1.
         21   -1    0    0  501  502 -0.00000000000E+00 -0.00000000000E+00 -0.29403618979E+03  0.29403618979E+03  0.00000000000E+00 0. -1.
         25    1    1    2    0    0 -0.25301822439E+02 -0.13155505856E+03  0.24825029488E+03  0.30854517426E+03  0.12500000000E+03 0.  0.
         25    1    1    2    0    0  0.25301822439E+02  0.13155505856E+03 -0.23208376066E+03  0.29569373955E+03  0.12500000000E+03 0.  0.
</event>
<event>
 4    0  0.2156764E-002  0.1798601E+03  0.7546771E-02  0.1167939E+00
         21   -1    0    0  502  501  0.00000000000E+00  0.00000000000E+00  0.39922011922E+02  0.39922011922E+02  0.00000000000E+00 0.  1.
         21   -1    0    0  501  502 -0.00000000000E+00 -0.00000000000E+00 -0.81032103802E+03  0.81032103802E+03  0.00000000000E+00 0.  1.
         25    1    1    2    0    0  0.52702036037E+02 -0.11777297449E+03 -0.40589546697E+03  0.44387397787E+03  0.12500000000E+03 0.  0.
         25    1    1    2    0    0 -0.52702036037E+02  0.11777297449E+03 -0.36450355912E+03  0.40636907207E+03  0.12500000000E+03 0.  0.
</event>
<event>
 4    0  0.2156764E-002  0.2028762E+03  0.7546771E-02  0.1147335E+00
         21   -1    0    0  502  501  0.00000000000E+00  0.00000000000E+00  0.88730988371E+03  0.88730988371E+03  0.00000000000E+00 0. -1.
         21   -1    0    0  501  502 -0.00000000000E+00 -0.00000000000E+00 -0.46385997792E+02  0.46385997792E+02  0.00000000000E+00 0. -1.
         25    1    1    2    0    0  0.16804846114E+02  0.14598561488E+03  0.27602850842E+03  0.33676540806E+03  0.12500000000E+03 0.  0.
         25    1    1    2    0    0 -0.16804846114E+02 -0.14598561488E+03  0.56489537749E+03  0.59693047343E+03  0.12500000000E+03 0.  0.
</event>
<event>
 4    0  0.2156764E-002  0.3403998E+03  0.7546771E-02  0.1066626E+00
         21   -1    0    0  502  501  0.00000000000E+00  0.00000000000E+00  0.12760462556E+04  0.12760462556E+04  0.00000000000E+00 0. -1.
         21   -1    0    0  501  502 -0.00000000000E+00 -0.00000000000E+00 -0.90805530104E+02  0.90805530104E+02  0.00000000000E+00 0.  1.
         25    1    1    2    0    0  0.96980688646E+02 -0.22647312603E+03  0.19333371210E+03  0.33719171849E+03  0.12500000000E+03 0.  0.
         25    1    1    2    0    0 -0.96980688646E+02  0.22647312603E+03  0.99190701342E+03  0.10296600672E+04  0.12500000000E+03 0.  0.
</event>
<event>
 4    0  0.2156764E-002  0.3843070E+03  0.7546771E-02  0.1049353E+00
         21   -1    0    0  502  501  0.00000000000E+00  0.00000000000E+00  0.19455449970E+03  0.19455449970E+03  0.00000000000E+00 0.  1.
         21   -1    0    0  501  502 -0.00000000000E+00 -0.00000000000E+00 -0.75912867821E+03  0.75912867821E+03  0.00000000000E+00 0.  1.
         25    1    1    2    0    0  0.29002942346E+03 -0.13986608423E+03 -0.73233357465E+02  0.35308315258E+03  0.12500000000E+03 0.  0.
         25    1    1    2    0    0 -0.29002942346E+03  0.13986608423E+03 -0.49134082105E+03  0.60060002533E+03  0.12500000000E+03 0.  0.
</event>
<event>
 4    0  0.2156764E-002  0.2064051E+03  0.7546771E-02  0.1144445E+00
         21   -1    0    0  502  501  0.00000000000E+00  0.00000000000E+00  0.81099284163E+02  0.81099284163E+02  0.00000000000E+00 0. -1.
         21   -1    0    0  501  502 -0.00000000000E+00 -0.00000000000E+00 -0.52531987551E+03  0.52531987551E+03  0.00000000000E+00 0. -1.
         25    1    1    2    0    0 -0.10110950335E+03 -0.12937404254E+03 -0.22821882188E+03  0.30768426221E+03  0.12500000000E+03 0.  0.
         25    1    1    2    0    0  0.10110950335E+03  0.12937404254E+03 -0.21600176946E+03  0.29873489746E+03  0.12500000000E+03 0.  0.
</event>
<event>
 4    0  0.2156764E-002  0.2149351E+03  0.7546771E-02  0.1137716E+00
         21   -1    0    0  502  501  0.00000000000E+00  0.00000000000E+00  0.17098237682E+03  0.17098237682E+03  0.00000000000E+00 0.  1.
         21   -1    0    0  501  502 -0.00000000000E+00 -0.00000000000E+00 -0.27018633018E+03  0.27018633018E+03  0.00000000000E+00 0.  1.
         25    1    1    2    0    0 -0.11308817844E+03  0.76759504187E+02 -0.16151461895E+03  0.24574972985E+03  0.12500000000E+03 0.  0.
         25    1    1    2    0    0  0.11308817844E+03 -0.76759504187E+02  0.62310665595E+02  0.19541897716E+03  0.12500000000E+03 0.  0.
</event>
<event>
 4    0  0.2156764E-002  0.1660831E+03  0.7546771E-02  0.1181995E+00
         21   -1    0    0  502  501  0.00000000000E+00  0.00000000000E+00  0.27935121555E+03  0.27935121555E+03  0.00000000000E+00 0.  1.
         21   -1    0    0  501  502 -0.00000000000E+00 -0.00000000000E+00 -0.98741584813E+02  0.98741584813E+02  0.00000000000E+00 0.  1.
         25    1    1    2    0    0 -0.24822246883E+02  0.77217655101E+02  0.68158583791E+01  0.14916489575E+03  0.12500000000E+03 0.  0.
         25    1    1    2    0    0  0.24822246883E+02 -0.77217655101E+02  0.17379377236E+03  0.22892790462E+03  0.12500000000E+03 0.  0.
</event>
<event>
 4    0  0.2156764E-002  0.1664437E+03  0.7546771E-02  0.1181608E+00
         21   -1    0    0  502  501  0.00000000000E+00  0.00000000000E+00  0.17671087820E+03  0.17671087820E+03  0.00000000000E+00 0.  1.
         21   -1    0    0  501  502 -0.00000000000E+00 -0.00000000000E+00 -0.15677309869E+03  0.15677309869E+03  0.00000000000E+00 0.  1.
         25    1    1    2    0    0  0.31658190491E+02 -0.31300112958E+02  0.11063066277E+03  0.17276018534E+03  0.12500000000E+03 0.  0.
         25    1    1    2    0    0 -0.31658190491E+02  0.31300112958E+02 -0.90692883257E+02  0.16072379155E+03  0.12500000000E+03 0.  0.
</event>
<event>
 4    0  0.2156764E-002  0.2379031E+03  0.7546771E-02  0.1121198E+00
         21   -1    0    0  502  501  0.00000000000E+00  0.00000000000E+00  0.15386069151E+03  0.15386069151E+03  0.00000000000E+00 0. -1.
         21   -1    0    0  501  502 -0.00000000000E+00 -0.00000000000E+00 -0.36785159504E+03  0.36785159504E+03  0.00000000000E+00 0. -1.
         25    1    1    2    0    0  0.20089888270E+03 -0.31511888403E+01 -0.80078927685E+02  0.24981578357E+03  0.12500000000E+03 0.  0.
         25    1    1    2    0    0 -0.20089888270E+03  0.31511888403E+01 -0.13391197584E+03  0.27189650298E+03  0.12500000000E+03 0.  0.
</event>
<event>
 4    0  0.2156764E-002  0.2993278E+03  0.7546771E-02  0.1085577E+00
         21   -1    0    0  502  501  0.00000000000E+00  0.00000000000E+00  0.68232866630E+03  0.68232866630E+03  0.00000000000E+00 0.  1.
         21   -1    0    0  501  502 -0.00000000000E+00 -0.00000000000E+00 -0.13131079834E+03  0.13131079834E+03  0.00000000000E+00 0.  1.
         25    1    1    2    0    0 -0.10256135848E+03  0.14490405390E+03  0.55555214811E+03  0.59647230141E+03  0.12500000000E+03 0.  0.
         25    1    1    2    0    0  0.10256135848E+03 -0.14490405390E+03 -0.45342801534E+01  0.21716716323E+03  0.12500000000E+03 0.  0.
</event>
<event>
 4    0  0.2156764E-002  0.2160502E+03  0.7546771E-02  0.1136862E+00
         21   -1    0    0  502  501  0.00000000000E+00  0.00000000000E+00  0.51460924903E+02  0.51460924903E+02  0.00000000000E+00 0.  1.
         21   -1    0    0  501  502 -0.00000000000E+00 -0.00000000000E+00 -0.90705149915E+03  0.90705149915E+03  0.00000000000E+00 0.  1.
         25    1    1    2    0    0  0.97363890939E+02  0.16136343672E+02 -0.75163581876E+03  0.76832383335E+03  0.12500000000E+03 0.  0.
         25    1    1    2    0    0 -0.97363890939E+02 -0.16136343672E+02 -0.10395475549E+03  0.19018859070E+03  0.12500000000E+03 0.  0.
</event>
<event>
 4    0  0.2156764E-002  0.3615697E+03  0.7546771E-02  0.1057964E+00
         21   -1    0    0  502  501  0.00000000000E+00  0.00000000000E+00  0.31545477180E+02  0.31545477180E+02  0.00000000000E+00 0.  1.
         21   -1    0    0  501  502 -0.00000000000E+00 -0.00000000000E+00 -0.41442600778E+04  0.41442600778E+04  0.00000000000E+00 0.  1.
         25    1    1    2    0    0 -0.10029807598E+03 -0.20197524471E+03 -0.35201115315E+04  0.35295415988E+04  0.12500000000E+03 0.  0.
         25    1    1    2    0    0  0.10029807598E+03  0.20197524471E+03 -0.59260306915E+03  0.64626395620E+03  0.12500000000E+03 0.  0.
</event>
<event>
 4    0  0.2156764E-002  0.2067052E+03  0.7546771E-02  0.1144202E+00
         21   -1    0    0  502  501  0.00000000000E+00  0.00000000000E+00  0.45586808123E+03  0.45586808123E+03  0.00000000000E+00 0.  1.
         21   -1    0    0  501  502 -0.00000000000E+00 -0.00000000000E+00 -0.93726785504E+02  0.93726785504E+02  0.00000000000E+00 0.  1.
         25    1    1    2    0    0  0.13767380517E+03 -0.62829621016E+02  0.94910355983E+02  0.21802434171E+03  0.12500000000E+03 0.  0.
         25    1    1    2    0    0 -0.13767380517E+03  0.62829621016E+02  0.26723093975E+03  0.33157052502E+03  0.12500000000E+03 0.  0.
</event>
<event>
 4    0  0.2156764E-002  0.1822431E+03  0.7546771E-02  0.1165650E+00
         21   -1    0    0  502  501  0.00000000000E+00  0.00000000000E+00  0.95011421674E+02  0.95011421674E+02  0.00000000000E+00 0. -1.
         21   -1    0    0  501  502 -0.00000000000E+00 -0.00000000000E+00 -0.34956379109E+03  0.34956379109E+03  0.00000000000E+00 0. -1.
         25    1    1    2    0    0 -0.18725205568E+02  0.10199037688E+03 -0.26436925673E+02  0.16454963184E+03  0.12500000000E+03 0.  0.
         25    1    1    2    0    0  0.18725205568E+02 -0.10199037688E+03 -0.22811544375E+03  0.28002558093E+03  0.12500000000E+03 0.  0.
</event>
<event>
 4    0  0.2156764E-002  0.2393334E+03  0.7546771E-02  0.1120238E+00
         21   -1    0    0  502  501  0.00000000000E+00  0.00000000000E+00  0.64364481610E+02  0.64364481610E+02  0.00000000000E+00 0. -1.
         21   -1    0    0  501  502 -0.00000000000E+00 -0.00000000000E+00 -0.88993925236E+03  0.88993925236E+03  0.00000000000E+00 0. -1.
         25    1    1    2    0    0  0.12213809734E+03 -0.16351685144E+03 -0.41289871072E+03  0.47724817531E+03  0.12500000000E+03 0.  0.
         25    1    1    2    0    0 -0.12213809734E+03  0.16351685144E+03 -0.41267606004E+03  0.47705555867E+03  0.12500000000E+03 0.  0.
</event>
<event>
 4    0  0.2156764E-002  0.2171170E+03  0.7546771E-02  0.1136051E+00
         21   -1    0    0  502  501  0.00000000000E+00  0.00000000000E+00  0.17454773322E+04  0.17454773322E+04  0.00000000000E+00 0. -1.
         21   -1    0    0  501  502 -0.00000000000E+00 -0.00000000000E+00 -0.27006830766E+02  0.27006830766E+02  0.00000000000E+00 0. -1.
         25    1    1    2    0    0 -0.26325491843E+02 -0.72602449900E+02  0.15117037398E+04  0.15188276216E+04  0.12500000000E+03 0.  0.
         25    1    1    2    0    0  0.26325491843E+02  0.72602449900E+02  0.20676676162E+03  0.25365654134E+03  0.12500000000E+03 0.  0.
</event>
<event>
 4    0  0.2156764E-002  0.4866652E+03  0.7546771E-02  0.1017319E+00
         21   -1    0    0  502  501  0.00000000000E+00  0.00000000000E+00  0.79633883900E+03  0.79633883900E+03  0.00000000000E+00 0.  1.
         21   -1    0    0  501  502 -0.00000000000E+00 -0.00000000000E+00 -0.29741488448E+03  0.29741488448E+03  0.00000000000E+00 0.  1.
         25    1    1    2    0    0 -0.33245669236E+03  0.32893522363E+03  0.30556029520E+03  0.57246652972E+03  0.12500000000E+03 0.  0.
         25    1    1    2    0    0  0.33245669236E+03 -0.32893522363E+03  0.19336365932E+03  0.52128719377E+03  0.12500000000E+03 0.  0.
</event>
<event>
 4    0  0.2156764E-002  0.3526215E+03  0.7546771E-02  0.1061544E+00
         21   -1    0    0  502  501  0.00000000000E+00  0.00000000000E+00  0.48287320498E+03  0.48287320498E+03  0.00000000000E+00 0. -1.
         21   -1    0    0  501  502 -0.00000000000E+00 -0.00000000000E+00 -0.25750426457E+03  0.25750426457E+03  0.00000000000E+00 0. -1.
         25    1    1    2    0    0  0.14278480330E+03 -0.16880968957E+03  0.36947779264E+03  0.44835594186E+03  0.12500000000E+03 0.  0.
         25    1    1    2    0    0 -0.14278480330E+03  0.16880968957E+03 -0.14410885223E+03  0.29202152769E+03  0.12500000000E+03 0.  0.
</event>
<event>
 4    0  0.2156764E-002  0.1499158E+03  0.7546771E-02  0.1200576E+00
         21   -1    0    0  502  501  0.00000000000E+00  0.00000000000E+00  0.19339139840E+03  0.19339139840E+03  0.00000000000E+00 0. -1.
         21   -1    0    0  501  502 -0.00000000000E+00 -0.00000000000E+00 -0.11621385347E+03  0.11621385347E+03  0.00000000000E+00 0. -1.
         25    1    1    2    0    0  0.66449514217E+02 -0.34862558389E+02  0.74638438353E+02  0.16378898741E+03  0.12500000000E+03 0.  0.
         25    1    1    2    0    0 -0.66449514217E+02  0.34862558389E+02  0.25391065749E+01  0.14581626445E+03  0.12500000000E+03 0.  0.
</event>
<event>
 4    0  0.2156764E-002  0.2800575E+03  0.7546771E-02  0.1095658E+00
         21   -1    0    0  502  501  0.00000000000E+00  0.00000000000E+00  0.93371135017E+03  0.93371135017E+03  0.00000000000E+00 0.  1.
         21   -1    0    0  501  502 -0.00000000000E+00 -0.00000000000E+00 -0.84000467378E+02  0.84000467378E+02  0.00000000000E+00 0. -1.
         25    1    1    2    0    0 -0.19975909344E+03  0.13798453957E+03  0.31191413886E+03  0.41455863107E+03  0.12500000000E+03 0.  0.
         25    1    1    2    0    0  0.19975909344E+03 -0.13798453957E+03  0.53779674393E+03  0.60315318647E+03  0.12500000000E+03 0.  0.
</event>
<event>
 4    0  0.2156764E-002  0.1929906E+03  0.7546771E-02  0.1155791E+00
         21   -1    0    0  502  501  0.00000000000E+00  0.00000000000E+00  0.37691899984E+02  0.37691899984E+02  0.00000000000E+00 0.  1.
         21   -1    0    0  501  502 -0.00000000000E+00 -0.00000000000E+00 -0.98815290792E+03  0.98815290792E+03  0.00000000000E+00 0.  1.
         25    1    1    2    0    0 -0.26542819291E+02  0.12874497649E+03 -0.30012936254E+03  0.35068850065E+03  0.12500000000E+03 0.  0.
         25    1    1    2    0    0  0.26542819291E+02 -0.12874497649E+03 -0.65033164539E+03  0.67515630725E+03  0.12500000000E+03 0.  0.
</event>
<event>
 4    0  0.2156764E-002  0.2436300E+03  0.7546771E-02  0.1117398E+00
         21   -1    0    0  502  501  0.00000000000E+00  0.00000000000E+00  0.28701297007E+03  0.28701297007E+03  0.00000000000E+00 0.  1.
         21   -1    0    0  501  502 -0.00000000000E+00 -0.00000000000E+00 -0.20680451469E+03  0.20680451469E+03  0.00000000000E+00 0.  1.
         25    1    1    2    0    0 -0.20264343079E+03 -0.30929073517E+02  0.82008110646E+02  0.25371499333E+03  0.12500000000E+03 0.  0.
         25    1    1    2    0    0  0.20264343079E+03  0.30929073517E+02 -0.17996552615E+01  0.24010249143E+03  0.12500000000E+03 0.  0.
</event>
<event>
 4    0  0.2156764E-002  0.2047360E+03  0.7546771E-02  0.1145804E+00
         21   -1    0    0  502  501  0.00000000000E+00  0.00000000000E+00  0.14277578185E+03  0.14277578185E+03  0.00000000000E+00 0.  1.
         21   -1    0    0  501  502 -0.00000000000E+00 -0.00000000000E+00 -0.29358493232E+03  0.29358493232E+03  0.00000000000E+00 0.  1.
         25    1    1    2    0    0 -0.15058299461E+03 -0.49493769053E+02 -0.39000749697E+02  0.20559895407E+03  0.12500000000E+03 0.  0.
         25    1    1    2    0    0  0.15058299461E+03  0.49493769053E+02 -0.11180840077E+03  0.23076176010E+03  0.12500000000E+03 0.  0.
</event>
<event>
 4    0  0.2156764E-002  0.2356904E+03  0.7546771E-02  0.1122698E+00
         21   -1    0    0  502  501  0.00000000000E+00  0.00000000000E+00  0.17873683276E+04  0.17873683276E+04  0.00000000000E+00 0.  1.
         21   -1    0    0  501  502 -0.00000000000E+00 -0.00000000000E+00 -0.31079182584E+02  0.31079182584E+02  0.00000000000E+00 0.  1.
         25    1    1    2    0    0 -0.62769312667E+02  0.81556608990E+02  0.15388543624E+04  0.15473490931E+04  0.12500000000E+03 0.  0.
         25    1    1    2    0    0  0.62769312667E+02 -0.81556608990E+02  0.21743478262E+03  0.27109841714E+03  0.12500000000E+03 0.  0.
</event>
<event>
 4    0  0.2156764E-002  0.2290737E+03  0.7546771E-02  0.1127293E+00
         21   -1    0    0  502  501  0.00000000000E+00  0.00000000000E+00  0.51664796474E+03  0.51664796474E+03  0.00000000000E+00 0. -1.
         21   -1    0    0  501  502 -0.00000000000E+00 -0.00000000000E+00 -0.10156769524E+03  0.10156769524E+03  0.00000000000E+00 0. -1.
         25    1    1    2    0    0  0.31049774440E+02 -0.14374607387E+03  0.41052882053E+02  0.19732552133E+03  0.12500000000E+03 0.  0.
         25    1    1    2    0    0 -0.31049774440E+02  0.14374607387E+03  0.37402738744E+03  0.42089013864E+03  0.12500000000E+03 0.  0.
</event>
<event>
 4    0  0.2156764E-002  0.2421920E+03  0.7546771E-02  0.1118341E+00
         21   -1    0    0  502  501  0.00000000000E+00  0.00000000000E+00  0.21769875584E+03  0.21769875584E+03  0.00000000000E+00 0. -1.
         21   -1    0    0  501  502 -0.00000000000E+00 -0.00000000000E+00 -0.26944105843E+03  0.26944105843E+03  0.00000000000E+00 0. -1.
         25    1    1    2    0    0 -0.10693644963E+03 -0.15548940646E+03  0.60756133161E+02  0.23436865724E+03  0.12500000000E+03 0.  0.
         25    1    1    2    0    0  0.10693644963E+03  0.15548940646E+03 -0.11249843575E+03  0.25277115703E+03  0.12500000000E+03 0.  0.
</event>
<event>
 4    0  0.2156764E-002  0.2233571E+03  0.7546771E-02  0.1131405E+00
         21   -1    0    0  502  501  0.00000000000E+00  0.00000000000E+00  0.52602434784E+03  0.52602434784E+03  0.00000000000E+00 0. -1.
         21   -1    0    0  501  502 -0.00000000000E+00 -0.00000000000E+00 -0.94840507322E+02  0.94840507322E+02  0.00000000000E+00 0. -1.
         25    1    1    2    0    0 -0.12347034574E+03  0.97881393363E+02  0.80571073615E+02  0.21666192870E+03  0.12500000000E+03 0.  0.
         25    1    1    2    0    0  0.12347034574E+03 -0.97881393363E+02  0.35061276690E+03  0.40420292646E+03  0.12500000000E+03 0.  0.
</event>
<event>
 4    0  0.2156764E-002  0.1493122E+03  0.7546771E-02  0.1201321E+00
         21   -1    0    0  502  501  0.00000000000E+00  0.00000000000E+00  0.63745622642E+02  0.63745622642E+02  0.00000000000E+00 0. -1.
         21   -1    0    0  501  502 -0.00000000000E+00 -0.00000000000E+00 -0.34973580259E+03  0.34973580259E+03  0.00000000000E+00 0. -1.
         25    1    1    2    0    0  0.81149396906E+02 -0.25321011573E+01 -0.13080646914E+03  0.19831028345E+03  0.12500000000E+03 0.  0.
         25    1    1    2    0    0 -0.81149396906E+02  0.25321011573E+01 -0.15518371082E+03  0.21517114179E+03  0.12500000000E+03 0.  0.
</event>
<event>
 4    0  0.2156764E-002  0.2293635E+03  0.7546771E-02  0.1127089E+00
         21   -1    0    0  502  501  0.00000000000E+00  0.00000000000E+00  0.19563703757E+03  0.19563703757E+03  0.00000000000E+00 0. -1.
         21   -1    0    0  501  502 -0.00000000000E+00 -0.00000000000E+00 -0.26890417436E+03  0.26890417436E+03  0.00000000000E+00 0. -1.
         25    1    1    2    0    0  0.42388523130E+02  0.11639671031E+03  0.11232820610E+03  0.20877645210E+03  0.12500000000E+03 0.  0.
         25    1    1    2    0    0 -0.42388523130E+02 -0.11639671031E+03 -0.18559534290E+03  0.25576475983E+03  0.12500000000E+03 0.  0.
</event>
<event>
 4    0  0.2156764E-002  0.1501805E+03  0.7546771E-02  0.1200251E+00
         21   -1    0    0  502  501  0.00000000000E+00  0.00000000000E+00  0.40720558071E+02  0.40720558071E+02  0.00000000000E+00 0. -1.
         21   -1    0    0  501  502 -0.00000000000E+00 -0.00000000000E+00 -0.55387688707E+03  0.55387688707E+03  0.00000000000E+00 0. -1.
         25    1    1    2    0    0 -0.11412514609E+02  0.67932532380E+02 -0.34909397748E+03  0.37714278405E+03  0.12500000000E+03 0.  0.
         25    1    1    2    0    0  0.11412514609E+02 -0.67932532380E+02 -0.16406235151E+03  0.21745466109E+03  0.12500000000E+03 0.  0.
</event>
<event>
 4    0  0.2156764E-002  0.2750325E+03  0.7546771E-02  0.1098433E+00
         21   -1    0    0  502  501  0.00000000000E+00  0.00000000000E+00  0.12113747003E+03  0.12113747003E+03  0.00000000000E+00 0. -1.
         21   -1    0    0  501  502 -0.00000000000E+00 -0.00000000000E+00 -0.62443833655E+03  0.62443833655E+03  0.00000000000E+00 0. -1.
         25    1    1    2    0    0 -0.44831462203E+02  0.68822023356E+02 -0.56449271647E+03  0.58397205229E+03  0.12500000000E+03 0.  0.
         25    1    1    2    0    0  0.44831462203E+02 -0.68822023356E+02  0.61191849957E+02  0.16160375430E+03  0.12500000000E+03 0.  0.
</event>
<event>
 4    0  0.2156764E-002  0.1553699E+03  0.7546771E-02  0.1194026E+00
         21   -1    0    0  502  501  0.00000000000E+00  0.00000000000E+00  0.32825278725E+03  0.32825278725E+03  0.00000000000E+00 0.  1.
         21   -1    0    0  501  502 -0.00000000000E+00 -0.00000000000E+00 -0.73540309970E+02  0.73540309970E+02  0.00000000000E+00 0.  1.
         25    1    1    2    0    0  0.33913066454E+02 -0.26599830622E+02  0.21856790996E+02  0.13401629147E+03  0.12500000000E+03 0.  0.
         25    1    1    2    0    0 -0.33913066454E+02  0.26599830622E+02  0.23285568628E+03  0.26777680576E+03  0.12500000000E+03 0.  0.
</event>
<event>
 4    0  0.2156764E-002  0.2462284E+03  0.7546771E-02  0.1115712E+00
         21   -1    0    0  502  501  0.00000000000E+00  0.00000000000E+00  0.29145518980E+03  0.29145518980E+03  0.00000000000E+00 0. -1.
         21   -1    0    0  501  502 -0.00000000000E+00 -0.00000000000E+00 -0.20801965239E+03  0.20801965239E+03  0.00000000000E+00 0. -1.
         25    1    1    2    0    0 -0.18064461884E+03  0.13505715224E+02  0.15369277933E+03  0.26844245767E+03  0.12500000000E+03 0.  0.
         25    1    1    2    0    0  0.18064461884E+03 -0.13505715224E+02 -0.70257241926E+02  0.23103238453E+03  0.12500000000E+03 0.  0.
</event>
<event>
 4    0  0.2156764E-002  0.2221973E+03  0.7546771E-02  0.1132255E+00
         21   -1    0    0  502  501  0.00000000000E+00  0.00000000000E+00  0.18183159914E+04  0.18183159914E+04  0.00000000000E+00 0. -1.
         21   -1    0    0  501  502 -0.00000000000E+00 -0.00000000000E+00 -0.27152408356E+02  0.27152408356E+02  0.00000000000E+00 0. -1.
         25    1    1    2    0    0 -0.15431871409E+03  0.10920397534E+02  0.13069604020E+04  0.13220075692E+04  0.12500000000E+03 0.  0.
         25    1    1    2    0    0  0.15431871409E+03 -0.10920397534E+02  0.48420318102E+03  0.52346083055E+03  0.12500000000E+03 0.  0.
</event>
<event>
 4    0  0.2156764E-002  0.2745851E+03  0.7546771E-02  0.1098684E+00
         21   -1    0    0  502  501  0.00000000000E+00  0.00000000000E+00  0.67532255055E+03  0.67532255055E+03  0.00000000000E+00 0. -1.
         21   -1    0    0  501  502 -0.00000000000E+00 -0.00000000000E+00 -0.11164589663E+03  0.11164589663E+03  0.00000000000E+00 0. -1.
         25    1    1    2    0    0  0.49673357830E+02 -0.12148867257E+02  0.62443635149E+03  0.63887463130E+03  0.12500000000E+03 0.  0.
         25    1    1    2    0    0 -0.49673357830E+02  0.12148867257E+02 -0.60759697570E+02  0.14809381588E+03  0.12500000000E+03 0.  0.
</event>
<event>
 4    0  0.2156764E-002  0.1504570E+03  0.7546771E-02  0.1199913E+00
         21   -1    0    0  502  501  0.00000000000E+00  0.00000000000E+00  0.11718542858E+02  0.11718542858E+02  0.00000000000E+00 0.  1.
         21   -1    0    0  501  502 -0.00000000000E+00 -0.00000000000E+00 -0.19317506629E+04  0.19317506629E+04  0.00000000000E+00 0.  1.
         25    1    1    2    0    0 -0.71891624388E+02  0.41808635730E+02 -0.10232753694E+04  0.10342310425E+04  0.12500000000E+03 0.  0.
         25    1    1    2    0    0  0.71891624388E+02 -0.41808635730E+02 -0.89675675061E+03  0.90923816321E+03  0.12500000000E+03 0.  0.
</event>
<event>
 4    0  0.2156764E-002  0.1559514E+03  0.7546771E-02  0.1193345E+00
         21   -1    0    0  502  501  0.00000000000E+00  0.00000000000E+00  0.23321691678E+03  0.23321691678E+03  0.00000000000E+00 0. -1.
         21   -1    0    0  501  502 -0.00000000000E+00 -0.00000000000E+00 -0.10428424708E+03  0.10428424708E+03  0.00000000000E+00 0. -1.
         25    1    1    2    0    0  0.44966905622E+02  0.27419696738E+02 -0.18803876773E+02  0.13693957847E+03  0.12500000000E+03 0.  0.
         25    1    1    2    0    0 -0.44966905622E+02 -0.27419696738E+02  0.14773654647E+03  0.20056158539E+03  0.12500000000E+03 0.  0.
</event>
<event>
 4    0  0.2156764E-002  0.3967940E+03  0.7546771E-02  0.1044895E+00
         21   -1    0    0  502  501  0.00000000000E+00  0.00000000000E+00  0.90783334195E+03  0.90783334195E+03  0.00000000000E+00 0.  1.
         21   -1    0    0  501  502 -0.00000000000E+00 -0.00000000000E+00 -0.17342991480E+03  0.17342991480E+03  0.00000000000E+00 0.  1.
         25    1    1    2    0    0  0.29688400910E+02 -0.26348266636E+03  0.28357404442E+01  0.29315108399E+03  0.12500000000E+03 0.  0.
         25    1    1    2    0    0 -0.29688400910E+02  0.26348266636E+03  0.73156768671E+03  0.78811217276E+03  0.12500000000E+03 0.  0.
</event>
<event>
 4    0  0.2156764E-002  0.2049903E+03  0.7546771E-02  0.1145596E+00
         21   -1    0    0  502  501  0.00000000000E+00  0.00000000000E+00  0.57785812155E+03  0.57785812155E+03  0.00000000000E+00 0.  1.
         21   -1    0    0  501  502 -0.00000000000E+00 -0.00000000000E+00 -0.72718569320E+02  0.72718569320E+02  0.00000000000E+00 0.  1.
         25    1    1    2    0    0 -0.14924876741E+02 -0.56921176679E+02  0.12261918529E+02  0.13870157514E+03  0.12500000000E+03 0.  0.
         25    1    1    2    0    0  0.14924876741E+02  0.56921176679E+02  0.49287763371E+03  0.51187511573E+03  0.12500000000E+03 0.  0.
</event>
<event>
 4    0  0.2156764E-002  0.2043889E+03  0.7546771E-02  0.1146088E+00
         21   -1    0    0  502  501  0.00000000000E+00  0.00000000000E+00  0.26344049013E+02  0.26344049013E+02  0.00000000000E+00 0. -1.
         21   -1    0    0  501  502 -0.00000000000E+00 -0.00000000000E+00 -0.15857408769E+04  0.15857408769E+04  0.00000000000E+00 0. -1.
         25    1    1    2    0    0  0.16631146482E+02  0.92785141672E+02 -0.26152724317E+03  0.30480678547E+03  0.12500000000E+03 0.  0.
         25    1    1    2    0    0 -0.16631146482E+02 -0.92785141672E+02 -0.12978695847E+04  0.13072781404E+04  0.12500000000E+03 0.  0.
</event>
<event>
 4    0  0.2156764E-002  0.1881313E+03  0.7546771E-02  0.1160158E+00
         21   -1    0    0  502  501  0.00000000000E+00  0.00000000000E+00  0.35009971518E+03  0.35009971518E+03  0.00000000000E+00 0.  1.
         21   -1    0    0  501  502 -0.00000000000E+00 -0.00000000000E+00 -0.10109511111E+03  0.10109511111E+03  0.00000000000E+00 0.  1.
         25    1    1    2    0    0 -0.83603963842E+02 -0.10023950780E+03  0.61838441694E+02  0.19101459255E+03  0.12500000000E+03 0.  0.
         25    1    1    2    0    0  0.83603963842E+02  0.10023950780E+03  0.18716616237E+03  0.26018023374E+03  0.12500000000E+03 0.  0.
</event>
<event>
 4    0  0.2156764E-002  0.1829715E+03  0.7546771E-02  0.1164958E+00
         21   -1    0    0  502  501  0.00000000000E+00  0.00000000000E+00  0.62487924204E+02  0.62487924204E+02  0.00000000000E+00 0. -1.
         21   -1    0    0  501  502 -0.00000000000E+00 -0.00000000000E+00 -0.53576056043E+03  0.53576056043E+03  0.00000000000E+00 0. -1.
         25    1    1    2    0    0 -0.82027402700E+02 -0.31104148332E+02 -0.40140087632E+03  0.42946900511E+03  0.12500000000E+03 0.  0.
         25    1    1    2    0    0  0.82027402700E+02  0.31104148332E+02 -0.71871759906E+02  0.16877947953E+03  0.12500000000E+03 0.  0.
</event>
<event>
 4    0  0.2156764E-002  0.2009827E+03  0.7546771E-02  0.1148913E+00
         21   -1    0    0  502  501  0.00000000000E+00  0.00000000000E+00  0.10666282867E+04  0.10666282867E+04  0.00000000000E+00 0.  1.
         21   -1    0    0  501  502 -0.00000000000E+00 -0.00000000000E+00 -0.37870773130E+02  0.37870773130E+02  0.00000000000E+00 0.  1.
         25    1    1    2    0    0  0.12897426828E+03 -0.16949848216E+02  0.27096841598E+03  0.32553116854E+03  0.12500000000E+03 0.  0.
         25    1    1    2    0    0 -0.12897426828E+03  0.16949848216E+02  0.75778909759E+03  0.77896789129E+03  0.12500000000E+03 0.  0.
</event>
<event>
 4    0  0.2156764E-002  0.2135428E+03  0.7546771E-02  0.1138791E+00
         21   -1    0    0  502  501  0.00000000000E+00  0.00000000000E+00  0.53506375101E+02  0.53506375101E+02  0.00000000000E+00 0. -1.
         21   -1    0    0  501  502 -0.00000000000E+00 -0.00000000000E+00 -0.85224489983E+03  0.85224489983E+03  0.00000000000E+00 0. -1.
         25    1    1    2    0    0  0.78129508569E+00 -0.16890154158E+03 -0.31869084278E+03  0.38172921612E+03  0.12500000000E+03 0.  0.
         25    1    1    2    0    0 -0.78129508569E+00  0.16890154158E+03 -0.48004768195E+03  0.52402205881E+03  0.12500000000E+03 0.  0.
</event>
<event>
 4    0  0.2156764E-002  0.3339137E+03  0.7546771E-02  0.1069418E+00
         21   -1    0    0  502  501  0.00000000000E+00  0.00000000000E+00  0.31427126798E+03  0.31427126798E+03  0.00000000000E+00 0. -1.
         21   -1    0    0  501  502 -0.00000000000E+00 -0.00000000000E+00 -0.35478387221E+03  0.35478387221E+03  0.00000000000E+00 0. -1.
         25    1    1    2    0    0 -0.23608043541E+03 -0.19964794793E+03 -0.37023325384E+02  0.33554284632E+03  0.12500000000E+03 0.  0.
         25    1    1    2    0    0  0.23608043541E+03  0.19964794793E+03 -0.34892788492E+01  0.33351229387E+03  0.12500000000E+03 0.  0.
</event>
<event>
 4    0  0.2156764E-002  0.2157223E+03  0.7546771E-02  0.1137113E+00
         21   -1    0    0  502  501  0.00000000000E+00  0.00000000000E+00  0.18685634966E+02  0.18685634966E+02  0.00000000000E+00 0.  1.
         21   -1    0    0  501  502 -0.00000000000E+00 -0.00000000000E+00 -0.24904744071E+04  0.24904744071E+04  0.00000000000E+00 0.  1.
         25    1    1    2    0    0 -0.13893447009E+03  0.26308878998E+02 -0.18435229396E+04  0.18531585936E+04  0.12500000000E+03 0.  0.
         25    1    1    2    0    0  0.13893447009E+03 -0.26308878998E+02 -0.62826583245E+03  0.65600144841E+03  0.12500000000E+03 0.  0.
</event>
<event>
 4    0  0.2156764E-002  0.2076854E+03  0.7546771E-02  0.1143412E+00
         21   -1    0    0  502  501  0.00000000000E+00  0.00000000000E+00  0.17024595111E+03  0.17024595111E+03  0.00000000000E+00 0.  1.
         21   -1    0    0  501  502 -0.00000000000E+00 -0.00000000000E+00 -0.25335829304E+03  0.25335829304E+03  0.00000000000E+00 0.  1.
         25    1    1    2    0    0  0.22476267117E+02 -0.13603156100E+03 -0.13557056444E+03  0.23024801001E+03  0.12500000000E+03 0.  0.
         25    1    1    2    0    0 -0.22476267117E+02  0.13603156100E+03  0.52458222514E+02  0.19335623414E+03  0.12500000000E+03 0.  0.
</event>
<event>
 4    0  0.2156764E-002  0.1990686E+03  0.7546771E-02  0.1150527E+00
         21   -1    0    0  502  501  0.00000000000E+00  0.00000000000E+00  0.16579456835E+03  0.16579456835E+03  0.00000000000E+00 0. -1.
         21   -1    0    0  501  502 -0.00000000000E+00 -0.00000000000E+00 -0.23902055915E+03  0.23902055915E+03  0.00000000000E+00 0. -1.
         25    1    1    2    0    0  0.84297154286E+02  0.12957535790E+03 -0.47156436860E+02  0.20431474037E+03  0.12500000000E+03 0.  0.
         25    1    1    2    0    0 -0.84297154286E+02 -0.12957535790E+03 -0.26069553939E+02  0.20050038713E+03  0.12500000000E+03 0.  0.
</event>
<event>
 4    0  0.2156764E-002  0.4005013E+03  0.7546771E-02  0.1043606E+00
         21   -1    0    0  502  501  0.00000000000E+00  0.00000000000E+00  0.60742284212E+03  0.60742284212E+03  0.00000000000E+00 0.  1.
         21   -1    0    0  501  502 -0.00000000000E+00 -0.00000000000E+00 -0.26406863484E+03  0.26406863484E+03  0.00000000000E+00 0.  1.
         25    1    1    2    0    0 -0.25609595409E+03  0.86788991078E+02 -0.11957167168E+03  0.32099821081E+03  0.12500000000E+03 0.  0.
         25    1    1    2    0    0  0.25609595409E+03 -0.86788991078E+02  0.46292587896E+03  0.55049326616E+03  0.12500000000E+03 0.  0.
</event>
<event>
 4    0  0.2156764E-002  0.2096594E+03  0.7546771E-02  0.1141836E+00
         21   -1    0    0  502  501  0.00000000000E+00  0.00000000000E+00  0.46119537483E+03  0.46119537483E+03  0.00000000000E+00 0.  1.
         21   -1    0    0  501  502 -0.00000000000E+00 -0.00000000000E+00 -0.95311170220E+02  0.95311170220E+02  0.00000000000E+00 0.  1.
         25    1    1    2    0    0  0.31127530084E+02 -0.13848846038E+03  0.30300566190E+03  0.35719099643E+03  0.12500000000E+03 0.  0.
         25    1    1    2    0    0 -0.31127530084E+02  0.13848846038E+03  0.62878542708E+02  0.19931554862E+03  0.12500000000E+03 0.  0.
</event>
<event>
 4    0  0.2156764E-002  0.3005001E+03  0.7546771E-02  0.1084991E+00
         21   -1    0    0  502  501  0.00000000000E+00  0.00000000000E+00  0.20577945303E+03  0.20577945303E+03  0.00000000000E+00 0.  1.
         21   -1    0    0  501  502 -0.00000000000E+00 -0.00000000000E+00 -0.43882095908E+03  0.43882095908E+03  0.00000000000E+00 0.  1.
         25    1    1    2    0    0  0.62441290566E+02  0.26596758403E+03 -0.10993821997E+03  0.31992043188E+03  0.12500000000E+03 0.  0.
         25    1    1    2    0    0 -0.62441290566E+02 -0.26596758403E+03 -0.12310328607E+03  0.32467998023E+03  0.12500000000E+03 0.  0.
</event>
<event>
 4    0  0.2156764E-002  0.3145896E+03  0.7546771E-02  0.1078167E+00
         21   -1    0    0  502  501  0.00000000000E+00  0.00000000000E+00  0.48290992657E+02  0.48290992657E+02  0.00000000000E+00 0.  1.
         21   -1    0    0  501  502 -0.00000000000E+00 -0.00000000000E+00 -0.20493808380E+04  0.20493808380E+04  0.00000000000E+00 0.  1.
         25    1    1    2    0    0 -0.24936717691E+03 -0.10523488427E+03 -0.13353281900E+04  0.13682049353E+04  0.12500000000E+03 0.  0.
         25    1    1    2    0    0  0.24936717691E+03  0.10523488427E+03 -0.66576165529E+03  0.72946689537E+03  0.12500000000E+03 0.  0.
</event>
<event>
 4    0  0.2156764E-002  0.1641694E+03  0.7546771E-02  0.1184068E+00
         21   -1    0    0  502  501  0.00000000000E+00  0.00000000000E+00  0.18556537708E+03  0.18556537708E+03  0.00000000000E+00 0.  1.
         21   -1    0    0  501  502 -0.00000000000E+00 -0.00000000000E+00 -0.14524037890E+03  0.14524037890E+03  0.00000000000E+00 0.  1.
         25    1    1    2    0    0 -0.75259969336E+01  0.96959628864E+01 -0.86348093924E+02  0.15241930865E+03  0.12500000000E+03 0.  0.
         25    1    1    2    0    0  0.75259969336E+01 -0.96959628864E+01  0.12667309211E+03  0.17838644733E+03  0.12500000000E+03 0.  0.
</event>
<event>
 4    0  0.2156764E-002  0.1927736E+03  0.7546771E-02  0.1155983E+00
         21   -1    0    0  502  501  0.00000000000E+00  0.00000000000E+00  0.88397385006E+02  0.88397385006E+02  0.00000000000E+00 0. -1.
         21   -1    0    0  501  502 -0.00000000000E+00 -0.00000000000E+00 -0.42039311481E+03  0.42039311481E+03  0.00000000000E+00 0. -1.
         25    1    1    2    0    0 -0.13462691205E+02  0.10161122982E+03 -0.30459695825E+03  0.34483386297E+03  0.12500000000E+03 0.  0.
         25    1    1    2    0    0  0.13462691205E+02 -0.10161122982E+03 -0.27398771554E+02  0.16395663684E+03  0.12500000000E+03 0.  0.
</event>
<event>
 4    0  0.2156764E-002  0.5080611E+03  0.7546771E-02  0.1011696E+00
         21   -1    0    0  502  501  0.00000000000E+00  0.00000000000E+00  0.41039891137E+03  0.41039891137E+03  0.00000000000E+00 0.  1.
         21   -1    0    0  501  502 -0.00000000000E+00 -0.00000000000E+00 -0.62896392864E+03  0.62896392864E+03  0.00000000000E+00 0.  1.
         25    1    1    2    0    0 -0.21043607808E+03 -0.17038431064E+03 -0.53001364930E+03  0.60815592139E+03  0.12500000000E+03 0.  0.
         25    1    1    2    0    0  0.21043607808E+03  0.17038431064E+03  0.31144863203E+03  0.43120691862E+03  0.12500000000E+03 0.  0.
</event>
<event>
 4    0  0.2156764E-002  0.1505176E+03  0.7546771E-02  0.1199838E+00
         21   -1    0    0  502  501  0.00000000000E+00  0.00000000000E+00  0.17489697588E+02  0.17489697588E+02  0.00000000000E+00 0. -1.
         21   -1    0    0  501  502 -0.00000000000E+00 -0.00000000000E+00 -0.12953645247E+04  0.12953645247E+04  0.00000000000E+00 0. -1.
         25    1    1    2    0    0  0.20546677709E+02  0.83811105485E+01 -0.28630196800E+03  0.31318720577E+03  0.12500000000E+03 0.  0.
         25    1    1    2    0    0 -0.20546677709E+02 -0.83811105485E+01 -0.99157285910E+03  0.99966701650E+03  0.12500000000E+03 0.  0.
</event>
<event>
 4    0  0.2156764E-002  0.3164592E+03  0.7546771E-02  0.1077291E+00
         21   -1    0    0  502  501  0.00000000000E+00  0.00000000000E+00  0.10390988200E+03  0.10390988200E+03  0.00000000000E+00 0.  1.
         21   -1    0    0  501  502 -0.00000000000E+00 -0.00000000000E+00 -0.96378153301E+03  0.96378153301E+03  0.00000000000E+00 0.  1.
         25    1    1    2    0    0  0.26397013542E+03  0.54468449433E+02 -0.24611127250E+03  0.38580150703E+03  0.12500000000E+03 0.  0.
         25    1    1    2    0    0 -0.26397013542E+03 -0.54468449433E+02 -0.61376037851E+03  0.68188990798E+03  0.12500000000E+03 0.  0.
</event>
<event>
 4    0  0.2156764E-002  0.2343256E+03  0.7546771E-02  0.1123632E+00
         21   -1    0    0  502  501  0.00000000000E+00  0.00000000000E+00  0.16458303163E+03  0.16458303163E+03  0.00000000000E+00 0.  1.
         21   -1    0    0  501  502 -0.00000000000E+00 -0.00000000000E+00 -0.33362178845E+03  0.33362178845E+03  0.00000000000E+00 0.  1.
         25    1    1    2    0    0  0.36525448238E+02  0.19471304520E+03 -0.78122698719E+02  0.24693204408E+03  0.12500000000E+03 0.  0.
         25    1    1    2    0    0 -0.36525448238E+02 -0.19471304520E+03 -0.90916058096E+02  0.25127277600E+03  0.12500000000E+03 0.  0.
</event>
<event>
 4    0  0.2156764E-002  0.3078468E+03  0.7546771E-02  0.1081383E+00
         21   -1    0    0  502  501  0.00000000000E+00  0.00000000000E+00  0.47632837935E+03  0.47632837935E+03  0.00000000000E+00 0. -1.
         21   -1    0    0  501  502 -0.00000000000E+00 -0.00000000000E+00 -0.19895866738E+03  0.19895866738E+03  0.00000000000E+00 0. -1.
         25    1    1    2    0    0  0.19724815129E+03 -0.19512699418E+03  0.87671912134E+02  0.31669029228E+03  0.12500000000E+03 0.  0.
         25    1    1    2    0    0 -0.19724815129E+03  0.19512699418E+03  0.18969779984E+03  0.35859675446E+03  0.12500000000E+03 0.  0.
</event>
<event>
 4    0  0.2156764E-002  0.1963694E+03  0.7546771E-02  0.1152839E+00
         21   -1    0    0  502  501  0.00000000000E+00  0.00000000000E+00  0.62510268684E+02  0.62510268684E+02  0.00000000000E+00 0. -1.
         21   -1    0    0  501  502 -0.00000000000E+00 -0.00000000000E+00 -0.61687351094E+03  0.61687351094E+03  0.00000000000E+00 0. -1.
         25    1    1    2    0    0  0.21446942319E+02  0.13238589878E+03 -0.39888735061E+03  0.43900127108E+03  0.12500000000E+03 0.  0.
         25    1    1    2    0    0 -0.21446942319E+02 -0.13238589878E+03 -0.15547589165E+03  0.24038250855E+03  0.12500000000E+03 0.  0.
</event>
<event>
 4    0  0.2156764E-002  0.1828071E+03  0.7546771E-02  0.1165114E+00
         21   -1    0    0  502  501  0.00000000000E+00  0.00000000000E+00  0.24630482035E+03  0.24630482035E+03  0.00000000000E+00 0.  1.
         21   -1    0    0  501  502 -0.00000000000E+00 -0.00000000000E+00 -0.13567912452E+03  0.13567912452E+03  0.00000000000E+00 0.  1.
         25    1    1    2    0    0  0.28185605552E+02 -0.72378343458E+02 -0.57987860187E+02  0.15817915441E+03  0.12500000000E+03 0.  0.
         25    1    1    2    0    0 -0.28185605552E+02  0.72378343458E+02  0.16861355601E+03  0.22380479046E+03  0.12500000000E+03 0.  0.
</event>
<event>
 4    0  0.2156764E-002  0.2118405E+03  0.7546771E-02  0.1140117E+00
         21   -1    0    0  502  501  0.00000000000E+00  0.00000000000E+00  0.34186716934E+04  0.34186716934E+04  0.00000000000E+00 0. -1.
         21   -1    0    0  501  502 -0.00000000000E+00 -0.00000000000E+00 -0.13126851187E+02  0.13126851187E+02  0.00000000000E+00 0. -1.
         25    1    1    2    0    0 -0.34234896235E+02  0.12599357677E+03  0.25976248831E+04  0.26039059973E+04  0.12500000000E+03 0.  0.
         25    1    1    2    0    0  0.34234896235E+02 -0.12599357677E+03  0.80791995905E+03  0.82789254722E+03  0.12500000000E+03 0.  0.
</event>
<event>
 4    0  0.2156764E-002  0.2213481E+03  0.7546771E-02  0.1132882E+00
         21   -1    0    0  502  501  0.00000000000E+00  0.00000000000E+00  0.46736843702E+03  0.46736843702E+03  0.00000000000E+00 0. -1.
         21   -1    0    0  501  502 -0.00000000000E+00 -0.00000000000E+00 -0.10483156580E+03  0.10483156580E+03  0.00000000000E+00 0. -1.
         25    1    1    2    0    0 -0.12515698804E+03 -0.44605064075E+02  0.19231406423E+02  0.18343590267E+03  0.12500000000E+03 0.  0.
         25    1    1    2    0    0  0.12515698804E+03  0.44605064075E+02  0.34330546480E+03  0.38876410014E+03  0.12500000000E+03 0.  0.
</event>
<event>
 4    0  0.2156764E-002  0.2713213E+03  0.7546771E-02  0.1100526E+00
         21   -1    0    0  502  501  0.00000000000E+00  0.00000000000E+00  0.12078003370E+04  0.12078003370E+04  0.00000000000E+00 0.  1.
         21   -1    0    0  501  502 -0.00000000000E+00 -0.00000000000E+00 -0.60949830155E+02  0.60949830155E+02  0.00000000000E+00 0.  1.
         25    1    1    2    0    0  0.31126742462E+02 -0.23347010652E+03  0.69063501449E+03  0.74032350225E+03  0.12500000000E+03 0.  0.
         25    1    1    2    0    0 -0.31126742462E+02  0.23347010652E+03  0.45621549240E+03  0.52842666496E+03  0.12500000000E+03 0.  0.
</event>
<event>
 4    0  0.2156764E-002  0.2017144E+03  0.7546771E-02  0.1148301E+00
         21   -1    0    0  502  501  0.00000000000E+00  0.00000000000E+00  0.18096281596E+04  0.18096281596E+04  0.00000000000E+00 0.  1.
         21   -1    0    0  501  502 -0.00000000000E+00 -0.00000000000E+00 -0.22484567700E+02  0.22484567700E+02  0.00000000000E+00 0.  1.
         25    1    1    2    0    0 -0.59442689480E+02 -0.14123908383E+03  0.71295409291E+03  0.73987191508E+03  0.12500000000E+03 0.  0.
         25    1    1    2    0    0  0.59442689480E+02  0.14123908383E+03  0.10741894990E+04  0.10922408122E+04  0.12500000000E+03 0.  0.
</event>
<event>
 4    0  0.2156764E-002  0.3473516E+03  0.7546771E-02  0.1063707E+00
         21   -1    0    0  502  501  0.00000000000E+00  0.00000000000E+00  0.36489785359E+02  0.36489785359E+02  0.00000000000E+00 0.  1.
         21   -1    0    0  501  502 -0.00000000000E+00 -0.00000000000E+00 -0.33064912419E+04  0.33064912419E+04  0.00000000000E+00 0.  1.
         25    1    1    2    0    0  0.31112210368E+03  0.82066975665E+02 -0.18211365461E+04  0.18535628588E+04  0.12500000000E+03 0.  0.
         25    1    1    2    0    0 -0.31112210368E+03 -0.82066975665E+02 -0.14488649104E+04  0.14894181685E+04  0.12500000000E+03 0.  0.
</event>
<event>
 4    0  0.2156764E-002  0.2110998E+03  0.7546771E-02  0.1140698E+00
         21   -1    0    0  502  501  0.00000000000E+00  0.00000000000E+00  0.22440428020E+03  0.22440428020E+03  0.00000000000E+00 0. -1.
         21   -1    0    0  501  502 -0.00000000000E+00 -0.00000000000E+00 -0.19858417874E+03  0.19858417874E+03  0.00000000000E+00 0. -1.
         25    1    1    2    0    0  0.95316848714E+02  0.76164897716E+02 -0.10585147905E+03  0.20424477695E+03  0.12500000000E+03 0.  0.
         25    1    1    2    0    0 -0.95316848714E+02 -0.76164897716E+02  0.13167158052E+03  0.21874368199E+03  0.12500000000E+03 0.  0.
</event>
<event>
 4    0  0.2156764E-002  0.1988402E+03  0.7546771E-02  0.1150721E+00
         21   -1    0    0  502  501  0.00000000000E+00  0.00000000000E+00  0.19654885613E+03  0.19654885613E+03  0.00000000000E+00 0.  1.
         21   -1    0    0  501  502 -0.00000000000E+00 -0.00000000000E+00 -0.20115829987E+03  0.20115829987E+03  0.00000000000E+00 0.  1.
         25    1    1    2    0    0 -0.36517813858E+02 -0.54410444260E+02  0.13777033745E+03  0.19723010180E+03  0.12500000000E+03 0.  0.
         25    1    1    2    0    0  0.36517813858E+02  0.54410444260E+02 -0.14237978118E+03  0.20047705420E+03  0.12500000000E+03 0.  0.
</event>
<event>
 4    0  0.2156764E-002  0.2524394E+03  0.7546771E-02  0.1111773E+00
         21   -1    0    0  502  501  0.00000000000E+00  0.00000000000E+00  0.16294455567E+03  0.16294455567E+03  0.00000000000E+00 0.  1.
         21   -1    0    0  501  502 -0.00000000000E+00 -0.00000000000E+00 -0.39108780585E+03  0.39108780585E+03  0.00000000000E+00 0.  1.
         25    1    1    2    0    0  0.10295045191E+03 -0.11493464443E+03 -0.28510405420E+03  0.34744508884E+03  0.12500000000E+03 0.  0.
         25    1    1    2    0    0 -0.10295045191E+03  0.11493464443E+03  0.56960804015E+02  0.20658727268E+03  0.12500000000E+03 0.  0.
</event>
<event>
 4    0  0.2156764E-002  0.2714398E+03  0.7546771E-02  0.1100458E+00
         21   -1    0    0  502  501  0.00000000000E+00  0.00000000000E+00  0.29652939557E+03  0.29652939557E+03  0.00000000000E+00 0.  1.
         21   -1    0    0  501  502 -0.00000000000E+00 -0.00000000000E+00 -0.24847314442E+03  0.24847314442E+03  0.00000000000E+00 0.  1.
         25    1    1    2    0    0 -0.33998538617E+02  0.22558268608E+03  0.10186285792E+03  0.27936444066E+03  0.12500000000E+03 0.  0.
         25    1    1    2    0    0  0.33998538617E+02 -0.22558268608E+03 -0.53806606766E+02  0.26563809933E+03  0.12500000000E+03 0.  0.
</event>
<event>
 4    0  0.2156764E-002  0.1592923E+03  0.7546771E-02  0.1189498E+00
         21   -1    0    0  502  501  0.00000000000E+00  0.00000000000E+00  0.31656917788E+02  0.31656917788E+02  0.00000000000E+00 0. -1.
         21   -1    0    0  501  502 -0.00000000000E+00 -0.00000000000E+00 -0.80153247557E+03  0.80153247557E+03  0.00000000000E+00 0. -1.
         25    1    1    2    0    0 -0.18146328013E+01  0.94159708490E+02 -0.46250659558E+03  0.48826908007E+03  0.12500000000E+03 0.  0.
         25    1    1    2    0    0  0.18146328013E+01 -0.94159708490E+02 -0.30736896220E+03  0.34492031329E+03  0.12500000000E+03 0.  0.
</event>
<event>
 4    0  0.2156764E-002  0.2152040E+03  0.7546771E-02  0.1137510E+00
         21   -1    0    0  502  501  0.00000000000E+00  0.00000000000E+00  0.64823514709E+03  0.64823514709E+03  0.00000000000E+00 0. -1.
         21   -1    0    0  501  502 -0.00000000000E+00 -0.00000000000E+00 -0.71444353127E+02  0.71444353127E+02  0.00000000000E+00 0.  1.
         25    1    1    2    0    0 -0.12594487029E+03  0.10813442048E+03  0.38198116487E+03  0.43484453953E+03  0.12500000000E+03 0.  0.
         25    1    1    2    0    0  0.12594487029E+03 -0.10813442048E+03  0.19480962909E+03  0.28483496069E+03  0.12500000000E+03 0.  0.
</event>
<event>
 4    0  0.2156764E-002  0.2169040E+03  0.7546771E-02  0.1136212E+00
         21   -1    0    0  502  501  0.00000000000E+00  0.00000000000E+00  0.32450157661E+02  0.32450157661E+02  0.00000000000E+00 0.  1.
         21   -1    0    0  501  502 -0.00000000000E+00 -0.00000000000E+00 -0.14498342696E+04  0.14498342696E+04  0.00000000000E+00 0.  1.
         25    1    1    2    0    0 -0.51751892191E+02 -0.15081593554E+03 -0.97333515676E+03  0.99419818555E+03  0.12500000000E+03 0.  0.
         25    1    1    2    0    0  0.51751892191E+02  0.15081593554E+03 -0.44404895518E+03  0.48808624172E+03  0.12500000000E+03 0.  0.
</event>
<event>
 4    0  0.2156764E-002  0.1765771E+03  0.7546771E-02  0.1171157E+00
         21   -1    0    0  502  501  0.00000000000E+00  0.00000000000E+00  0.22578593886E+03  0.22578593886E+03  0.00000000000E+00 0.  1.
         21   -1    0    0  501  502 -0.00000000000E+00 -0.00000000000E+00 -0.13809301094E+03  0.13809301094E+03  0.00000000000E+00 0.  1.
         25    1    1    2    0    0 -0.57926323000E+02 -0.10059692491E+03  0.90830144330E+02  0.19326229668E+03  0.12500000000E+03 0.  0.
         25    1    1    2    0    0  0.57926323000E+02  0.10059692491E+03 -0.31372164078E+01  0.17061665313E+03  0.12500000000E+03 0.  0.
</event>
<event>
 4    0  0.2156764E-002  0.1935954E+03  0.7546771E-02  0.1155258E+00
         21   -1    0    0  502  501  0.00000000000E+00  0.00000000000E+00  0.43093736851E+02  0.43093736851E+02  0.00000000000E+00 0.  1.
         21   -1    0    0  501  502 -0.00000000000E+00 -0.00000000000E+00 -0.86971267553E+03  0.86971267553E+03  0.00000000000E+00 0.  1.
         25    1    1    2    0    0 -0.67901056909E+02  0.23272648618E+02 -0.10863368212E+03  0.18049500435E+03  0.12500000000E+03 0.  0.
         25    1    1    2    0    0  0.67901056909E+02 -0.23272648618E+02 -0.71798525656E+03  0.73231140803E+03  0.12500000000E+03 0.  0.
</event>
<event>
 4    0  0.2156764E-002  0.1484303E+03  0.7546771E-02  0.1202415E+00
         21   -1    0    0  502  501  0.00000000000E+00  0.00000000000E+00  0.26741917440E+02  0.26741917440E+02  0.00000000000E+00 0. -1.
         21   -1    0    0  501  502 -0.00000000000E+00 -0.00000000000E+00 -0.82385896557E+03  0.82385896557E+03  0.00000000000E+00 0. -1.
         25    1    1    2    0    0 -0.25572150104E+02  0.22049990349E+02 -0.60649531901E+03  0.62016264715E+03  0.12500000000E+03 0.  0.
         25    1    1    2    0    0  0.25572150104E+02 -0.22049990349E+02 -0.19062172912E+03  0.23043823586E+03  0.12500000000E+03 0.  0.
</event>
<event>
 4    0  0.2156764E-002  0.2678255E+03  0.7546771E-02  0.1102531E+00
         21   -1    0    0  502  501  0.00000000000E+00  0.00000000000E+00  0.11657958843E+03  0.11657958843E+03  0.00000000000E+00 0.  1.
         21   -1    0    0  501  502 -0.00000000000E+00 -0.00000000000E+00 -0.61529201085E+03  0.61529201085E+03  0.00000000000E+00 0.  1.
         25    1    1    2    0    0 -0.12953558614E+03  0.15665937368E+03 -0.41548578508E+03  0.47913992220E+03  0.12500000000E+03 0.  0.
         25    1    1    2    0    0  0.12953558614E+03 -0.15665937368E+03 -0.83226637337E+02  0.25273167708E+03  0.12500000000E+03 0.  0.
</event>
<event>
 4    0  0.2156764E-002  0.2199910E+03  0.7546771E-02  0.1133890E+00
         21   -1    0    0  502  501  0.00000000000E+00  0.00000000000E+00  0.62975844326E+02  0.62975844326E+02  0.00000000000E+00 0. -1.
         21   -1    0    0  501  502 -0.00000000000E+00 -0.00000000000E+00 -0.76848577547E+03  0.76848577547E+03  0.00000000000E+00 0. -1.
         25    1    1    2    0    0 -0.13040535925E+03 -0.12402639954E+03 -0.31577471421E+03  0.38435241074E+03  0.12500000000E+03 0.  0.
         25    1    1    2    0    0  0.13040535925E+03  0.12402639954E+03 -0.38973521694E+03  0.44710920906E+03  0.12500000000E+03 0.  0.
</event>
<event>
 4    0  0.2156764E-002  0.2973821E+03  0.7546771E-02  0.1086557E+00
         21   -1    0    0  502  501  0.00000000000E+00  0.00000000000E+00  0.19835405056E+03  0.19835405056E+03  0.00000000000E+00 0. -1.
         21   -1    0    0  501  502 -0.00000000000E+00 -0.00000000000E+00 -0.44584977253E+03  0.44584977253E+03  0.00000000000E+00 0. -1.
         25    1    1    2    0    0 -0.12853218540E+01 -0.26816702130E+03 -0.15616759596E+03  0.33455720198E+03  0.12500000000E+03 0.  0.
         25    1    1    2    0    0  0.12853218540E+01  0.26816702130E+03 -0.91328126014E+02  0.30964662112E+03  0.12500000000E+03 0.  0.
</event>
<event>
 4    0  0.2156764E-002  0.1916964E+03  0.7546771E-02  0.1156940E+00
         21   -1    0    0  502  501  0.00000000000E+00  0.00000000000E+00  0.29553331857E+03  0.29553331857E+03  0.00000000000E+00 0.  1.
         21   -1    0    0  501  502 -0.00000000000E+00 -0.00000000000E+00 -0.12434308228E+03  0.12434308228E+03  0.00000000000E+00 0.  1.
         25    1    1    2    0    0 -0.59481136051E+02  0.91776348522E+02  0.19041980386E+03  0.25267687943E+03  0.12500000000E+03 0.  0.
         25    1    1    2    0    0  0.59481136051E+02 -0.91776348522E+02 -0.19229567575E+02  0.16719952142E+03  0.12500000000E+03 0.  0.
</event>
<event>
 4    0  0.2156764E-002  0.2684234E+03  0.7546771E-02  0.1102185E+00
         21   -1    0    0  502  501  0.00000000000E+00  0.00000000000E+00  0.11743810391E+03  0.11743810391E+03  0.00000000000E+00 0.  1.
         21   -1    0    0  501  502 -0.00000000000E+00 -0.00000000000E+00 -0.61352438103E+03  0.61352438103E+03  0.00000000000E+00 0.  1.
         25    1    1    2    0    0 -0.23020274984E+03 -0.58556240444E+02 -0.24531973766E+03  0.36363293719E+03  0.12500000000E+03 0.  0.
         25    1    1    2    0    0  0.23020274984E+03  0.58556240444E+02 -0.25076653946E+03  0.36732954774E+03  0.12500000000E+03 0.  0.
</event>
<event>
 4    0  0.2156764E-002  0.2271951E+03  0.7546771E-02  0.1128630E+00
         21   -1    0    0  502  501  0.00000000000E+00  0.00000000000E+00  0.11567827786E+04  0.11567827786E+04  0.00000000000E+00 0. -1.
         21   -1    0    0  501  502 -0.00000000000E+00 -0.00000000000E+00 -0.44621698523E+02  0.44621698523E+02  0.00000000000E+00 0. -1.
         25    1    1    2    0    0 -0.79175915069E+02  0.53797495291E+02  0.12300114069E+03  0.19979308456E+03  0.12500000000E+03 0.  0.
         25    1    1    2    0    0  0.79175915069E+02 -0.53797495291E+02  0.98915993942E+03  0.10016113926E+04  0.12500000000E+03 0.  0.
</event>
<event>
 4    0  0.2156764E-002  0.2142496E+03  0.7546771E-02  0.1138244E+00
         21   -1    0    0  502  501  0.00000000000E+00  0.00000000000E+00  0.26036156425E+03  0.26036156425E+03  0.00000000000E+00 0.  1.
         21   -1    0    0  501  502 -0.00000000000E+00 -0.00000000000E+00 -0.17630442291E+03  0.17630442291E+03  0.00000000000E+00 0.  1.
         25    1    1    2    0    0  0.15705841682E+03 -0.23714328137E+02  0.11443326624E+03  0.23227072152E+03  0.12500000000E+03 0.  0.
         25    1    1    2    0    0 -0.15705841682E+03  0.23714328137E+02 -0.30376124896E+02  0.20439526564E+03  0.12500000000E+03 0.  0.
</event>
<event>
 4    0  0.2156764E-002  0.1984356E+03  0.7546771E-02  0.1151066E+00
         21   -1    0    0  502  501  0.00000000000E+00  0.00000000000E+00  0.15885969569E+04  0.15885969569E+04  0.00000000000E+00 0.  1.
         21   -1    0    0  501  502 -0.00000000000E+00 -0.00000000000E+00 -0.24787089122E+02  0.24787089122E+02  0.00000000000E+00 0.  1.
         25    1    1    2    0    0 -0.12457485236E+03 -0.22968161928E+02  0.11387518090E+04  0.11525741247E+04  0.12500000000E+03 0.  0.
         25    1    1    2    0    0  0.12457485236E+03  0.22968161928E+02  0.42505805872E+03  0.46080992131E+03  0.12500000000E+03 0.  0.
</event>
<event>
 4    0  0.2156764E-002  0.1890257E+03  0.7546771E-02  0.1159343E+00
         21   -1    0    0  502  501  0.00000000000E+00  0.00000000000E+00  0.79389533199E+02  0.79389533199E+02  0.00000000000E+00 0.  1.
         21   -1    0    0  501  502 -0.00000000000E+00 -0.00000000000E+00 -0.45006850660E+03  0.45006850660E+03  0.00000000000E+00 0.  1.
         25    1    1    2    0    0  0.72256508395E+02 -0.87291565016E+01 -0.14913211198E+02  0.14541184631E+03  0.12500000000E+03 0.  0.
         25    1    1    2    0    0 -0.72256508395E+02  0.87291565016E+01 -0.35576576220E+03  0.38404619349E+03  0.12500000000E+03 0.  0.
</event>
<event>
 4    0  0.2156764E-002  0.1793414E+03  0.7546771E-02  0.1168442E+00
         21   -1    0    0  502  501  0.00000000000E+00  0.00000000000E+00  0.17880355344E+03  0.17880355344E+03  0.00000000000E+00 0. -1.
         21   -1    0    0  501  502 -0.00000000000E+00 -0.00000000000E+00 -0.17988086237E+03  0.17988086237E+03  0.00000000000E+00 0. -1.
         25    1    1    2    0    0 -0.78004142269E+02 -0.66102723876E+01 -0.10256850002E+03  0.17964865463E+03  0.12500000000E+03 0.  0.
         25    1    1    2    0    0  0.78004142269E+02  0.66102723876E+01  0.10149119109E+03  0.17903576118E+03  0.12500000000E+03 0.  0.
</event>
<event>
 4    0  0.2156764E-002  0.2182998E+03  0.7546771E-02  0.1135157E+00
         21   -1    0    0  502  501  0.00000000000E+00  0.00000000000E+00  0.54084187959E+02  0.54084187959E+02  0.00000000000E+00 0.  1.
         21   -1    0    0  501  502 -0.00000000000E+00 -0.00000000000E+00 -0.88112226524E+03  0.88112226524E+03  0.00000000000E+00 0.  1.
         25    1    1    2    0    0 -0.16281000753E+03 -0.29519262525E+02 -0.26743213607E+03  0.33841310969E+03  0.12500000000E+03 0.  0.
         25    1    1    2    0    0  0.16281000753E+03  0.29519262525E+02 -0.55960594121E+03  0.59679334350E+03  0.12500000000E+03 0.  0.
</event>
<event>
 4    0  0.2156764E-002  0.1830070E+03  0.7546771E-02  0.1164924E+00
         21   -1    0    0  502  501  0.00000000000E+00  0.00000000000E+00  0.19728638527E+03  0.19728638527E+03  0.00000000000E+00 0. -1.
         21   -1    0    0  501  502 -0.00000000000E+00 -0.00000000000E+00 -0.16976121199E+03  0.16976121199E+03  0.00000000000E+00 0. -1.
         25    1    1    2    0    0 -0.11536529537E+03 -0.61260493716E+02 -0.14682564478E+02  0.18139067552E+03  0.12500000000E+03 0.  0.
         25    1    1    2    0    0  0.11536529537E+03  0.61260493716E+02  0.42207737760E+02  0.18565692175E+03  0.12500000000E+03 0.  0.
</event>
<event>
 4    0  0.2156764E-002  0.2439037E+03  0.7546771E-02  0.1117219E+00
         21   -1    0    0  502  501  0.00000000000E+00  0.00000000000E+00  0.21125139620E+03  0.21125139620E+03  0.00000000000E+00 0.  1.
         21   -1    0    0  501  502 -0.00000000000E+00 -0.00000000000E+00 -0.28160303462E+03  0.28160303462E+03  0.00000000000E+00 0.  1.
         25    1    1    2    0    0 -0.28711736932E+02 -0.15726801461E+03  0.10152533520E+03  0.22691404968E+03  0.12500000000E+03 0.  0.
         25    1    1    2    0    0  0.28711736932E+02  0.15726801461E+03 -0.17187697362E+03  0.26594038113E+03  0.12500000000E+03 0.  0.
</event>
<event>
 4    0  0.2156764E-002  0.1770725E+03  0.7546771E-02  0.1170667E+00
         21   -1    0    0  502  501  0.00000000000E+00  0.00000000000E+00  0.21812664912E+03  0.21812664912E+03  0.00000000000E+00 0. -1.
         21   -1    0    0  501  502 -0.00000000000E+00 -0.00000000000E+00 -0.14374530100E+03  0.14374530100E+03  0.00000000000E+00 0. -1.
         25    1    1    2    0    0 -0.11643160994E+03 -0.33895383248E+02  0.44850762772E+01  0.17421346879E+03  0.12500000000E+03 0.  0.
         25    1    1    2    0    0  0.11643160994E+03  0.33895383248E+02  0.69896271836E+02  0.18765848133E+03  0.12500000000E+03 0.  0.
</event>
<event>
 4    0  0.2156764E-002  0.2094338E+03  0.7546771E-02  0.1142015E+00
         21   -1    0    0  502  501  0.00000000000E+00  0.00000000000E+00  0.32282965671E+04  0.32282965671E+04  0.00000000000E+00 0.  1.
         21   -1    0    0  501  502 -0.00000000000E+00 -0.00000000000E+00 -0.13586885876E+02  0.13586885876E+02  0.00000000000E+00 0.  1.
         25    1    1    2    0    0  0.52471214574E+02 -0.15015164346E+03  0.20269227291E+04  0.20369927576E+04  0.12500000000E+03 0.  0.
         25    1    1    2    0    0 -0.52471214574E+02  0.15015164346E+03  0.11877869521E+04  0.12048906954E+04  0.12500000000E+03 0.  0.
</event>
<event>
 4    0  0.2156764E-002  0.4243241E+03  0.7546771E-02  0.1035668E+00
         21   -1    0    0  502  501  0.00000000000E+00  0.00000000000E+00  0.35515284109E+03  0.35515284109E+03  0.00000000000E+00 0.  1.
         21   -1    0    0  501  502 -0.00000000000E+00 -0.00000000000E+00 -0.50696747549E+03  0.50696747549E+03  0.00000000000E+00 0.  1.
         25    1    1    2    0    0 -0.29225517015E+03  0.13659268734E+03  0.17366583716E+03  0.38711170185E+03  0.12500000000E+03 0.  0.
         25    1    1    2    0    0  0.29225517015E+03 -0.13659268734E+03 -0.32548047155E+03  0.47500861473E+03  0.12500000000E+03 0.  0.
</event>
<event>
 4    0  0.2156764E-002  0.1948841E+03  0.7546771E-02  0.1154129E+00
         21   -1    0    0  502  501  0.00000000000E+00  0.00000000000E+00  0.22339656490E+03  0.22339656490E+03  0.00000000000E+00 0.  1.
         21   -1    0    0  501  502 -0.00000000000E+00 -0.00000000000E+00 -0.17001069040E+03  0.17001069040E+03  0.00000000000E+00 0.  1.
         25    1    1    2    0    0  0.12917057247E+03 -0.49521312529E+02  0.83944719740E+02  0.20447276875E+03  0.12500000000E+03 0.  0.
         25    1    1    2    0    0 -0.12917057247E+03  0.49521312529E+02 -0.30558845245E+02  0.18893448655E+03  0.12500000000E+03 0.  0.
</event>
<event>
 4    0  0.2156764E-002  0.2442086E+03  0.7546771E-02  0.1117021E+00
         21   -1    0    0  502  501  0.00000000000E+00  0.00000000000E+00  0.18339203395E+03  0.18339203395E+03  0.00000000000E+00 0. -1.
         21   -1    0    0  501  502 -0.00000000000E+00 -0.00000000000E+00 -0.32519318768E+03  0.32519318768E+03  0.00000000000E+00 0. -1.
         25    1    1    2    0    0 -0.90848981782E+02 -0.19359097455E+01 -0.26780004751E+03  0.30919112323E+03  0.12500000000E+03 0.  0.
         25    1    1    2    0    0  0.90848981782E+02  0.19359097455E+01  0.12599889379E+03  0.19939409839E+03  0.12500000000E+03 0.  0.
</event>
<event>
 4    0  0.2156764E-002  0.3159859E+03  0.7546771E-02  0.1077512E+00
         21   -1    0    0  502  501  0.00000000000E+00  0.00000000000E+00  0.88538090178E+02  0.88538090178E+02  0.00000000000E+00 0. -1.
         21   -1    0    0  501  502 -0.00000000000E+00 -0.00000000000E+00 -0.11277302461E+04  0.11277302461E+04  0.00000000000E+00 0. -1.
         25    1    1    2    0    0 -0.11005513947E+03  0.16800472265E+03 -0.11642756326E+03  0.26366284919E+03  0.12500000000E+03 0.  0.
         25    1    1    2    0    0  0.11005513947E+03 -0.16800472265E+03 -0.92276459267E+03  0.95260548710E+03  0.12500000000E+03 0.  0.
</event>
<event>
 4    0  0.2156764E-002  0.2050831E+03  0.7546771E-02  0.1145520E+00
         21   -1    0    0  502  501  0.00000000000E+00  0.00000000000E+00  0.24617810513E+03  0.24617810513E+03  0.00000000000E+00 0. -1.
         21   -1    0    0  501  502 -0.00000000000E+00 -0.00000000000E+00 -0.17084814564E+03  0.17084814564E+03  0.00000000000E+00 0. -1.
         25    1    1    2    0    0 -0.97255321091E+02  0.87466410094E+01 -0.94505263228E+02  0.18463841959E+03  0.12500000000E+03 0.  0.
         25    1    1    2    0    0  0.97255321091E+02 -0.87466410094E+01  0.16983522272E+03  0.23238783119E+03  0.12500000000E+03 0.  0.
</event>
<event>
 4    0  0.2156764E-002  0.1725930E+03  0.7546771E-02  0.1175170E+00
         21   -1    0    0  502  501  0.00000000000E+00  0.00000000000E+00  0.30271675677E+03  0.30271675677E+03  0.00000000000E+00 0. -1.
         21   -1    0    0  501  502 -0.00000000000E+00 -0.00000000000E+00 -0.98403302350E+02  0.98403302350E+02  0.00000000000E+00 0. -1.
         25    1    1    2    0    0 -0.11077875321E+03 -0.20459190724E+01  0.51675314440E+02  0.17484695041E+03  0.12500000000E+03 0.  0.
         25    1    1    2    0    0  0.11077875321E+03  0.20459190724E+01  0.15263813998E+03  0.22627310871E+03  0.12500000000E+03 0.  0.
</event>
<event>
 4    0  0.2156764E-002  0.1796935E+03  0.7546771E-02  0.1168100E+00
         21   -1    0    0  502  501  0.00000000000E+00  0.00000000000E+00  0.40020743094E+03  0.40020743094E+03  0.00000000000E+00 0.  1.
         21   -1    0    0  501  502 -0.00000000000E+00 -0.00000000000E+00 -0.80682514263E+02  0.80682514263E+02  0.00000000000E+00 0.  1.
         25    1    1    2    0    0  0.93924110752E+02  0.71908034910E+01  0.27787288918E+03  0.31892285710E+03  0.12500000000E+03 0.  0.
         25    1    1    2    0    0 -0.93924110752E+02 -0.71908034910E+01  0.41652027492E+02  0.16196708811E+03  0.12500000000E+03 0.  0.
</event>
<event>
 4    0  0.2156764E-002  0.1816547E+03  0.7546771E-02  0.1166211E+00
         21   -1    0    0  502  501  0.00000000000E+00  0.00000000000E+00  0.27862982273E+03  0.27862982273E+03  0.00000000000E+00 0. -1.
         21   -1    0    0  501  502 -0.00000000000E+00 -0.00000000000E+00 -0.11843108499E+03  0.11843108499E+03  0.00000000000E+00 0. -1.
         25    1    1    2    0    0  0.73211359729E+02 -0.10953470701E+03  0.75772121424E+02  0.19678457668E+03  0.12500000000E+03 0.  0.
         25    1    1    2    0    0 -0.73211359729E+02  0.10953470701E+03  0.84426616326E+02  0.20027633104E+03  0.12500000000E+03 0.  0.
</event>
<event>
 4    0  0.2156764E-002  0.1871006E+03  0.7546771E-02  0.1161103E+00
         21   -1    0    0  502  501  0.00000000000E+00  0.00000000000E+00  0.95282050568E+03  0.95282050568E+03  0.00000000000E+00 0.  1.
         21   -1    0    0  501  502 -0.00000000000E+00 -0.00000000000E+00 -0.36739998112E+02  0.36739998112E+02  0.00000000000E+00 0.  1.
         25    1    1    2    0    0  0.47358438285E+02 -0.12927886405E+03  0.51260704965E+03  0.54529518036E+03  0.12500000000E+03 0.  0.
         25    1    1    2    0    0 -0.47358438285E+02  0.12927886405E+03  0.40347345792E+03  0.44426532344E+03  0.12500000000E+03 0.  0.
</event>
<event>
 4    0  0.2156764E-002  0.2201757E+03  0.7546771E-02  0.1133752E+00
         21   -1    0    0  502  501  0.00000000000E+00  0.00000000000E+00  0.60310728293E+03  0.60310728293E+03  0.00000000000E+00 0. -1.
         21   -1    0    0  501  502 -0.00000000000E+00 -0.00000000000E+00 -0.80379261501E+02  0.80379261501E+02  0.00000000000E+00 0.  1.
         25    1    1    2    0    0 -0.71024013764E+02 -0.13063208041E+03  0.42224207996E+03  0.46478223401E+03  0.12500000000E+03 0.  0.
         25    1    1    2    0    0  0.71024013764E+02  0.13063208041E+03  0.10048594147E+03  0.21870431042E+03  0.12500000000E+03 0.  0.
</event>
<event>
 4    0  0.2156764E-002  0.1536703E+03  0.7546771E-02  0.1196034E+00
         21   -1    0    0  502  501  0.00000000000E+00  0.00000000000E+00  0.14299084369E+03  0.14299084369E+03  0.00000000000E+00 0.  1.
         21   -1    0    0  501  502 -0.00000000000E+00 -0.00000000000E+00 -0.16514745262E+03  0.16514745262E+03  0.00000000000E+00 0.  1.
         25    1    1    2    0    0 -0.31532791565E+02  0.39482245997E+02  0.62845053161E+02  0.14875370718E+03  0.12500000000E+03 0.  0.
         25    1    1    2    0    0  0.31532791565E+02 -0.39482245997E+02 -0.85001662089E+02  0.15938458913E+03  0.12500000000E+03 0.  0.
</event>
<event>
 4    0  0.2156764E-002  0.1885686E+03  0.7546771E-02  0.1159759E+00
         21   -1    0    0  502  501  0.00000000000E+00  0.00000000000E+00  0.83134883653E+03  0.83134883653E+03  0.00000000000E+00 0.  1.
         21   -1    0    0  501  502 -0.00000000000E+00 -0.00000000000E+00 -0.42771618937E+02  0.42771618937E+02  0.00000000000E+00 0.  1.
         25    1    1    2    0    0 -0.83780349834E+01  0.14072232593E+03  0.41226762683E+03  0.45327978183E+03  0.12500000000E+03 0.  0.
         25    1    1    2    0    0  0.83780349834E+01 -0.14072232593E+03  0.37630959076E+03  0.42084067364E+03  0.12500000000E+03 0.  0.
</event>
<event>
 4    0  0.2156764E-002  0.2069036E+03  0.7546771E-02  0.1144042E+00
         21   -1    0    0  502  501  0.00000000000E+00  0.00000000000E+00  0.24554941633E+03  0.24554941633E+03  0.00000000000E+00 0.  1.
         21   -1    0    0  501  502 -0.00000000000E+00 -0.00000000000E+00 -0.17434004991E+03  0.17434004991E+03  0.00000000000E+00 0.  1.
         25    1    1    2    0    0  0.14200119334E+03 -0.32169361421E+02  0.11410385276E+03  0.22325746558E+03  0.12500000000E+03 0.  0.
         25    1    1    2    0    0 -0.14200119334E+03  0.32169361421E+02 -0.42894486333E+02  0.19663200065E+03  0.12500000000E+03 0.  0.
</event>
<event>
 4    0  0.2156764E-002  0.2274049E+03  0.7546771E-02  0.1128480E+00
         21   -1    0    0  502  501  0.00000000000E+00  0.00000000000E+00  0.31412650110E+02  0.31412650110E+02  0.00000000000E+00 0. -1.
         21   -1    0    0  501  502 -0.00000000000E+00 -0.00000000000E+00 -0.16462476713E+04  0.16462476713E+04  0.00000000000E+00 0. -1.
         25    1    1    2    0    0  0.32019758389E+02 -0.30505590397E+02 -0.14889019757E+04  0.14947942832E+04  0.12500000000E+03 0.  0.
         25    1    1    2    0    0 -0.32019758389E+02  0.30505590397E+02 -0.12593304553E+03  0.18286603821E+03  0.12500000000E+03 0.  0.
</event>
<event>
 4    0  0.2156764E-002  0.2567214E+03  0.7546771E-02  0.1109129E+00
         21   -1    0    0  502  501  0.00000000000E+00  0.00000000000E+00  0.14966138724E+03  0.14966138724E+03  0.00000000000E+00 0.  1.
         21   -1    0    0  501  502 -0.00000000000E+00 -0.00000000000E+00 -0.44036665768E+03  0.44036665768E+03  0.00000000000E+00 0.  1.
         25    1    1    2    0    0  0.13892379599E+03  0.12968856661E+03 -0.28210723047E+03  0.36239265291E+03  0.12500000000E+03 0.  0.
         25    1    1    2    0    0 -0.13892379599E+03 -0.12968856661E+03 -0.85980399781E+01  0.22763539201E+03  0.12500000000E+03 0.  0.
</event>
<event>
 4    0  0.2156764E-002  0.1985200E+03  0.7546771E-02  0.1150994E+00
         21   -1    0    0  502  501  0.00000000000E+00  0.00000000000E+00  0.39816524859E+03  0.39816524859E+03  0.00000000000E+00 0. -1.
         21   -1    0    0  501  502 -0.00000000000E+00 -0.00000000000E+00 -0.98979532056E+02  0.98979532056E+02  0.00000000000E+00 0. -1.
         25    1    1    2    0    0  0.69413063911E+02  0.10835748944E+03  0.25602877564E+03  0.31262637911E+03  0.12500000000E+03 0.  0.
         25    1    1    2    0    0 -0.69413063911E+02 -0.10835748944E+03  0.43156940891E+02  0.18451840154E+03  0.12500000000E+03 0.  0.
</event>
<event>
 4    0  0.2156764E-002  0.2389705E+03  0.7546771E-02  0.1120481E+00
         21   -1    0    0  502  501  0.00000000000E+00  0.00000000000E+00  0.63794069862E+02  0.63794069862E+02  0.00000000000E+00 0. -1.
         21   -1    0    0  501  502 -0.00000000000E+00 -0.00000000000E+00 -0.89517566231E+03  0.89517566231E+03  0.00000000000E+00 0. -1.
         25    1    1    2    0    0  0.15150883984E+03  0.12950021277E+03 -0.49978675003E+03  0.55239209731E+03  0.12500000000E+03 0.  0.
         25    1    1    2    0    0 -0.15150883984E+03 -0.12950021277E+03 -0.33159484241E+03  0.40657763486E+03  0.12500000000E+03 0.  0.
</event>
<event>
 4    0  0.2156764E-002  0.2179673E+03  0.7546771E-02  0.1135408E+00
         21   -1    0    0  502  501  0.00000000000E+00  0.00000000000E+00  0.75080868634E+03  0.75080868634E+03  0.00000000000E+00 0. -1.
         21   -1    0    0  501  502 -0.00000000000E+00 -0.00000000000E+00 -0.63278072392E+02  0.63278072392E+02  0.00000000000E+00 0.  1.
         25    1    1    2    0    0  0.14227238528E+03 -0.10667524403E+03  0.37408982290E+03  0.43265371245E+03  0.12500000000E+03 0.  0.
         25    1    1    2    0    0 -0.14227238528E+03  0.10667524403E+03  0.31344079105E+03  0.38143304628E+03  0.12500000000E+03 0.  0.
</event>
<event>
 4    0  0.2156764E-002  0.2921785E+03  0.7546771E-02  0.1089217E+00
         21   -1    0    0  502  501  0.00000000000E+00  0.00000000000E+00  0.22650464954E+03  0.22650464954E+03  0.00000000000E+00 0. -1.
         21   -1    0    0  501  502 -0.00000000000E+00 -0.00000000000E+00 -0.37689413743E+03  0.37689413743E+03  0.00000000000E+00 0. -1.
         25    1    1    2    0    0 -0.14117853319E+03 -0.22261459882E+03 -0.58717420791E+02  0.29759262986E+03  0.12500000000E+03 0.  0.
         25    1    1    2    0    0  0.14117853319E+03  0.22261459882E+03 -0.91672067092E+02  0.30580615711E+03  0.12500000000E+03 0.  0.
</event>
<event>
 4    0  0.2168450E-002  0.2393826E+03  0.7546771E-02  0.1120205E+00
         21   -1    0    0  502  501  0.00000000000E+00  0.00000000000E+00  0.51856884704E+03  0.51856884704E+03  0.00000000000E+00 0.  1.
         21   -1    0    0  501  502 -0.00000000000E+00 -0.00000000000E+00 -0.11050422816E+03  0.11050422816E+03  0.00000000000E+00 0.  1.
         25    1    1    2    0    0  0.25134892909E+02  0.23075821247E+02  0.46850769509E+03  0.48609537822E+03  0.12500000000E+03 0.  0.
         25    1    1    2    0    0 -0.25134892909E+02 -0.23075821247E+02 -0.60443076214E+02  0.14297769697E+03  0.12500000000E+03 0.  0.
</event>
<event>
 4    0  0.2156764E-002  0.1953602E+03  0.7546771E-02  0.1153714E+00
         21   -1    0    0  502  501  0.00000000000E+00  0.00000000000E+00  0.19863176075E+03  0.19863176075E+03  0.00000000000E+00 0. -1.
         21   -1    0    0  501  502 -0.00000000000E+00 -0.00000000000E+00 -0.19214251019E+03  0.19214251019E+03  0.00000000000E+00 0. -1.
         25    1    1    2    0    0  0.14050781150E+03 -0.52060948440E+02 -0.61277752318E+01  0.19523149612E+03  0.12500000000E+03 0.  0.
         25    1    1    2    0    0 -0.14050781150E+03  0.52060948440E+02  0.12617025785E+02  0.19554277482E+03  0.12500000000E+03 0.  0.
</event>
<event>
 4    0  0.2156764E-002  0.1805249E+03  0.7546771E-02  0.1167296E+00
         21   -1    0    0  502  501  0.00000000000E+00  0.00000000000E+00  0.42978327893E+03  0.42978327893E+03  0.00000000000E+00 0.  1.
         21   -1    0    0  501  502 -0.00000000000E+00 -0.00000000000E+00 -0.75827115049E+02  0.75827115049E+02  0.00000000000E+00 0.  1.
         25    1    1    2    0    0 -0.71116521374E+02 -0.67263875434E+02  0.56656652489E+02  0.16857332180E+03  0.12500000000E+03 0.  0.
         25    1    1    2    0    0  0.71116521374E+02  0.67263875434E+02  0.29729951139E+03  0.33703707218E+03  0.12500000000E+03 0.  0.
</event>
<event>
 4    0  0.2156764E-002  0.2714909E+03  0.7546771E-02  0.1100429E+00
         21   -1    0    0  502  501  0.00000000000E+00  0.00000000000E+00  0.31496153746E+03  0.31496153746E+03  0.00000000000E+00 0. -1.
         21   -1    0    0  501  502 -0.00000000000E+00 -0.00000000000E+00 -0.23402002010E+03  0.23402002010E+03  0.00000000000E+00 0. -1.
         25    1    1    2    0    0 -0.57967006476E+02  0.12949493918E+03  0.23743919960E+03  0.30353168965E+03  0.12500000000E+03 0.  0.
         25    1    1    2    0    0  0.57967006476E+02 -0.12949493918E+03 -0.15649768224E+03  0.24544986791E+03  0.12500000000E+03 0.  0.
</event>
<event>
 4    0  0.2156764E-002  0.2156202E+03  0.7546771E-02  0.1137191E+00
         21   -1    0    0  502  501  0.00000000000E+00  0.00000000000E+00  0.14754471892E+03  0.14754471892E+03  0.00000000000E+00 0. -1.
         21   -1    0    0  501  502 -0.00000000000E+00 -0.00000000000E+00 -0.31510502877E+03  0.31510502877E+03  0.00000000000E+00 0. -1.
         25    1    1    2    0    0 -0.91158560510E+02 -0.91666176105E+02 -0.21141824037E+03  0.27755223537E+03  0.12500000000E+03 0.  0.
         25    1    1    2    0    0  0.91158560510E+02  0.91666176105E+02  0.43857930521E+02  0.18509751232E+03  0.12500000000E+03 0.  0.
</event>
<event>
 4    0  0.2156764E-002  0.1820000E+03  0.7546771E-02  0.1165881E+00
         21   -1    0    0  502  501  0.00000000000E+00  0.00000000000E+00  0.67509149719E+03  0.67509149719E+03  0.00000000000E+00 0. -1.
         21   -1    0    0  501  502 -0.00000000000E+00 -0.00000000000E+00 -0.49065956588E+02  0.49065956588E+02  0.00000000000E+00 0. -1.
         25    1    1    2    0    0 -0.89315205752E+02  0.95795620054E+02  0.34996521505E+03  0.39402367765E+03  0.12500000000E+03 0.  0.
         25    1    1    2    0    0  0.89315205752E+02 -0.95795620054E+02  0.27606032555E+03  0.33013377613E+03  0.12500000000E+03 0.  0.
</event>
<event>
 4    0  0.2156764E-002  0.1768802E+03  0.7546771E-02  0.1170857E+00
         21   -1    0    0  502  501  0.00000000000E+00  0.00000000000E+00  0.70755989279E+02  0.70755989279E+02  0.00000000000E+00 0.  1.
         21   -1    0    0  501  502 -0.00000000000E+00 -0.00000000000E+00 -0.44217590441E+03  0.44217590441E+03  0.00000000000E+00 0.  1.
         25    1    1    2    0    0 -0.44518943586E+02 -0.24922529307E+02 -0.35140046439E+03  0.37644435868E+03  0.12500000000E+03 0.  0.
         25    1    1    2    0    0  0.44518943586E+02  0.24922529307E+02 -0.20019450736E+02  0.13648753501E+03  0.12500000000E+03 0.  0.
</event>
<event>
 4    0  0.2156764E-002  0.1635190E+03  0.7546771E-02  0.1184780E+00
         21   -1    0    0  502  501  0.00000000000E+00  0.00000000000E+00  0.19926872495E+03  0.19926872495E+03  0.00000000000E+00 0. -1.
         21   -1    0    0  501  502 -0.00000000000E+00 -0.00000000000E+00 -0.13418293963E+03  0.13418293963E+03  0.00000000000E+00 0. -1.
         25    1    1    2    0    0  0.92549919975E+02  0.50329232412E+02  0.28601337380E+02  0.16595648774E+03  0.12500000000E+03 0.  0.
         25    1    1    2    0    0 -0.92549919975E+02 -0.50329232412E+02  0.36484447941E+02  0.16749517684E+03  0.12500000000E+03 0.  0.
</event>
<event>
 4    0  0.2156764E-002  0.1946067E+03  0.7546771E-02  0.1154371E+00
         21   -1    0    0  502  501  0.00000000000E+00  0.00000000000E+00  0.22789111799E+03  0.22789111799E+03  0.00000000000E+00 0. -1.
         21   -1    0    0  501  502 -0.00000000000E+00 -0.00000000000E+00 -0.16618352581E+03  0.16618352581E+03  0.00000000000E+00 0. -1.
         25    1    1    2    0    0 -0.41925061774E+02 -0.13489747745E+03  0.79323522906E+02  0.20462712800E+03  0.12500000000E+03 0.  0.
         25    1    1    2    0    0  0.41925061774E+02  0.13489747745E+03 -0.17615930728E+02  0.18944751580E+03  0.12500000000E+03 0.  0.
</event>
<event>
 4    0  0.2156764E-002  0.1697653E+03  0.7546771E-02  0.1178093E+00
         21   -1    0    0  502  501  0.00000000000E+00  0.00000000000E+00  0.72190178282E+02  0.72190178282E+02  0.00000000000E+00 0.  1.
         21   -1    0    0  501  502 -0.00000000000E+00 -0.00000000000E+00 -0.39922691576E+03  0.39922691576E+03  0.00000000000E+00 0.  1.
         25    1    1    2    0    0 -0.90209097551E+02 -0.66183675353E+01 -0.26183091031E+03  0.30391102261E+03  0.12500000000E+03 0.  0.
         25    1    1    2    0    0  0.90209097551E+02  0.66183675353E+01 -0.65205827167E+02  0.16750607143E+03  0.12500000000E+03 0.  0.
</event>
<event>
 4    0  0.2156764E-002  0.2880598E+03  0.7546771E-02  0.1091367E+00
         21   -1    0    0  502  501  0.00000000000E+00  0.00000000000E+00  0.50925993792E+03  0.50925993792E+03  0.00000000000E+00 0. -1.
         21   -1    0    0  501  502 -0.00000000000E+00 -0.00000000000E+00 -0.16293922582E+03  0.16293922582E+03  0.00000000000E+00 0. -1.
         25    1    1    2    0    0  0.24548307767E+03  0.84095586882E+02  0.17830088586E+03  0.33874801114E+03  0.12500000000E+03 0.  0.
         25    1    1    2    0    0 -0.24548307767E+03 -0.84095586882E+02  0.16801982625E+03  0.33345115260E+03  0.12500000000E+03 0.  0.
</event>
<event>
 4    0  0.2156764E-002  0.2479921E+03  0.7546771E-02  0.1114580E+00
         21   -1    0    0  502  501  0.00000000000E+00  0.00000000000E+00  0.74594211220E+02  0.74594211220E+02  0.00000000000E+00 0.  1.
         21   -1    0    0  501  502 -0.00000000000E+00 -0.00000000000E+00 -0.82446182169E+03  0.82446182169E+03  0.00000000000E+00 0.  1.
         25    1    1    2    0    0  0.13697195991E+01  0.21022768963E+03 -0.44917637458E+03  0.51145085111E+03  0.12500000000E+03 0.  0.
         25    1    1    2    0    0 -0.13697195991E+01 -0.21022768963E+03 -0.30069123588E+03  0.38760518180E+03  0.12500000000E+03 0.  0.
</event>
<event>
 4    0  0.2156764E-002  0.2333703E+03  0.7546771E-02  0.1124290E+00
         21   -1    0    0  502  501  0.00000000000E+00  0.00000000000E+00  0.61424672757E+03  0.61424672757E+03  0.00000000000E+00 0.  1.
         21   -1    0    0  501  502 -0.00000000000E+00 -0.00000000000E+00 -0.88664208376E+02  0.88664208376E+02  0.00000000000E+00 0.  1.
         25    1    1    2    0    0  0.13990177080E+03 -0.67128123235E+01  0.47157256038E+03  0.50756600263E+03  0.12500000000E+03 0.  0.
         25    1    1    2    0    0 -0.13990177080E+03  0.67128123235E+01  0.54009958813E+02  0.19534493332E+03  0.12500000000E+03 0.  0.
</event>
<event>
 4    0  0.2156764E-002  0.2197749E+03  0.7546771E-02  0.1134051E+00
         21   -1    0    0  502  501  0.00000000000E+00  0.00000000000E+00  0.71515694252E+02  0.71515694252E+02  0.00000000000E+00 0.  1.
         21   -1    0    0  501  502 -0.00000000000E+00 -0.00000000000E+00 -0.67539034483E+03  0.67539034483E+03  0.00000000000E+00 0.  1.
         25    1    1    2    0    0  0.63086363040E+02  0.16920446141E+03 -0.28813562605E+03  0.36229432505E+03  0.12500000000E+03 0.  0.
         25    1    1    2    0    0 -0.63086363040E+02 -0.16920446141E+03 -0.31573902453E+03  0.38461171404E+03  0.12500000000E+03 0.  0.
</event>
<event>
 4    0  0.2156764E-002  0.1792747E+03  0.7546771E-02  0.1168507E+00
         21   -1    0    0  502  501  0.00000000000E+00  0.00000000000E+00  0.22734108882E+04  0.22734108882E+04  0.00000000000E+00 0. -1.
         21   -1    0    0  501  502 -0.00000000000E+00 -0.00000000000E+00 -0.14137099364E+02  0.14137099364E+02  0.00000000000E+00 0. -1.
         25    1    1    2    0    0 -0.18423881170E+01  0.11906360763E+03  0.14379238180E+04  0.14482504768E+04  0.12500000000E+03 0.  0.
         25    1    1    2    0    0  0.18423881170E+01 -0.11906360763E+03  0.82134997084E+03  0.83929751081E+03  0.12500000000E+03 0.  0.
</event>
<event>
 4    0  0.2156764E-002  0.2078957E+03  0.7546771E-02  0.1143243E+00
         21   -1    0    0  502  501  0.00000000000E+00  0.00000000000E+00  0.13309504184E+03  0.13309504184E+03  0.00000000000E+00 0. -1.
         21   -1    0    0  501  502 -0.00000000000E+00 -0.00000000000E+00 -0.32473512320E+03  0.32473512320E+03  0.00000000000E+00 0. -1.
         25    1    1    2    0    0  0.98162467439E+02 -0.12704301798E+03 -0.14279268488E+03  0.24857704899E+03  0.12500000000E+03 0.  0.
         25    1    1    2    0    0 -0.98162467439E+02  0.12704301798E+03 -0.48847396478E+02  0.20925311604E+03  0.12500000000E+03 0.  0.
</event>
<event>
 4    0  0.2156764E-002  0.2465622E+03  0.7546771E-02  0.1115497E+00
         21   -1    0    0  502  501  0.00000000000E+00  0.00000000000E+00  0.16129404781E+03  0.16129404781E+03  0.00000000000E+00 0. -1.
         21   -1    0    0  501  502 -0.00000000000E+00 -0.00000000000E+00 -0.37690734831E+03  0.37690734831E+03  0.00000000000E+00 0. -1.
         25    1    1    2    0    0  0.12974346352E+03  0.12063665997E+03 -0.23593171668E+03  0.32042993772E+03  0.12500000000E+03 0.  0.
         25    1    1    2    0    0 -0.12974346352E+03 -0.12063665997E+03  0.20318416185E+02  0.21777145839E+03  0.12500000000E+03 0.  0.
</event>
<event>
 4    0  0.2156764E-002  0.1822450E+03  0.7546771E-02  0.1165648E+00
         21   -1    0    0  502  501  0.00000000000E+00  0.00000000000E+00  0.17680679988E+03  0.17680679988E+03  0.00000000000E+00 0. -1.
         21   -1    0    0  501  502 -0.00000000000E+00 -0.00000000000E+00 -0.18785050503E+03  0.18785050503E+03  0.00000000000E+00 0. -1.
         25    1    1    2    0    0 -0.11501683919E+03  0.32184614469E+02 -0.63198321336E+02  0.18407539359E+03  0.12500000000E+03 0.  0.
         25    1    1    2    0    0  0.11501683919E+03 -0.32184614469E+02  0.52154616195E+02  0.18058191132E+03  0.12500000000E+03 0.  0.
</event>
<event>
 4    0  0.2156764E-002  0.2262135E+03  0.7546771E-02  0.1129334E+00
         21   -1    0    0  502  501  0.00000000000E+00  0.00000000000E+00  0.33410368553E+03  0.33410368553E+03  0.00000000000E+00 0.  1.
         21   -1    0    0  501  502 -0.00000000000E+00 -0.00000000000E+00 -0.15316364752E+03  0.15316364752E+03  0.00000000000E+00 0.  1.
         25    1    1    2    0    0 -0.59408337060E+00 -0.14899421559E+03 -0.33960081292E+02  0.19742825617E+03  0.12500000000E+03 0.  0.
         25    1    1    2    0    0  0.59408337060E+00  0.14899421559E+03  0.21490011930E+03  0.28983907688E+03  0.12500000000E+03 0.  0.
</event>
<event>
 4    0  0.2156764E-002  0.2315301E+03  0.7546771E-02  0.1125567E+00
         21   -1    0    0  502  501  0.00000000000E+00  0.00000000000E+00  0.61080988706E+03  0.61080988706E+03  0.00000000000E+00 0. -1.
         21   -1    0    0  501  502 -0.00000000000E+00 -0.00000000000E+00 -0.87762512231E+02  0.87762512231E+02  0.00000000000E+00 0. -1.
         25    1    1    2    0    0  0.12117234682E+03 -0.65490413418E+02  0.46952159860E+03  0.50502204252E+03  0.12500000000E+03 0.  0.
         25    1    1    2    0    0 -0.12117234682E+03  0.65490413418E+02  0.53525776229E+02  0.19355035677E+03  0.12500000000E+03 0.  0.
</event>
<event>
 4    0  0.2156764E-002  0.2597981E+03  0.7546771E-02  0.1107265E+00
         21   -1    0    0  502  501  0.00000000000E+00  0.00000000000E+00  0.33581281474E+03  0.33581281474E+03  0.00000000000E+00 0.  1.
         21   -1    0    0  501  502 -0.00000000000E+00 -0.00000000000E+00 -0.20099010864E+03  0.20099010864E+03  0.00000000000E+00 0.  1.
         25    1    1    2    0    0  0.15759495997E+02  0.83526262061E+02 -0.15087952485E+03  0.21357581601E+03  0.12500000000E+03 0.  0.
         25    1    1    2    0    0 -0.15759495997E+02 -0.83526262061E+02  0.28570223095E+03  0.32322710737E+03  0.12500000000E+03 0.  0.
</event>
<event>
 4    0  0.2156764E-002  0.1890206E+03  0.7546771E-02  0.1159348E+00
         21   -1    0    0  502  501  0.00000000000E+00  0.00000000000E+00  0.33093467870E+03  0.33093467870E+03  0.00000000000E+00 0. -1.
         21   -1    0    0  501  502 -0.00000000000E+00 -0.00000000000E+00 -0.10796327904E+03  0.10796327904E+03  0.00000000000E+00 0. -1.
         25    1    1    2    0    0  0.21072434804E+02  0.13403524423E+03  0.15927375982E+03  0.24372653687E+03  0.12500000000E+03 0.  0.
         25    1    1    2    0    0 -0.21072434804E+02 -0.13403524423E+03  0.63697639828E+02  0.19517142087E+03  0.12500000000E+03 0.  0.
</event>
<event>
 4    0  0.2156764E-002  0.2661437E+03  0.7546771E-02  0.1103507E+00
         21   -1    0    0  502  501  0.00000000000E+00  0.00000000000E+00  0.47985769265E+03  0.47985769265E+03  0.00000000000E+00 0. -1.
         21   -1    0    0  501  502 -0.00000000000E+00 -0.00000000000E+00 -0.14761137261E+03  0.14761137261E+03  0.00000000000E+00 0. -1.
         25    1    1    2    0    0  0.80342009315E+02  0.21948366490E+03  0.13774488216E+03  0.29870816892E+03  0.12500000000E+03 0.  0.
         25    1    1    2    0    0 -0.80342009315E+02 -0.21948366490E+03  0.19450143788E+03  0.32876089633E+03  0.12500000000E+03 0.  0.
</event>
<event>
 4    0  0.2156764E-002  0.2898783E+03  0.7546771E-02  0.1090413E+00
         21   -1    0    0  502  501  0.00000000000E+00  0.00000000000E+00  0.11300082852E+03  0.11300082852E+03  0.00000000000E+00 0.  1.
         21   -1    0    0  501  502 -0.00000000000E+00 -0.00000000000E+00 -0.74361797805E+03  0.74361797805E+03  0.00000000000E+00 0.  1.
         25    1    1    2    0    0  0.25346712918E+03 -0.63853391246E+02 -0.30196094467E+03  0.41848327715E+03  0.12500000000E+03 0.  0.
         25    1    1    2    0    0 -0.25346712918E+03  0.63853391246E+02 -0.32865620486E+03  0.43813552942E+03  0.12500000000E+03 0.  0.
</event>
<event>
 4    0  0.2156764E-002  0.1927658E+03  0.7546771E-02  0.1155990E+00
         21   -1    0    0  502  501  0.00000000000E+00  0.00000000000E+00  0.14598159856E+03  0.14598159856E+03  0.00000000000E+00 0. -1.
         21   -1    0    0  501  502 -0.00000000000E+00 -0.00000000000E+00 -0.25454350199E+03  0.25454350199E+03  0.00000000000E+00 0. -1.
         25    1    1    2    0    0  0.80553588973E+02 -0.10114143830E+03 -0.12637122404E+03  0.21980254208E+03  0.12500000000E+03 0.  0.
         25    1    1    2    0    0 -0.80553588973E+02  0.10114143830E+03  0.17809320612E+02  0.18072255847E+03  0.12500000000E+03 0.  0.
</event>
<event>
 4    0  0.2156764E-002  0.1745379E+03  0.7546771E-02  0.1173196E+00
         21   -1    0    0  502  501  0.00000000000E+00  0.00000000000E+00  0.23398977152E+03  0.23398977152E+03  0.00000000000E+00 0.  1.
         21   -1    0    0  501  502 -0.00000000000E+00 -0.00000000000E+00 -0.13019156542E+03  0.13019156542E+03  0.00000000000E+00 0.  1.
         25    1    1    2    0    0  0.11261822933E+03 -0.69854940870E+01  0.40126383203E+01  0.16844216803E+03  0.12500000000E+03 0.  0.
         25    1    1    2    0    0 -0.11261822933E+03  0.69854940870E+01  0.99785567780E+02  0.19573916890E+03  0.12500000000E+03 0.  0.
</event>
<event>
 4    0  0.2156764E-002  0.1784607E+03  0.7546771E-02  0.1169301E+00
         21   -1    0    0  502  501  0.00000000000E+00  0.00000000000E+00  0.83186441054E+02  0.83186441054E+02  0.00000000000E+00 0. -1.
         21   -1    0    0  501  502 -0.00000000000E+00 -0.00000000000E+00 -0.38285348870E+03  0.38285348870E+03  0.00000000000E+00 0. -1.
         25    1    1    2    0    0  0.29721107804E+02 -0.79923986770E+02 -0.27337459165E+03  0.31245776558E+03  0.12500000000E+03 0.  0.
         25    1    1    2    0    0 -0.29721107804E+02  0.79923986770E+02 -0.26292455996E+02  0.15358216417E+03  0.12500000000E+03 0.  0.
</event>
<event>
 4    0  0.2156764E-002  0.2767424E+03  0.7546771E-02  0.1097482E+00
         21   -1    0    0  502  501  0.00000000000E+00  0.00000000000E+00  0.10268821272E+04  0.10268821272E+04  0.00000000000E+00 0.  1.
         21   -1    0    0  501  502 -0.00000000000E+00 -0.00000000000E+00 -0.74581449218E+02  0.74581449218E+02  0.00000000000E+00 0.  1.
         25    1    1    2    0    0  0.14288817346E+03  0.17957866120E+03  0.29489350057E+03  0.39402119531E+03  0.12500000000E+03 0.  0.
         25    1    1    2    0    0 -0.14288817346E+03 -0.17957866120E+03  0.65740717738E+03  0.70744238108E+03  0.12500000000E+03 0.  0.
</event>
<event>
 4    0  0.2156764E-002  0.2603895E+03  0.7546771E-02  0.1106909E+00
         21   -1    0    0  502  501  0.00000000000E+00  0.00000000000E+00  0.74476004316E+03  0.74476004316E+03  0.00000000000E+00 0.  1.
         21   -1    0    0  501  502 -0.00000000000E+00 -0.00000000000E+00 -0.91039630629E+02  0.91039630629E+02  0.00000000000E+00 0.  1.
         25    1    1    2    0    0  0.16664366969E+03 -0.16120752897E+02  0.57625452224E+03  0.61296351093E+03  0.12500000000E+03 0.  0.
         25    1    1    2    0    0 -0.16664366969E+03  0.16120752897E+02  0.77465890295E+02  0.22283616287E+03  0.12500000000E+03 0.  0.
</event>
<event>
 4    0  0.2156764E-002  0.2289189E+03  0.7546771E-02  0.1127403E+00
         21   -1    0    0  502  501  0.00000000000E+00  0.00000000000E+00  0.12262623696E+04  0.12262623696E+04  0.00000000000E+00 0. -1.
         21   -1    0    0  501  502 -0.00000000000E+00 -0.00000000000E+00 -0.42734638819E+02  0.42734638819E+02  0.00000000000E+00 0. -1.
         25    1    1    2    0    0 -0.12945867321E+03 -0.13899121479E+03  0.51839061631E+03  0.56606707812E+03  0.12500000000E+03 0.  0.
         25    1    1    2    0    0  0.12945867321E+03  0.13899121479E+03  0.66513711444E+03  0.70292993027E+03  0.12500000000E+03 0.  0.
</event>
<event>
 4    0  0.2156764E-002  0.2289803E+03  0.7546771E-02  0.1127360E+00
         21   -1    0    0  502  501  0.00000000000E+00  0.00000000000E+00  0.29674473938E+04  0.29674473938E+04  0.00000000000E+00 0. -1.
         21   -1    0    0  501  502 -0.00000000000E+00 -0.00000000000E+00 -0.17669057717E+02  0.17669057717E+02  0.00000000000E+00 0. -1.
         25    1    1    2    0    0  0.17664505822E+01  0.13577416806E+03  0.23583327814E+04  0.23655435428E+04  0.12500000000E+03 0.  0.
         25    1    1    2    0    0 -0.17664505822E+01 -0.13577416806E+03  0.59144555469E+03  0.61957290872E+03  0.12500000000E+03 0.  0.
</event>
<event>
 4    0  0.2156764E-002  0.1922840E+03  0.7546771E-02  0.1156417E+00
         21   -1    0    0  502  501  0.00000000000E+00  0.00000000000E+00  0.48075406780E+02  0.48075406780E+02  0.00000000000E+00 0.  1.
         21   -1    0    0  501  502 -0.00000000000E+00 -0.00000000000E+00 -0.76906569529E+03  0.76906569529E+03  0.00000000000E+00 0.  1.
         25    1    1    2    0    0  0.62033906892E+02  0.90839368142E+02 -0.56483415331E+03  0.58886553402E+03  0.12500000000E+03 0.  0.
         25    1    1    2    0    0 -0.62033906892E+02 -0.90839368142E+02 -0.15615613520E+03  0.22827556805E+03  0.12500000000E+03 0.  0.
</event>
<event>
 4    0  0.2156764E-002  0.1919061E+03  0.7546771E-02  0.1156753E+00
         21   -1    0    0  502  501  0.00000000000E+00  0.00000000000E+00  0.33278282058E+02  0.33278282058E+02  0.00000000000E+00 0.  1.
         21   -1    0    0  501  502 -0.00000000000E+00 -0.00000000000E+00 -0.11066661951E+04  0.11066661951E+04  0.00000000000E+00 0.  1.
         25    1    1    2    0    0  0.54270627631E+02 -0.55462885064E+02 -0.17074330966E+03  0.22538791103E+03  0.12500000000E+03 0.  0.
         25    1    1    2    0    0 -0.54270627631E+02  0.55462885064E+02 -0.90264460343E+03  0.91455656618E+03  0.12500000000E+03 0.  0.
</event>
<event>
 4    0  0.2156764E-002  0.1985203E+03  0.7546771E-02  0.1150993E+00
         21   -1    0    0  502  501  0.00000000000E+00  0.00000000000E+00  0.53203857029E+03  0.53203857029E+03  0.00000000000E+00 0. -1.
         21   -1    0    0  501  502 -0.00000000000E+00 -0.00000000000E+00 -0.74074191201E+02  0.74074191201E+02  0.00000000000E+00 0. -1.
         25    1    1    2    0    0  0.48785040299E+02 -0.43478030316E+02  0.44223893432E+03  0.46418810228E+03  0.12500000000E+03 0.  0.
         25    1    1    2    0    0 -0.48785040299E+02  0.43478030316E+02  0.15725444770E+02  0.14192465920E+03  0.12500000000E+03 0.  0.
</event>
<event>
 4    0  0.2156764E-002  0.2230380E+03  0.7546771E-02  0.1131638E+00
         21   -1    0    0  502  501  0.00000000000E+00  0.00000000000E+00  0.10791569536E+03  0.10791569536E+03  0.00000000000E+00 0. -1.
         21   -1    0    0  501  502 -0.00000000000E+00 -0.00000000000E+00 -0.46097033017E+03  0.46097033017E+03  0.00000000000E+00 0. -1.
         25    1    1    2    0    0 -0.67186358246E+02 -0.17642325085E+02 -0.39480947285E+03  0.41991044072E+03  0.12500000000E+03 0.  0.
         25    1    1    2    0    0  0.67186358246E+02  0.17642325085E+02  0.41754838049E+02  0.14897558481E+03  0.12500000000E+03 0.  0.
</event>
<event>
 4    0  0.2156764E-002  0.4065415E+03  0.7546771E-02  0.1041538E+00
         21   -1    0    0  502  501  0.00000000000E+00  0.00000000000E+00  0.27587068489E+04  0.27587068489E+04  0.00000000000E+00 0.  1.
         21   -1    0    0  501  502 -0.00000000000E+00 -0.00000000000E+00 -0.59910677417E+02  0.59910677417E+02  0.00000000000E+00 0. -1.
         25    1    1    2    0    0  0.20303713345E+03 -0.29694681568E+03  0.85610106777E+03  0.93698213811E+03  0.12500000000E+03 0.  0.
         25    1    1    2    0    0 -0.20303713345E+03  0.29694681568E+03  0.18426951038E+04  0.18816353882E+04  0.12500000000E+03 0.  0.
</event>
<event>
 4    0  0.2156764E-002  0.3541027E+03  0.7546771E-02  0.1060944E+00
         21   -1    0    0  502  501  0.00000000000E+00  0.00000000000E+00  0.18932420051E+03  0.18932420051E+03  0.00000000000E+00 0.  1.
         21   -1    0    0  501  502 -0.00000000000E+00 -0.00000000000E+00 -0.66229645146E+03  0.66229645146E+03  0.00000000000E+00 0.  1.
         25    1    1    2    0    0 -0.13671606996E+03  0.30012528909E+03 -0.27446079393E+03  0.44690066048E+03  0.12500000000E+03 0.  0.
         25    1    1    2    0    0  0.13671606996E+03 -0.30012528909E+03 -0.19851145703E+03  0.40471999149E+03  0.12500000000E+03 0.  0.
</event>
<event>
 4    0  0.2156764E-002  0.1916058E+03  0.7546771E-02  0.1157021E+00
         21   -1    0    0  502  501  0.00000000000E+00  0.00000000000E+00  0.73339821632E+03  0.73339821632E+03  0.00000000000E+00 0.  1.
         21   -1    0    0  501  502 -0.00000000000E+00 -0.00000000000E+00 -0.50058441293E+02  0.50058441293E+02  0.00000000000E+00 0.  1.
         25    1    1    2    0    0  0.10245345782E+03 -0.71609489954E+02  0.49278142274E+03  0.52352952225E+03  0.12500000000E+03 0.  0.
         25    1    1    2    0    0 -0.10245345782E+03  0.71609489954E+02  0.19055835229E+03  0.25992713537E+03  0.12500000000E+03 0.  0.
</event>
<event>
 4    0  0.2156764E-002  0.1834515E+03  0.7546771E-02  0.1164504E+00
         21   -1    0    0  502  501  0.00000000000E+00  0.00000000000E+00  0.31764618059E+03  0.31764618059E+03  0.00000000000E+00 0.  1.
         21   -1    0    0  501  502 -0.00000000000E+00 -0.00000000000E+00 -0.10594945481E+03  0.10594945481E+03  0.00000000000E+00 0.  1.
         25    1    1    2    0    0 -0.12183597406E+03  0.51261966824E+02  0.78584993231E+02  0.19817263933E+03  0.12500000000E+03 0.  0.
         25    1    1    2    0    0  0.12183597406E+03 -0.51261966824E+02  0.13311173255E+03  0.22542299607E+03  0.12500000000E+03 0.  0.
</event>
<event>
 4    0  0.2156764E-002  0.2098871E+03  0.7546771E-02  0.1141655E+00
         21   -1    0    0  502  501  0.00000000000E+00  0.00000000000E+00  0.15731548706E+03  0.15731548706E+03  0.00000000000E+00 0. -1.
         21   -1    0    0  501  502 -0.00000000000E+00 -0.00000000000E+00 -0.28002702802E+03  0.28002702802E+03  0.00000000000E+00 0. -1.
         25    1    1    2    0    0 -0.37067069238E+02 -0.15052506074E+03 -0.13043162592E+03  0.23805287348E+03  0.12500000000E+03 0.  0.
         25    1    1    2    0    0  0.37067069238E+02  0.15052506074E+03  0.77200849611E+01  0.19928964159E+03  0.12500000000E+03 0.  0.
</event>
<event>
 4    0  0.2156764E-002  0.1802842E+03  0.7546771E-02  0.1167528E+00
         21   -1    0    0  502  501  0.00000000000E+00  0.00000000000E+00  0.35950987910E+03  0.35950987910E+03  0.00000000000E+00 0. -1.
         21   -1    0    0  501  502 -0.00000000000E+00 -0.00000000000E+00 -0.90407551555E+02  0.90407551555E+02  0.00000000000E+00 0. -1.
         25    1    1    2    0    0  0.30542638953E+02  0.12600595582E+03  0.12433334592E+03  0.21884728603E+03  0.12500000000E+03 0.  0.
         25    1    1    2    0    0 -0.30542638953E+02 -0.12600595582E+03  0.14476898163E+03  0.23107014463E+03  0.12500000000E+03 0.  0.
</event>
<event>
 4    0  0.2156764E-002  0.2120196E+03  0.7546771E-02  0.1139977E+00
         21   -1    0    0  502  501  0.00000000000E+00  0.00000000000E+00  0.16599276030E+03  0.16599276030E+03  0.00000000000E+00 0.  1.
         21   -1    0    0  501  502 -0.00000000000E+00 -0.00000000000E+00 -0.27080893017E+03  0.27080893017E+03  0.00000000000E+00 0.  1.
         25    1    1    2    0    0 -0.30954786908E+02 -0.11878933151E+03  0.70593546457E+02  0.18888502565E+03  0.12500000000E+03 0.  0.
         25    1    1    2    0    0  0.30954786908E+02  0.11878933151E+03 -0.17540971632E+03  0.24791666482E+03  0.12500000000E+03 0.  0.
</event>
<event>
 4    0  0.2156764E-002  0.2087510E+03  0.7546771E-02  0.1142559E+00
         21   -1    0    0  502  501  0.00000000000E+00  0.00000000000E+00  0.24229359449E+03  0.24229359449E+03  0.00000000000E+00 0.  1.
         21   -1    0    0  501  502 -0.00000000000E+00 -0.00000000000E+00 -0.17985203172E+03  0.17985203172E+03  0.00000000000E+00 0.  1.
         25    1    1    2    0    0 -0.16878724822E+02  0.16267027082E+03 -0.38855058573E+01  0.20588007557E+03  0.12500000000E+03 0.  0.
         25    1    1    2    0    0  0.16878724822E+02 -0.16267027082E+03  0.66327068624E+02  0.21626555064E+03  0.12500000000E+03 0.  0.
</event>
<event>
 4    0  0.2156764E-002  0.2206965E+03  0.7546771E-02  0.1133365E+00
         21   -1    0    0  502  501  0.00000000000E+00  0.00000000000E+00  0.45367332571E+02  0.45367332571E+02  0.00000000000E+00 0. -1.
         21   -1    0    0  501  502 -0.00000000000E+00 -0.00000000000E+00 -0.10736127573E+04  0.10736127573E+04  0.00000000000E+00 0. -1.
         25    1    1    2    0    0 -0.30606511067E+02 -0.91806478478E+02 -0.12370943451E+03  0.20073418293E+03  0.12500000000E+03 0.  0.
         25    1    1    2    0    0  0.30606511067E+02  0.91806478478E+02 -0.90453599025E+03  0.91824590697E+03  0.12500000000E+03 0.  0.
</event>
<event>
 4    0  0.2156764E-002  0.2458689E+03  0.7546771E-02  0.1115944E+00
         21   -1    0    0  502  501  0.00000000000E+00  0.00000000000E+00  0.55939573024E+03  0.55939573024E+03  0.00000000000E+00 0. -1.
         21   -1    0    0  501  502 -0.00000000000E+00 -0.00000000000E+00 -0.10806573698E+03  0.10806573698E+03  0.00000000000E+00 0. -1.
         25    1    1    2    0    0  0.19847442649E+03 -0.55305131999E+01  0.12588503090E+03  0.26626063463E+03  0.12500000000E+03 0.  0.
         25    1    1    2    0    0 -0.19847442649E+03  0.55305131999E+01  0.32544496236E+03  0.40120083259E+03  0.12500000000E+03 0.  0.
</event>
<event>
 4    0  0.2156764E-002  0.1417993E+03  0.7546771E-02  0.1210928E+00
         21   -1    0    0  502  501  0.00000000000E+00  0.00000000000E+00  0.52797304157E+03  0.52797304157E+03  0.00000000000E+00 0. -1.
         21   -1    0    0  501  502 -0.00000000000E+00 -0.00000000000E+00 -0.38083478080E+02  0.38083478080E+02  0.00000000000E+00 0. -1.
         25    1    1    2    0    0 -0.32862537022E+02 -0.31416130275E+02  0.14685451922E+03  0.19813674419E+03  0.12500000000E+03 0.  0.
         25    1    1    2    0    0  0.32862537022E+02  0.31416130275E+02  0.34303504427E+03  0.36791977547E+03  0.12500000000E+03 0.  0.
</event>
<event>
 4    0  0.2156764E-002  0.4393968E+03  0.7546771E-02  0.1030932E+00
         21   -1    0    0  502  501  0.00000000000E+00  0.00000000000E+00  0.41831375780E+03  0.41831375780E+03  0.00000000000E+00 0.  1.
         21   -1    0    0  501  502 -0.00000000000E+00 -0.00000000000E+00 -0.46154232627E+03  0.46154232627E+03  0.00000000000E+00 0.  1.
         25    1    1    2    0    0 -0.14923164497E+03 -0.34174934630E+03  0.17453535042E+03  0.43029093425E+03  0.12500000000E+03 0.  0.
         25    1    1    2    0    0  0.14923164497E+03  0.34174934630E+03 -0.21776391890E+03  0.44956514981E+03  0.12500000000E+03 0.  0.
</event>
<event>
 4    0  0.2156764E-002  0.1918924E+03  0.7546771E-02  0.1156765E+00
         21   -1    0    0  502  501  0.00000000000E+00  0.00000000000E+00  0.33302771256E+03  0.33302771256E+03  0.00000000000E+00 0. -1.
         21   -1    0    0  501  502 -0.00000000000E+00 -0.00000000000E+00 -0.11056948367E+03  0.11056948367E+03  0.00000000000E+00 0. -1.
         25    1    1    2    0    0  0.62634571635E+01  0.19811814062E+02 -0.55333301111E+02  0.13826971138E+03  0.12500000000E+03 0.  0.
         25    1    1    2    0    0 -0.62634571635E+01 -0.19811814062E+02  0.27779153000E+03  0.30532748486E+03  0.12500000000E+03 0.  0.
</event>
<event>
 4    0  0.2156764E-002  0.2211509E+03  0.7546771E-02  0.1133028E+00
         21   -1    0    0  502  501  0.00000000000E+00  0.00000000000E+00  0.70826927567E+02  0.70826927567E+02  0.00000000000E+00 0.  1.
         21   -1    0    0  501  502 -0.00000000000E+00 -0.00000000000E+00 -0.69052420356E+03  0.69052420356E+03  0.00000000000E+00 0.  1.
         25    1    1    2    0    0 -0.11169427520E+03  0.14390096058E+03 -0.29266883393E+03  0.36669216507E+03  0.12500000000E+03 0.  0.
         25    1    1    2    0    0  0.11169427520E+03 -0.14390096058E+03 -0.32702844207E+03  0.39465896606E+03  0.12500000000E+03 0.  0.
</event>
<event>
 4    0  0.2156764E-002  0.1770853E+03  0.7546771E-02  0.1170654E+00
         21   -1    0    0  502  501  0.00000000000E+00  0.00000000000E+00  0.48013347099E+02  0.48013347099E+02  0.00000000000E+00 0.  1.
         21   -1    0    0  501  502 -0.00000000000E+00 -0.00000000000E+00 -0.65313531415E+03  0.65313531415E+03  0.00000000000E+00 0.  1.
         25    1    1    2    0    0 -0.56832567183E+02 -0.83815680091E+02 -0.44910100782E+03  0.47704478212E+03  0.12500000000E+03 0.  0.
         25    1    1    2    0    0  0.56832567183E+02  0.83815680091E+02 -0.15602095923E+03  0.22410387913E+03  0.12500000000E+03 0.  0.
</event>
<event>
 4    0  0.2156764E-002  0.2503919E+03  0.7546771E-02  0.1113057E+00
         21   -1    0    0  502  501  0.00000000000E+00  0.00000000000E+00  0.30405061758E+03  0.30405061758E+03  0.00000000000E+00 0.  1.
         21   -1    0    0  501  502 -0.00000000000E+00 -0.00000000000E+00 -0.20620292212E+03  0.20620292212E+03  0.00000000000E+00 0.  1.
         25    1    1    2    0    0 -0.14488206211E+02 -0.10456888228E+03  0.24205108820E+03  0.29216140840E+03  0.12500000000E+03 0.  0.
         25    1    1    2    0    0  0.14488206211E+02  0.10456888228E+03 -0.14420339274E+03  0.21809213130E+03  0.12500000000E+03 0.  0.
</event>
<event>
 4    0  0.2156764E-002  0.2115399E+03  0.7546771E-02  0.1140352E+00
         21   -1    0    0  502  501  0.00000000000E+00  0.00000000000E+00  0.49930852631E+03  0.49930852631E+03  0.00000000000E+00 0. -1.
         21   -1    0    0  501  502 -0.00000000000E+00 -0.00000000000E+00 -0.89622215092E+02  0.89622215092E+02  0.00000000000E+00 0. -1.
         25    1    1    2    0    0 -0.52321598916E+01  0.16319582963E+03  0.27393898572E+03  0.34253149082E+03  0.12500000000E+03 0.  0.
         25    1    1    2    0    0  0.52321598916E+01 -0.16319582963E+03  0.13574732550E+03  0.24639925058E+03  0.12500000000E+03 0.  0.
</event>
<event>
 4    0  0.2156764E-002  0.2953199E+03  0.7546771E-02  0.1087604E+00
         21   -1    0    0  502  501  0.00000000000E+00  0.00000000000E+00  0.23595839210E+03  0.23595839210E+03  0.00000000000E+00 0. -1.
         21   -1    0    0  501  502 -0.00000000000E+00 -0.00000000000E+00 -0.36961534187E+03  0.36961534187E+03  0.00000000000E+00 0. -1.
         25    1    1    2    0    0  0.10057428349E+03 -0.13593197232E+03 -0.27942645362E+03  0.34970963753E+03  0.12500000000E+03 0.  0.
         25    1    1    2    0    0 -0.10057428349E+03  0.13593197232E+03  0.14576950385E+03  0.25586409645E+03  0.12500000000E+03 0.  0.
</event>
<event>
 4    0  0.2156764E-002  0.2182550E+03  0.7546771E-02  0.1135191E+00
         21   -1    0    0  502  501  0.00000000000E+00  0.00000000000E+00  0.56178593333E+02  0.56178593333E+02  0.00000000000E+00 0. -1.
         21   -1    0    0  501  502 -0.00000000000E+00 -0.00000000000E+00 -0.84792501861E+03  0.84792501861E+03  0.00000000000E+00 0. -1.
         25    1    1    2    0    0 -0.49018858397E+02  0.74643449753E+02 -0.74763961415E+02  0.17084830405E+03  0.12500000000E+03 0.  0.
         25    1    1    2    0    0  0.49018858397E+02 -0.74643449753E+02 -0.71698246386E+03  0.73325530789E+03  0.12500000000E+03 0.  0.
</event>
<event>
 4    0  0.2156764E-002  0.2595017E+03  0.7546771E-02  0.1107443E+00
         21   -1    0    0  502  501  0.00000000000E+00  0.00000000000E+00  0.48856175905E+02  0.48856175905E+02  0.00000000000E+00 0. -1.
         21   -1    0    0  501  502 -0.00000000000E+00 -0.00000000000E+00 -0.13783541207E+04  0.13783541207E+04  0.00000000000E+00 0. -1.
         25    1    1    2    0    0  0.13295528436E+03  0.10487643968E+03 -0.24734318117E+03  0.32477657630E+03  0.12500000000E+03 0.  0.
         25    1    1    2    0    0 -0.13295528436E+03 -0.10487643968E+03 -0.10821547637E+04  0.11024337203E+04  0.12500000000E+03 0.  0.
</event>
<event>
 4    0  0.2156764E-002  0.3432899E+03  0.7546771E-02  0.1065403E+00
         21   -1    0    0  502  501  0.00000000000E+00  0.00000000000E+00  0.10798405506E+03  0.10798405506E+03  0.00000000000E+00 0.  1.
         21   -1    0    0  501  502 -0.00000000000E+00 -0.00000000000E+00 -0.10913456764E+04  0.10913456764E+04  0.00000000000E+00 0.  1.
         25    1    1    2    0    0 -0.19978526715E+03 -0.21700950618E+03 -0.27620778107E+03  0.42299292791E+03  0.12500000000E+03 0.  0.
         25    1    1    2    0    0  0.19978526715E+03  0.21700950618E+03 -0.70715384027E+03  0.77633680355E+03  0.12500000000E+03 0.  0.
</event>
<event>
 4    0  0.2156764E-002  0.2681188E+03  0.7546771E-02  0.1102361E+00
         21   -1    0    0  502  501  0.00000000000E+00  0.00000000000E+00  0.11384389330E+04  0.11384389330E+04  0.00000000000E+00 0.  1.
         21   -1    0    0  501  502 -0.00000000000E+00 -0.00000000000E+00 -0.63145827704E+02  0.63145827704E+02  0.00000000000E+00 0.  1.
         25    1    1    2    0    0 -0.72701174146E+02  0.16092074029E+03  0.89252195885E+03  0.91836887601E+03  0.12500000000E+03 0.  0.
         25    1    1    2    0    0  0.72701174146E+02 -0.16092074029E+03  0.18277114647E+03  0.28321588473E+03  0.12500000000E+03 0.  0.
</event>
<event>
 4    0  0.2156764E-002  0.2660397E+03  0.7546771E-02  0.1103568E+00
         21   -1    0    0  502  501  0.00000000000E+00  0.00000000000E+00  0.10542109261E+03  0.10542109261E+03  0.00000000000E+00 0.  1.
         21   -1    0    0  501  502 -0.00000000000E+00 -0.00000000000E+00 -0.67137539076E+03  0.67137539076E+03  0.00000000000E+00 0.  1.
         25    1    1    2    0    0 -0.22780580175E+03  0.48892539853E+02 -0.32594372299E+03  0.41970260223E+03  0.12500000000E+03 0.  0.
         25    1    1    2    0    0  0.22780580175E+03 -0.48892539853E+02 -0.24001057516E+03  0.35709388115E+03  0.12500000000E+03 0.  0.
</event>
<event>
 4    0  0.2156764E-002  0.1958488E+03  0.7546771E-02  0.1153289E+00
         21   -1    0    0  502  501  0.00000000000E+00  0.00000000000E+00  0.51207651131E+03  0.51207651131E+03  0.00000000000E+00 0. -1.
         21   -1    0    0  501  502 -0.00000000000E+00 -0.00000000000E+00 -0.74904321989E+02  0.74904321989E+02  0.00000000000E+00 0. -1.
         25    1    1    2    0    0 -0.80871036496E+02  0.11678785954E+02  0.40846698552E+03  0.43491010202E+03  0.12500000000E+03 0.  0.
         25    1    1    2    0    0  0.80871036496E+02 -0.11678785954E+02  0.28705203805E+02  0.15207073128E+03  0.12500000000E+03 0.  0.
</event>
<event>
 4    0  0.2156764E-002  0.1881340E+03  0.7546771E-02  0.1160155E+00
         21   -1    0    0  502  501  0.00000000000E+00  0.00000000000E+00  0.25220949143E+04  0.25220949143E+04  0.00000000000E+00 0. -1.
         21   -1    0    0  501  502 -0.00000000000E+00 -0.00000000000E+00 -0.14033738148E+02  0.14033738148E+02  0.00000000000E+00 0. -1.
         25    1    1    2    0    0 -0.11701370212E+03  0.35284127787E+02  0.78548884325E+03  0.80470795884E+03  0.12500000000E+03 0.  0.
         25    1    1    2    0    0  0.11701370212E+03 -0.35284127787E+02  0.17225723329E+04  0.17314206936E+04  0.12500000000E+03 0.  0.
</event>
<event>
 4    0  0.2156764E-002  0.2039734E+03  0.7546771E-02  0.1146429E+00
         21   -1    0    0  502  501  0.00000000000E+00  0.00000000000E+00  0.51022109436E+02  0.51022109436E+02  0.00000000000E+00 0.  1.
         21   -1    0    0  501  502 -0.00000000000E+00 -0.00000000000E+00 -0.81543335588E+03  0.81543335588E+03  0.00000000000E+00 0.  1.
         25    1    1    2    0    0 -0.12750017046E+03 -0.49065362223E+02 -0.20053181454E+03  0.27295001718E+03  0.12500000000E+03 0.  0.
         25    1    1    2    0    0  0.12750017046E+03  0.49065362223E+02 -0.56387943191E+03  0.59350544813E+03  0.12500000000E+03 0.  0.
</event>
<event>
 4    0  0.2156764E-002  0.2685903E+03  0.7546771E-02  0.1102089E+00
         21   -1    0    0  502  501  0.00000000000E+00  0.00000000000E+00  0.83520722490E+02  0.83520722490E+02  0.00000000000E+00 0.  1.
         21   -1    0    0  501  502 -0.00000000000E+00 -0.00000000000E+00 -0.86374658652E+03  0.86374658652E+03  0.00000000000E+00 0.  1.
         25    1    1    2    0    0 -0.20375505619E+03  0.92166223354E+02 -0.24788790614E+03  0.35648863890E+03  0.12500000000E+03 0.  0.
         25    1    1    2    0    0  0.20375505619E+03 -0.92166223354E+02 -0.53233795789E+03  0.59077867012E+03  0.12500000000E+03 0.  0.
</event>
<event>
 4    0  0.2156764E-002  0.2471771E+03  0.7546771E-02  0.1115102E+00
         21   -1    0    0  502  501  0.00000000000E+00  0.00000000000E+00  0.19066894653E+03  0.19066894653E+03  0.00000000000E+00 0.  1.
         21   -1    0    0  501  502 -0.00000000000E+00 -0.00000000000E+00 -0.32043239046E+03  0.32043239046E+03  0.00000000000E+00 0.  1.
         25    1    1    2    0    0 -0.12194476162E+03  0.14797266996E+03  0.31579992447E+02  0.23106001788E+03  0.12500000000E+03 0.  0.
         25    1    1    2    0    0  0.12194476162E+03 -0.14797266996E+03 -0.16134343638E+03  0.28004131911E+03  0.12500000000E+03 0.  0.
</event>
<event>
 4    0  0.2156764E-002  0.2221065E+03  0.7546771E-02  0.1132322E+00
         21   -1    0    0  502  501  0.00000000000E+00  0.00000000000E+00  0.67131015052E+02  0.67131015052E+02  0.00000000000E+00 0.  1.
         21   -1    0    0  501  502 -0.00000000000E+00 -0.00000000000E+00 -0.73485109905E+03  0.73485109905E+03  0.00000000000E+00 0.  1.
         25    1    1    2    0    0 -0.10864911797E+03  0.14560994029E+03 -0.38160645681E+03  0.44074411332E+03  0.12500000000E+03 0.  0.
         25    1    1    2    0    0  0.10864911797E+03 -0.14560994029E+03 -0.28611362719E+03  0.36123800078E+03  0.12500000000E+03 0.  0.
</event>
<event>
 4    0  0.2156764E-002  0.2389972E+03  0.7546771E-02  0.1120463E+00
         21   -1    0    0  502  501  0.00000000000E+00  0.00000000000E+00  0.13668277782E+04  0.13668277782E+04  0.00000000000E+00 0. -1.
         21   -1    0    0  501  502 -0.00000000000E+00 -0.00000000000E+00 -0.41789942869E+02  0.41789942869E+02  0.00000000000E+00 0. -1.
         25    1    1    2    0    0 -0.14411976692E+02 -0.20260959543E+03  0.61721835117E+03  0.66169618878E+03  0.12500000000E+03 0.  0.
         25    1    1    2    0    0  0.14411976692E+02  0.20260959543E+03  0.70781948421E+03  0.74692153233E+03  0.12500000000E+03 0.  0.
</event>
<event>
 4    0  0.2156764E-002  0.2479552E+03  0.7546771E-02  0.1114604E+00
         21   -1    0    0  502  501  0.00000000000E+00  0.00000000000E+00  0.27489337931E+03  0.27489337931E+03  0.00000000000E+00 0.  1.
         21   -1    0    0  501  502 -0.00000000000E+00 -0.00000000000E+00 -0.22365684794E+03  0.22365684794E+03  0.00000000000E+00 0.  1.
         25    1    1    2    0    0  0.45263354374E+02 -0.11128876934E+03  0.20382671792E+03  0.26758978375E+03  0.12500000000E+03 0.  0.
         25    1    1    2    0    0 -0.45263354374E+02  0.11128876934E+03 -0.15259018655E+03  0.23096044350E+03  0.12500000000E+03 0.  0.
</event>
<event>
 4    0  0.2156764E-002  0.2345563E+03  0.7546771E-02  0.1123473E+00
         21   -1    0    0  502  501  0.00000000000E+00  0.00000000000E+00  0.53713817314E+03  0.53713817314E+03  0.00000000000E+00 0.  1.
         21   -1    0    0  501  502 -0.00000000000E+00 -0.00000000000E+00 -0.10242554571E+03  0.10242554571E+03  0.00000000000E+00 0.  1.
         25    1    1    2    0    0  0.16082058894E+03  0.57404869695E+02  0.79441772197E+02  0.22604109375E+03  0.12500000000E+03 0.  0.
         25    1    1    2    0    0 -0.16082058894E+03 -0.57404869695E+02  0.35527085523E+03  0.41352262510E+03  0.12500000000E+03 0.  0.
</event>
<event>
 4    0  0.2156764E-002  0.1536850E+03  0.7546771E-02  0.1196017E+00
         21   -1    0    0  502  501  0.00000000000E+00  0.00000000000E+00  0.93671655578E+03  0.93671655578E+03  0.00000000000E+00 0. -1.
         21   -1    0    0  501  502 -0.00000000000E+00 -0.00000000000E+00 -0.25214762598E+02  0.25214762598E+02  0.00000000000E+00 0. -1.
         25    1    1    2    0    0  0.82113948887E+02 -0.13840165998E+02  0.55763387032E+03  0.57750738881E+03  0.12500000000E+03 0.  0.
         25    1    1    2    0    0 -0.82113948887E+02  0.13840165998E+02  0.35386792286E+03  0.38442392957E+03  0.12500000000E+03 0.  0.
</event>
<event>
 4    0  0.2156764E-002  0.1889507E+03  0.7546771E-02  0.1159411E+00
         21   -1    0    0  502  501  0.00000000000E+00  0.00000000000E+00  0.22308771694E+03  0.22308771694E+03  0.00000000000E+00 0. -1.
         21   -1    0    0  501  502 -0.00000000000E+00 -0.00000000000E+00 -0.16003738416E+03  0.16003738416E+03  0.00000000000E+00 0. -1.
         25    1    1    2    0    0  0.24077616106E+02 -0.13898879777E+03  0.45117848250E+02  0.19379947816E+03  0.12500000000E+03 0.  0.
         25    1    1    2    0    0 -0.24077616106E+02  0.13898879777E+03  0.17932484530E+02  0.18932562295E+03  0.12500000000E+03 0.  0.
</event>
<event>
 4    0  0.2156764E-002  0.2172155E+03  0.7546771E-02  0.1135976E+00
         21   -1    0    0  502  501  0.00000000000E+00  0.00000000000E+00  0.38942682957E+02  0.38942682957E+02  0.00000000000E+00 0. -1.
         21   -1    0    0  501  502 -0.00000000000E+00 -0.00000000000E+00 -0.12115904576E+04  0.12115904576E+04  0.00000000000E+00 0. -1.
         25    1    1    2    0    0 -0.16285389372E+03  0.56052119453E+02 -0.46103725822E+03  0.50778300903E+03  0.12500000000E+03 0.  0.
         25    1    1    2    0    0  0.16285389372E+03 -0.56052119453E+02 -0.71161051647E+03  0.74275013157E+03  0.12500000000E+03 0.  0.
</event>
<event>
 4    0  0.2156764E-002  0.3108637E+03  0.7546771E-02  0.1079933E+00
         21   -1    0    0  502  501  0.00000000000E+00  0.00000000000E+00  0.19097083368E+04  0.19097083368E+04  0.00000000000E+00 0.  1.
         21   -1    0    0  501  502 -0.00000000000E+00 -0.00000000000E+00 -0.50602619856E+02  0.50602619856E+02  0.00000000000E+00 0.  1.
         25    1    1    2    0    0  0.15466862595E+03  0.17282324461E+03  0.40934502846E+03  0.48680448853E+03  0.12500000000E+03 0.  0.
         25    1    1    2    0    0 -0.15466862595E+03 -0.17282324461E+03  0.14497606885E+04  0.14735064681E+04  0.12500000000E+03 0.  0.
</event>
<event>
 4    0  0.2156764E-002  0.2029975E+03  0.7546771E-02  0.1147234E+00
         21   -1    0    0  502  501  0.00000000000E+00  0.00000000000E+00  0.35166085135E+03  0.35166085135E+03  0.00000000000E+00 0.  1.
         21   -1    0    0  501  502 -0.00000000000E+00 -0.00000000000E+00 -0.11718104137E+03  0.11718104137E+03  0.00000000000E+00 0.  1.
         25    1    1    2    0    0 -0.97202424674E+02 -0.11011842700E+02 -0.28892884774E+02  0.16133620435E+03  0.12500000000E+03 0.  0.
         25    1    1    2    0    0  0.97202424674E+02  0.11011842700E+02  0.26337269475E+03  0.30750568837E+03  0.12500000000E+03 0.  0.
</event>
<event>
 4    0  0.2156764E-002  0.1864021E+03  0.7546771E-02  0.1161747E+00
         21   -1    0    0  502  501  0.00000000000E+00  0.00000000000E+00  0.18004031046E+03  0.18004031046E+03  0.00000000000E+00 0. -1.
         21   -1    0    0  501  502 -0.00000000000E+00 -0.00000000000E+00 -0.19298860676E+03  0.19298860676E+03  0.00000000000E+00 0. -1.
         25    1    1    2    0    0  0.61309906011E+01 -0.12604892339E+03 -0.63030867616E+02  0.18847761248E+03  0.12500000000E+03 0.  0.
         25    1    1    2    0    0 -0.61309906011E+01  0.12604892339E+03  0.50082571324E+02  0.18455130474E+03  0.12500000000E+03 0.  0.
</event>
<event>
 4    0  0.2156764E-002  0.2429966E+03  0.7546771E-02  0.1117813E+00
         21   -1    0    0  502  501  0.00000000000E+00  0.00000000000E+00  0.73412084718E+02  0.73412084718E+02  0.00000000000E+00 0.  1.
         21   -1    0    0  501  502 -0.00000000000E+00 -0.00000000000E+00 -0.80432749367E+03  0.80432749367E+03  0.00000000000E+00 0.  1.
         25    1    1    2    0    0  0.83551388764E+02  0.19076190284E+03 -0.35250676270E+03  0.42808522036E+03  0.12500000000E+03 0.  0.
         25    1    1    2    0    0 -0.83551388764E+02 -0.19076190284E+03 -0.37840864625E+03  0.44965435803E+03  0.12500000000E+03 0.  0.
</event>
<event>
 4    0  0.2156764E-002  0.1518037E+03  0.7546771E-02  0.1198274E+00
         21   -1    0    0  502  501  0.00000000000E+00  0.00000000000E+00  0.50620530554E+02  0.50620530554E+02  0.00000000000E+00 0. -1.
         21   -1    0    0  501  502 -0.00000000000E+00 -0.00000000000E+00 -0.45523725209E+03  0.45523725209E+03  0.00000000000E+00 0. -1.
         25    1    1    2    0    0  0.58021709632E+02 -0.63643509512E+02 -0.19976173365E+03  0.25089193953E+03  0.12500000000E+03 0.  0.
         25    1    1    2    0    0 -0.58021709632E+02  0.63643509512E+02 -0.20485498789E+03  0.25496584311E+03  0.12500000000E+03 0.  0.
</event>
<event>
 4    0  0.2156764E-002  0.2091648E+03  0.7546771E-02  0.1142229E+00
         21   -1    0    0  502  501  0.00000000000E+00  0.00000000000E+00  0.86903691860E+03  0.86903691860E+03  0.00000000000E+00 0.  1.
         21   -1    0    0  501  502 -0.00000000000E+00 -0.00000000000E+00 -0.50342979502E+02  0.50342979502E+02  0.00000000000E+00 0.  1.
         25    1    1    2    0    0 -0.47058336013E+02 -0.14458789218E+03  0.25386925009E+03  0.32123938378E+03  0.12500000000E+03 0.  0.
         25    1    1    2    0    0  0.47058336013E+02  0.14458789218E+03  0.56482468901E+03  0.59814051431E+03  0.12500000000E+03 0.  0.
</event>
<event>
 4    0  0.2156764E-002  0.2087056E+03  0.7546771E-02  0.1142595E+00
         21   -1    0    0  502  501  0.00000000000E+00  0.00000000000E+00  0.96828993212E+02  0.96828993212E+02  0.00000000000E+00 0.  1.
         21   -1    0    0  501  502 -0.00000000000E+00 -0.00000000000E+00 -0.44984475079E+03  0.44984475079E+03  0.00000000000E+00 0.  1.
         25    1    1    2    0    0 -0.12461020142E+03 -0.10654339959E+03 -0.13399244809E+03  0.24588244028E+03  0.12500000000E+03 0.  0.
         25    1    1    2    0    0  0.12461020142E+03  0.10654339959E+03 -0.21902330948E+03  0.30079130372E+03  0.12500000000E+03 0.  0.
</event>
<event>
 4    0  0.2156764E-002  0.1564883E+03  0.7546771E-02  0.1192719E+00
         21   -1    0    0  502  501  0.00000000000E+00  0.00000000000E+00  0.11471529130E+03  0.11471529130E+03  0.00000000000E+00 0. -1.
         21   -1    0    0  501  502 -0.00000000000E+00 -0.00000000000E+00 -0.21347266894E+03  0.21347266894E+03  0.00000000000E+00 0. -1.
         25    1    1    2    0    0 -0.22063646797E+01  0.25350181393E+02  0.45669352923E+02  0.13549239661E+03  0.12500000000E+03 0.  0.
         25    1    1    2    0    0  0.22063646797E+01 -0.25350181393E+02 -0.14442673056E+03  0.19269556363E+03  0.12500000000E+03 0.  0.
</event>
<event>
 4    0  0.2156764E-002  0.2233738E+03  0.7546771E-02  0.1131392E+00
         21   -1    0    0  502  501  0.00000000000E+00  0.00000000000E+00  0.54678849724E+03  0.54678849724E+03  0.00000000000E+00 0.  1.
         21   -1    0    0  501  502 -0.00000000000E+00 -0.00000000000E+00 -0.91252556887E+02  0.91252556887E+02  0.00000000000E+00 0.  1.
         25    1    1    2    0    0 -0.11061579775E+03 -0.51513975475E+02  0.28939798117E+02  0.17706511880E+03  0.12500000000E+03 0.  0.
         25    1    1    2    0    0  0.11061579775E+03  0.51513975475E+02  0.42659614224E+03  0.46097593533E+03  0.12500000000E+03 0.  0.
</event>
<event>
 4    0  0.2156764E-002  0.1919489E+03  0.7546771E-02  0.1156715E+00
         21   -1    0    0  502  501  0.00000000000E+00  0.00000000000E+00  0.56317791993E+02  0.56317791993E+02  0.00000000000E+00 0. -1.
         21   -1    0    0  501  502 -0.00000000000E+00 -0.00000000000E+00 -0.65422287152E+03  0.65422287152E+03  0.00000000000E+00 0. -1.
         25    1    1    2    0    0 -0.55151678032E+02  0.11989738493E+03 -0.18482346563E+03  0.25923310736E+03  0.12500000000E+03 0.  0.
         25    1    1    2    0    0  0.55151678032E+02 -0.11989738493E+03 -0.41308161390E+03  0.45130755615E+03  0.12500000000E+03 0.  0.
</event>
<event>
 4    0  0.2156764E-002  0.1410524E+03  0.7546771E-02  0.1211920E+00
         21   -1    0    0  502  501  0.00000000000E+00  0.00000000000E+00  0.14788433398E+04  0.14788433398E+04  0.00000000000E+00 0. -1.
         21   -1    0    0  501  502 -0.00000000000E+00 -0.00000000000E+00 -0.13453603554E+02  0.13453603554E+02  0.00000000000E+00 0. -1.
         25    1    1    2    0    0  0.55231215003E+02  0.25123389681E+02  0.60430243238E+03  0.62007104561E+03  0.12500000000E+03 0.  0.
         25    1    1    2    0    0 -0.55231215003E+02 -0.25123389681E+02  0.86108730382E+03  0.87222589770E+03  0.12500000000E+03 0.  0.
</event>
<event>
 4    0  0.2156764E-002  0.1673658E+03  0.7546771E-02  0.1180623E+00
         21   -1    0    0  502  501  0.00000000000E+00  0.00000000000E+00  0.57628102343E+02  0.57628102343E+02  0.00000000000E+00 0. -1.
         21   -1    0    0  501  502 -0.00000000000E+00 -0.00000000000E+00 -0.48607059578E+03  0.48607059578E+03  0.00000000000E+00 0. -1.
         25    1    1    2    0    0 -0.79557395822E+02  0.60509983780E+02 -0.13472282185E+03  0.20920343232E+03  0.12500000000E+03 0.  0.
         25    1    1    2    0    0  0.79557395822E+02 -0.60509983780E+02 -0.29371967160E+03  0.33449526581E+03  0.12500000000E+03 0.  0.
</event>
<event>
 4    0  0.2156764E-002  0.2092773E+03  0.7546771E-02  0.1142140E+00
         21   -1    0    0  502  501  0.00000000000E+00  0.00000000000E+00  0.79222428143E+02  0.79222428143E+02  0.00000000000E+00 0. -1.
         21   -1    0    0  501  502 -0.00000000000E+00 -0.00000000000E+00 -0.55283570493E+03  0.55283570493E+03  0.00000000000E+00 0. -1.
         25    1    1    2    0    0 -0.16387988308E+02 -0.11796996326E+03 -0.41539763824E+03  0.44985072663E+03  0.12500000000E+03 0.  0.
         25    1    1    2    0    0  0.16387988308E+02  0.11796996326E+03 -0.58215638550E+02  0.18220740645E+03  0.12500000000E+03 0.  0.
</event>
<event>
 4    0  0.2156764E-002  0.2571381E+03  0.7546771E-02  0.1108875E+00
         21   -1    0    0  502  501  0.00000000000E+00  0.00000000000E+00  0.10909854484E+03  0.10909854484E+03  0.00000000000E+00 0.  1.
         21   -1    0    0  501  502 -0.00000000000E+00 -0.00000000000E+00 -0.60605758758E+03  0.60605758758E+03  0.00000000000E+00 0.  1.
         25    1    1    2    0    0 -0.74409956195E+02  0.27329977876E+02 -0.54087506732E+03  0.56076252346E+03  0.12500000000E+03 0.  0.
         25    1    1    2    0    0  0.74409956195E+02 -0.27329977876E+02  0.43916024580E+02  0.15439360896E+03  0.12500000000E+03 0.  0.
</event>
<event>
 4    0  0.2156764E-002  0.2904492E+03  0.7546771E-02  0.1090115E+00
         21   -1    0    0  502  501  0.00000000000E+00  0.00000000000E+00  0.17541936127E+03  0.17541936127E+03  0.00000000000E+00 0. -1.
         21   -1    0    0  501  502 -0.00000000000E+00 -0.00000000000E+00 -0.48090880869E+03  0.48090880869E+03  0.00000000000E+00 0. -1.
         25    1    1    2    0    0 -0.20180261966E+03 -0.98769835873E+02 -0.85517528902E-01  0.25710850840E+03  0.12500000000E+03 0.  0.
         25    1    1    2    0    0  0.20180261966E+03  0.98769835873E+02 -0.30540392989E+03  0.39921966156E+03  0.12500000000E+03 0.  0.
</event>
<event>
 4    0  0.2156764E-002  0.2211002E+03  0.7546771E-02  0.1133065E+00
         21   -1    0    0  502  501  0.00000000000E+00  0.00000000000E+00  0.15385162532E+03  0.15385162532E+03  0.00000000000E+00 0.  1.
         21   -1    0    0  501  502 -0.00000000000E+00 -0.00000000000E+00 -0.31774308596E+03  0.31774308596E+03  0.00000000000E+00 0.  1.
         25    1    1    2    0    0 -0.23636281588E+02  0.15429701107E+02  0.11020753737E+03  0.16901908406E+03  0.12500000000E+03 0.  0.
         25    1    1    2    0    0  0.23636281588E+02 -0.15429701107E+02 -0.27409899801E+03  0.30257562723E+03  0.12500000000E+03 0.  0.
</event>
<event>
 4    0  0.2156764E-002  0.1681258E+03  0.7546771E-02  0.1179817E+00
         21   -1    0    0  502  501  0.00000000000E+00  0.00000000000E+00  0.98615118280E+02  0.98615118280E+02  0.00000000000E+00 0. -1.
         21   -1    0    0  501  502 -0.00000000000E+00 -0.00000000000E+00 -0.28663223447E+03  0.28663223447E+03  0.00000000000E+00 0. -1.
         25    1    1    2    0    0  0.90815134745E+02 -0.61852849260E+02 -0.12131661961E+03  0.20595117347E+03  0.12500000000E+03 0.  0.
         25    1    1    2    0    0 -0.90815134745E+02  0.61852849260E+02 -0.66700496580E+02  0.17929617928E+03  0.12500000000E+03 0.  0.
</event>
<event>
 4    0  0.2156764E-002  0.2451147E+03  0.7546771E-02  0.1116432E+00
         21   -1    0    0  502  501  0.00000000000E+00  0.00000000000E+00  0.31267230925E+02  0.31267230925E+02  0.00000000000E+00 0. -1.
         21   -1    0    0  501  502 -0.00000000000E+00 -0.00000000000E+00 -0.19215398000E+04  0.19215398000E+04  0.00000000000E+00 0. -1.
         25    1    1    2    0    0 -0.15651021383E+00 -0.21047021645E+03 -0.99528546130E+03  0.10249467723E+04  0.12500000000E+03 0.  0.
         25    1    1    2    0    0  0.15651021383E+00  0.21047021645E+03 -0.89498710774E+03  0.92786025862E+03  0.12500000000E+03 0.  0.
</event>
<event>
 4    0  0.2156764E-002  0.2083010E+03  0.7546771E-02  0.1142919E+00
         21   -1    0    0  502  501  0.00000000000E+00  0.00000000000E+00  0.70019244232E+02  0.70019244232E+02  0.00000000000E+00 0. -1.
         21   -1    0    0  501  502 -0.00000000000E+00 -0.00000000000E+00 -0.61967672325E+03  0.61967672325E+03  0.00000000000E+00 0. -1.
         25    1    1    2    0    0 -0.84864790729E+02 -0.10511448047E+03 -0.11335574032E+03  0.21616107553E+03  0.12500000000E+03 0.  0.
         25    1    1    2    0    0  0.84864790729E+02  0.10511448047E+03 -0.43630173870E+03  0.47353489196E+03  0.12500000000E+03 0.  0.
</event>
<event>
 4    0  0.2156764E-002  0.1594977E+03  0.7546771E-02  0.1189265E+00
         21   -1    0    0  502  501  0.00000000000E+00  0.00000000000E+00  0.51705907091E+03  0.51705907091E+03  0.00000000000E+00 0. -1.
         21   -1    0    0  501  502 -0.00000000000E+00 -0.00000000000E+00 -0.49200419637E+02  0.49200419637E+02  0.00000000000E+00 0. -1.
         25    1    1    2    0    0  0.28301754809E+02  0.36978209805E+02  0.38915097917E+03  0.41137800368E+03  0.12500000000E+03 0.  0.
         25    1    1    2    0    0 -0.28301754809E+02 -0.36978209805E+02  0.78707672107E+02  0.15488148687E+03  0.12500000000E+03 0.  0.
</event>
<event>
 4    0  0.2156764E-002  0.1637346E+03  0.7546771E-02  0.1184544E+00
         21   -1    0    0  502  501  0.00000000000E+00  0.00000000000E+00  0.72122394172E+02  0.72122394172E+02  0.00000000000E+00 0.  1.
         21   -1    0    0  501  502 -0.00000000000E+00 -0.00000000000E+00 -0.37171582149E+03  0.37171582149E+03  0.00000000000E+00 0.  1.
         25    1    1    2    0    0 -0.19612259810E+02  0.10188826480E+03 -0.17751290394E+03  0.24062770061E+03  0.12500000000E+03 0.  0.
         25    1    1    2    0    0  0.19612259810E+02 -0.10188826480E+03 -0.12208052338E+03  0.20321051505E+03  0.12500000000E+03 0.  0.
</event>
<event>
 4    0  0.2156764E-002  0.1537863E+03  0.7546771E-02  0.1195896E+00
         21   -1    0    0  502  501  0.00000000000E+00  0.00000000000E+00  0.34315926743E+03  0.34315926743E+03  0.00000000000E+00 0.  1.
         21   -1    0    0  501  502 -0.00000000000E+00 -0.00000000000E+00 -0.68919064297E+02  0.68919064297E+02  0.00000000000E+00 0.  1.
         25    1    1    2    0    0 -0.77938645678E+02  0.16533177933E+02  0.82247524174E+02  0.16952118952E+03  0.12500000000E+03 0.  0.
         25    1    1    2    0    0  0.77938645678E+02 -0.16533177933E+02  0.19199267896E+03  0.24255714221E+03  0.12500000000E+03 0.  0.
</event>
<event>
 4    0  0.2156764E-002  0.1684760E+03  0.7546771E-02  0.1179447E+00
         21   -1    0    0  502  501  0.00000000000E+00  0.00000000000E+00  0.60761645411E+03  0.60761645411E+03  0.00000000000E+00 0.  1.
         21   -1    0    0  501  502 -0.00000000000E+00 -0.00000000000E+00 -0.46713932069E+02  0.46713932069E+02  0.00000000000E+00 0.  1.
         25    1    1    2    0    0  0.48823283441E+02 -0.87118595637E+02  0.38294642794E+03  0.41502569726E+03  0.12500000000E+03 0.  0.
         25    1    1    2    0    0 -0.48823283441E+02  0.87118595637E+02  0.17795609410E+03  0.23930468892E+03  0.12500000000E+03 0.  0.
</event>
<event>
 4    0  0.2156764E-002  0.3124221E+03  0.7546771E-02  0.1079191E+00
         21   -1    0    0  502  501  0.00000000000E+00  0.00000000000E+00  0.18584231746E+03  0.18584231746E+03  0.00000000000E+00 0.  1.
         21   -1    0    0  501  502 -0.00000000000E+00 -0.00000000000E+00 -0.52521717920E+03  0.52521717920E+03  0.00000000000E+00 0.  1.
         25    1    1    2    0    0  0.27597131032E+03  0.48590583094E+02 -0.10273626878E+03  0.32357526142E+03  0.12500000000E+03 0.  0.
         25    1    1    2    0    0 -0.27597131032E+03 -0.48590583094E+02 -0.23663859296E+03  0.38748423524E+03  0.12500000000E+03 0.  0.
</event>
<event>
 4    0  0.2156764E-002  0.1906002E+03  0.7546771E-02  0.1157921E+00
         21   -1    0    0  502  501  0.00000000000E+00  0.00000000000E+00  0.13204470078E+03  0.13204470078E+03  0.00000000000E+00 0.  1.
         21   -1    0    0  501  502 -0.00000000000E+00 -0.00000000000E+00 -0.27512225207E+03  0.27512225207E+03  0.00000000000E+00 0.  1.
         25    1    1    2    0    0 -0.32406426534E+02  0.79772214479E+02  0.51594659588E+02  0.16031466427E+03  0.12500000000E+03 0.  0.
         25    1    1    2    0    0  0.32406426534E+02 -0.79772214479E+02 -0.19467221088E+03  0.24685228857E+03  0.12500000000E+03 0.  0.
</event>
<event>
 4    0  0.2156764E-002  0.2138364E+03  0.7546771E-02  0.1138563E+00
         21   -1    0    0  502  501  0.00000000000E+00  0.00000000000E+00  0.22981067914E+04  0.22981067914E+04  0.00000000000E+00 0.  1.
         21   -1    0    0  501  502 -0.00000000000E+00 -0.00000000000E+00 -0.19897257255E+02  0.19897257255E+02  0.00000000000E+00 0.  1.
         25    1    1    2    0    0  0.17101442467E+03 -0.29096564750E+02  0.11548867682E+04  0.11745130867E+04  0.12500000000E+03 0.  0.
         25    1    1    2    0    0 -0.17101442467E+03  0.29096564750E+02  0.11233227660E+04  0.11434909620E+04  0.12500000000E+03 0.  0.
</event>
<event>
 4    0  0.2156764E-002  0.2537717E+03  0.7546771E-02  0.1110944E+00
         21   -1    0    0  502  501  0.00000000000E+00  0.00000000000E+00  0.69531390228E+02  0.69531390228E+02  0.00000000000E+00 0.  1.
         21   -1    0    0  501  502 -0.00000000000E+00 -0.00000000000E+00 -0.92620129432E+03  0.92620129432E+03  0.00000000000E+00 0.  1.
         25    1    1    2    0    0  0.40965570495E+02 -0.16706601342E+02 -0.38375812417E+01  0.13265374297E+03  0.12500000000E+03 0.  0.
         25    1    1    2    0    0 -0.40965570495E+02  0.16706601342E+02 -0.85283232285E+03  0.86307894158E+03  0.12500000000E+03 0.  0.
</event>
<event>
 4    0  0.2156764E-002  0.2003775E+03  0.7546771E-02  0.1149421E+00
         21   -1    0    0  502  501  0.00000000000E+00  0.00000000000E+00  0.17856589882E+03  0.17856589882E+03  0.00000000000E+00 0.  1.
         21   -1    0    0  501  502 -0.00000000000E+00 -0.00000000000E+00 -0.22485342522E+03  0.22485342522E+03  0.00000000000E+00 0.  1.
         25    1    1    2    0    0  0.14670789782E+03 -0.54274607011E+02 -0.30758025093E+02  0.20258330720E+03  0.12500000000E+03 0.  0.
         25    1    1    2    0    0 -0.14670789782E+03  0.54274607011E+02 -0.15529501308E+02  0.20083601684E+03  0.12500000000E+03 0.  0.
</event>
<event>
 4    0  0.2156764E-002  0.2663916E+03  0.7546771E-02  0.1103363E+00
         21   -1    0    0  502  501  0.00000000000E+00  0.00000000000E+00  0.47167944467E+02  0.47167944467E+02  0.00000000000E+00 0.  1.
         21   -1    0    0  501  502 -0.00000000000E+00 -0.00000000000E+00 -0.15045062668E+04  0.15045062668E+04  0.00000000000E+00 0. -1.
         25    1    1    2    0    0  0.74326251728E+02 -0.19238391340E+03 -0.39912431119E+03  0.46632732883E+03  0.12500000000E+03 0.  0.
         25    1    1    2    0    0 -0.74326251728E+02  0.19238391340E+03 -0.10582140111E+04  0.10853468824E+04  0.12500000000E+03 0.  0.
</event>
<event>
 4    0  0.2156764E-002  0.2986015E+03  0.7546771E-02  0.1085942E+00
         21   -1    0    0  502  501  0.00000000000E+00  0.00000000000E+00  0.24925831012E+03  0.24925831012E+03  0.00000000000E+00 0.  1.
         21   -1    0    0  501  502 -0.00000000000E+00 -0.00000000000E+00 -0.35771257466E+03  0.35771257466E+03  0.00000000000E+00 0.  1.
         25    1    1    2    0    0 -0.13850249587E+03  0.16503310547E+03  0.11314474568E+03  0.27357924033E+03  0.12500000000E+03 0.  0.
         25    1    1    2    0    0  0.13850249587E+03 -0.16503310547E+03 -0.22159901021E+03  0.33339164445E+03  0.12500000000E+03 0.  0.
</event>
<event>
 4    0  0.2156764E-002  0.1638366E+03  0.7546771E-02  0.1184432E+00
         21   -1    0    0  502  501  0.00000000000E+00  0.00000000000E+00  0.30401630110E+02  0.30401630110E+02  0.00000000000E+00 0.  1.
         21   -1    0    0  501  502 -0.00000000000E+00 -0.00000000000E+00 -0.88292739206E+03  0.88292739206E+03  0.00000000000E+00 0.  1.
         25    1    1    2    0    0 -0.56393712320E+02  0.89030896913E+02 -0.39693895797E+03  0.42929277626E+03  0.12500000000E+03 0.  0.
         25    1    1    2    0    0  0.56393712320E+02 -0.89030896913E+02 -0.45558680399E+03  0.48403624592E+03  0.12500000000E+03 0.  0.
</event>
<event>
 4    0  0.2156764E-002  0.2189416E+03  0.7546771E-02  0.1134675E+00
         21   -1    0    0  502  501  0.00000000000E+00  0.00000000000E+00  0.15369650392E+03  0.15369650392E+03  0.00000000000E+00 0.  1.
         21   -1    0    0  501  502 -0.00000000000E+00 -0.00000000000E+00 -0.31188355607E+03  0.31188355607E+03  0.00000000000E+00 0.  1.
         25    1    1    2    0    0 -0.70184758898E+02 -0.14955170295E+03 -0.37690558008E+01  0.20719753381E+03  0.12500000000E+03 0.  0.
         25    1    1    2    0    0  0.70184758898E+02  0.14955170295E+03 -0.15441799635E+03  0.25838252618E+03  0.12500000000E+03 0.  0.
</event>
<event>
 4    0  0.2156764E-002  0.1689696E+03  0.7546771E-02  0.1178927E+00
         21   -1    0    0  502  501  0.00000000000E+00  0.00000000000E+00  0.70375072769E+02  0.70375072769E+02  0.00000000000E+00 0.  1.
         21   -1    0    0  501  502 -0.00000000000E+00 -0.00000000000E+00 -0.40569392067E+03  0.40569392067E+03  0.00000000000E+00 0.  1.
         25    1    1    2    0    0  0.38373804430E+02 -0.46181567424E+02 -0.31656033051E+02  0.14224060765E+03  0.12500000000E+03 0.  0.
         25    1    1    2    0    0 -0.38373804430E+02  0.46181567424E+02 -0.30366281485E+03  0.33382838579E+03  0.12500000000E+03 0.  0.
</event>
<event>
 4    0  0.2156764E-002  0.1546082E+03  0.7546771E-02  0.1194922E+00
         21   -1    0    0  502  501  0.00000000000E+00  0.00000000000E+00  0.20568580925E+02  0.20568580925E+02  0.00000000000E+00 0.  1.
         21   -1    0    0  501  502 -0.00000000000E+00 -0.00000000000E+00 -0.11621463199E+04  0.11621463199E+04  0.00000000000E+00 0.  1.
         25    1    1    2    0    0  0.62554576039E+02  0.46073560463E+02 -0.38964740467E+03  0.41651644376E+03  0.12500000000E+03 0.  0.
         25    1    1    2    0    0 -0.62554576039E+02 -0.46073560463E+02 -0.75193033426E+03  0.76619845702E+03  0.12500000000E+03 0.  0.
</event>
<event>
 4    0  0.2156764E-002  0.2690769E+03  0.7546771E-02  0.1101809E+00
         21   -1    0    0  502  501  0.00000000000E+00  0.00000000000E+00  0.31414771778E+03  0.31414771778E+03  0.00000000000E+00 0.  1.
         21   -1    0    0  501  502 -0.00000000000E+00 -0.00000000000E+00 -0.23047236419E+03  0.23047236419E+03  0.00000000000E+00 0.  1.
         25    1    1    2    0    0  0.23721665009E+03  0.12656441425E+02  0.23028263815E+02  0.26942016540E+03  0.12500000000E+03 0.  0.
         25    1    1    2    0    0 -0.23721665009E+03 -0.12656441425E+02  0.60647089776E+02  0.27519991658E+03  0.12500000000E+03 0.  0.
</event>
<event>
 4    0  0.2156764E-002  0.1745986E+03  0.7546771E-02  0.1173135E+00
         21   -1    0    0  502  501  0.00000000000E+00  0.00000000000E+00  0.57305788138E+03  0.57305788138E+03  0.00000000000E+00 0. -1.
         21   -1    0    0  501  502 -0.00000000000E+00 -0.00000000000E+00 -0.53196514941E+02  0.53196514941E+02  0.00000000000E+00 0. -1.
         25    1    1    2    0    0  0.19599097268E+02  0.81959483874E+01  0.47520270671E+03  0.49182711459E+03  0.12500000000E+03 0.  0.
         25    1    1    2    0    0 -0.19599097268E+02 -0.81959483874E+01  0.44658659728E+02  0.13442728173E+03  0.12500000000E+03 0.  0.
</event>
<event>
 4    0  0.2156764E-002  0.2672884E+03  0.7546771E-02  0.1102842E+00
         21   -1    0    0  502  501  0.00000000000E+00  0.00000000000E+00  0.12469507832E+03  0.12469507832E+03  0.00000000000E+00 0. -1.
         21   -1    0    0  501  502 -0.00000000000E+00 -0.00000000000E+00 -0.57294219894E+03  0.57294219894E+03  0.00000000000E+00 0. -1.
         25    1    1    2    0    0 -0.21569560829E+02 -0.18333833554E+03 -0.31704449250E+02  0.22518517566E+03  0.12500000000E+03 0.  0.
         25    1    1    2    0    0  0.21569560829E+02  0.18333833554E+03 -0.41654267137E+03  0.47245210160E+03  0.12500000000E+03 0.  0.
</event>
<event>
 4    0  0.2156764E-002  0.1705991E+03  0.7546771E-02  0.1177225E+00
         21   -1    0    0  502  501  0.00000000000E+00  0.00000000000E+00  0.17083454533E+04  0.17083454533E+04  0.00000000000E+00 0. -1.
         21   -1    0    0  501  502 -0.00000000000E+00 -0.00000000000E+00 -0.17036402576E+02  0.17036402576E+02  0.00000000000E+00 0. -1.
         25    1    1    2    0    0 -0.95512882013E+02 -0.52218303738E+02  0.64151889630E+03  0.66258656505E+03  0.12500000000E+03 0.  0.
         25    1    1    2    0    0  0.95512882013E+02  0.52218303738E+02  0.10497901545E+04  0.10627952909E+04  0.12500000000E+03 0.  0.
</event>
<event>
 4    0  0.2156764E-002  0.2847438E+03  0.7546771E-02  0.1093126E+00
         21   -1    0    0  502  501  0.00000000000E+00  0.00000000000E+00  0.20203460788E+03  0.20203460788E+03  0.00000000000E+00 0.  1.
         21   -1    0    0  501  502 -0.00000000000E+00 -0.00000000000E+00 -0.40131266790E+03  0.40131266790E+03  0.00000000000E+00 0.  1.
         25    1    1    2    0    0  0.11187162442E+03 -0.33267300155E+02  0.14156376415E+03  0.22200737134E+03  0.12500000000E+03 0.  0.
         25    1    1    2    0    0 -0.11187162442E+03  0.33267300155E+02 -0.34084182417E+03  0.38133990444E+03  0.12500000000E+03 0.  0.
</event>
<event>
 4    0  0.2156764E-002  0.2020605E+03  0.7546771E-02  0.1148012E+00
         21   -1    0    0  502  501  0.00000000000E+00  0.00000000000E+00  0.12744843575E+03  0.12744843575E+03  0.00000000000E+00 0. -1.
         21   -1    0    0  501  502 -0.00000000000E+00 -0.00000000000E+00 -0.32035256457E+03  0.32035256457E+03  0.00000000000E+00 0. -1.
         25    1    1    2    0    0 -0.26194655749E+01 -0.13326809533E+03 -0.19200605752E+03  0.26506333763E+03  0.12500000000E+03 0.  0.
         25    1    1    2    0    0  0.26194655749E+01  0.13326809533E+03 -0.89807130572E+00  0.18273766269E+03  0.12500000000E+03 0.  0.
</event>
<event>
 4    0  0.2156764E-002  0.2895222E+03  0.7546771E-02  0.1090599E+00
         21   -1    0    0  502  501  0.00000000000E+00  0.00000000000E+00  0.97258371358E+02  0.97258371358E+02  0.00000000000E+00 0. -1.
         21   -1    0    0  501  502 -0.00000000000E+00 -0.00000000000E+00 -0.86186008771E+03  0.86186008771E+03  0.00000000000E+00 0. -1.
         25    1    1    2    0    0 -0.84211587868E+02 -0.15606736706E+03 -0.69983180171E+03  0.73269240837E+03  0.12500000000E+03 0.  0.
         25    1    1    2    0    0  0.84211587868E+02  0.15606736706E+03 -0.64769914638E+02  0.22642605070E+03  0.12500000000E+03 0.  0.
</event>
<event>
 4    0  0.2156764E-002  0.3348335E+03  0.7546771E-02  0.1069018E+00
         21   -1    0    0  502  501  0.00000000000E+00  0.00000000000E+00  0.88895107485E+03  0.88895107485E+03  0.00000000000E+00 0. -1.
         21   -1    0    0  501  502 -0.00000000000E+00 -0.00000000000E+00 -0.12611882810E+03  0.12611882810E+03  0.00000000000E+00 0. -1.
         25    1    1    2    0    0 -0.28871613489E+03  0.97460535084E+02  0.47277780911E+03  0.57619390767E+03  0.12500000000E+03 0.  0.
         25    1    1    2    0    0  0.28871613489E+03 -0.97460535084E+02  0.29005443764E+03  0.43887599529E+03  0.12500000000E+03 0.  0.
</event>
<event>
 4    0  0.2156764E-002  0.2162267E+03  0.7546771E-02  0.1136728E+00
         21   -1    0    0  502  501  0.00000000000E+00  0.00000000000E+00  0.48146333613E+03  0.48146333613E+03  0.00000000000E+00 0. -1.
         21   -1    0    0  501  502 -0.00000000000E+00 -0.00000000000E+00 -0.97108075458E+02  0.97108075458E+02  0.00000000000E+00 0. -1.
         25    1    1    2    0    0 -0.12798791771E+01  0.95565621661E+02  0.39059297213E+03  0.42109654001E+03  0.12500000000E+03 0.  0.
         25    1    1    2    0    0  0.12798791771E+01 -0.95565621661E+02 -0.62377114543E+01  0.15747487158E+03  0.12500000000E+03 0.  0.
</event>
<event>
 4    0  0.2156764E-002  0.2239655E+03  0.7546771E-02  0.1130961E+00
         21   -1    0    0  502  501  0.00000000000E+00  0.00000000000E+00  0.15164396033E+03  0.15164396033E+03  0.00000000000E+00 0.  1.
         21   -1    0    0  501  502 -0.00000000000E+00 -0.00000000000E+00 -0.33077828415E+03  0.33077828415E+03  0.00000000000E+00 0.  1.
         25    1    1    2    0    0 -0.94744034162E+02  0.10172357869E+03  0.43264320340E+02  0.19188777941E+03  0.12500000000E+03 0.  0.
         25    1    1    2    0    0  0.94744034162E+02 -0.10172357869E+03 -0.22239864416E+03  0.29053446507E+03  0.12500000000E+03 0.  0.
</event>
<event>
 4    0  0.2156764E-002  0.1798222E+03  0.7546771E-02  0.1167975E+00
         21   -1    0    0  502  501  0.00000000000E+00  0.00000000000E+00  0.10595381264E+04  0.10595381264E+04  0.00000000000E+00 0. -1.
         21   -1    0    0  501  502 -0.00000000000E+00 -0.00000000000E+00 -0.30518967318E+02  0.30518967318E+02  0.00000000000E+00 0. -1.
         25    1    1    2    0    0  0.43355628651E+02 -0.12160690634E+03  0.53439841018E+03  0.56380369900E+03  0.12500000000E+03 0.  0.
         25    1    1    2    0    0 -0.43355628651E+02  0.12160690634E+03  0.49462074890E+03  0.52625339471E+03  0.12500000000E+03 0.  0.
</event>
<event>
 4    0  0.2156764E-002  0.2347012E+03  0.7546771E-02  0.1123374E+00
         21   -1    0    0  502  501  0.00000000000E+00  0.00000000000E+00  0.94575946281E+02  0.94575946281E+02  0.00000000000E+00 0.  1.
         21   -1    0    0  501  502 -0.00000000000E+00 -0.00000000000E+00 -0.58243842440E+03  0.58243842440E+03  0.00000000000E+00 0.  1.
         25    1    1    2    0    0 -0.18767206565E+03  0.12543972474E+02 -0.33607436671E+03  0.40490632920E+03  0.12500000000E+03 0.  0.
         25    1    1    2    0    0  0.18767206565E+03 -0.12543972474E+02 -0.15178811141E+03  0.27210804148E+03  0.12500000000E+03 0.  0.
</event>
<event>
 4    0  0.2156764E-002  0.2131354E+03  0.7546771E-02  0.1139107E+00
         21   -1    0    0  502  501  0.00000000000E+00  0.00000000000E+00  0.18019901805E+03  0.18019901805E+03  0.00000000000E+00 0. -1.
         21   -1    0    0  501  502 -0.00000000000E+00 -0.00000000000E+00 -0.25209180933E+03  0.25209180933E+03  0.00000000000E+00 0. -1.
         25    1    1    2    0    0  0.10355056514E+03  0.12794697337E+03 -0.88725108241E+02  0.22492285871E+03  0.12500000000E+03 0.  0.
         25    1    1    2    0    0 -0.10355056514E+03 -0.12794697337E+03  0.16832316964E+02  0.20736796867E+03  0.12500000000E+03 0.  0.
</event>
<event>
 4    0  0.2156764E-002  0.1942766E+03  0.7546771E-02  0.1154660E+00
         21   -1    0    0  502  501  0.00000000000E+00  0.00000000000E+00  0.92735322345E+03  0.92735322345E+03  0.00000000000E+00 0. -1.
         21   -1    0    0  501  502 -0.00000000000E+00 -0.00000000000E+00 -0.40700134093E+02  0.40700134093E+02  0.00000000000E+00 0. -1.
         25    1    1    2    0    0  0.11778375930E+03  0.92453717418E+01  0.21827009519E+03  0.27789444994E+03  0.12500000000E+03 0.  0.
         25    1    1    2    0    0 -0.11778375930E+03 -0.92453717418E+01  0.66838299417E+03  0.69015890761E+03  0.12500000000E+03 0.  0.
</event>
<event>
 4    0  0.2156764E-002  0.2916548E+03  0.7546771E-02  0.1089488E+00
         21   -1    0    0  502  501  0.00000000000E+00  0.00000000000E+00  0.11801237087E+03  0.11801237087E+03  0.00000000000E+00 0. -1.
         21   -1    0    0  501  502 -0.00000000000E+00 -0.00000000000E+00 -0.72079334170E+03  0.72079334170E+03  0.00000000000E+00 0. -1.
         25    1    1    2    0    0 -0.50259164108E+02 -0.22423276591E+03 -0.11594160639E+03  0.28613593444E+03  0.12500000000E+03 0.  0.
         25    1    1    2    0    0  0.50259164108E+02  0.22423276591E+03 -0.48683936444E+03  0.55266977812E+03  0.12500000000E+03 0.  0.
</event>
<event>
 4    0  0.2156764E-002  0.1614378E+03  0.7546771E-02  0.1187083E+00
         21   -1    0    0  502  501  0.00000000000E+00  0.00000000000E+00  0.16513521415E+03  0.16513521415E+03  0.00000000000E+00 0.  1.
         21   -1    0    0  501  502 -0.00000000000E+00 -0.00000000000E+00 -0.15782308856E+03  0.15782308856E+03  0.00000000000E+00 0.  1.
         25    1    1    2    0    0 -0.89163733453E+01 -0.98891623810E+02 -0.20393699099E+02  0.16093463871E+03  0.12500000000E+03 0.  0.
         25    1    1    2    0    0  0.89163733453E+01  0.98891623810E+02  0.27705824694E+02  0.16202366400E+03  0.12500000000E+03 0.  0.
</event>
<event>
 4    0  0.2156764E-002  0.1577593E+03  0.7546771E-02  0.1191250E+00
         21   -1    0    0  502  501  0.00000000000E+00  0.00000000000E+00  0.19776606197E+02  0.19776606197E+02  0.00000000000E+00 0. -1.
         21   -1    0    0  501  502 -0.00000000000E+00 -0.00000000000E+00 -0.12584569574E+04  0.12584569574E+04  0.00000000000E+00 0. -1.
         25    1    1    2    0    0 -0.67955393896E+02  0.57916396337E+01 -0.89445096819E+03  0.90571464223E+03  0.12500000000E+03 0.  0.
         25    1    1    2    0    0  0.67955393896E+02 -0.57916396337E+01 -0.34422938301E+03  0.37251892137E+03  0.12500000000E+03 0.  0.
</event>
<event>
 4    0  0.2156764E-002  0.1741224E+03  0.7546771E-02  0.1173616E+00
         21   -1    0    0  502  501  0.00000000000E+00  0.00000000000E+00  0.17060337848E+03  0.17060337848E+03  0.00000000000E+00 0. -1.
         21   -1    0    0  501  502 -0.00000000000E+00 -0.00000000000E+00 -0.17771394524E+03  0.17771394524E+03  0.00000000000E+00 0. -1.
         25    1    1    2    0    0 -0.12069562632E+03  0.78403399805E+01  0.44896708782E+01  0.17399443178E+03  0.12500000000E+03 0.  0.
         25    1    1    2    0    0  0.12069562632E+03 -0.78403399805E+01 -0.11600237638E+02  0.17432289195E+03  0.12500000000E+03 0.  0.
</event>
<event>
 4    0  0.2156764E-002  0.3062176E+03  0.7546771E-02  0.1082173E+00
         21   -1    0    0  502  501  0.00000000000E+00  0.00000000000E+00  0.15028206249E+03  0.15028206249E+03  0.00000000000E+00 0. -1.
         21   -1    0    0  501  502 -0.00000000000E+00 -0.00000000000E+00 -0.62395503107E+03  0.62395503107E+03  0.00000000000E+00 0. -1.
         25    1    1    2    0    0 -0.15907769246E+03  0.21198743522E+03 -0.12447342154E+03  0.31837559203E+03  0.12500000000E+03 0.  0.
         25    1    1    2    0    0  0.15907769246E+03 -0.21198743522E+03 -0.34919954703E+03  0.45586150153E+03  0.12500000000E+03 0.  0.
</event>
<event>
 4    0  0.2156764E-002  0.1769397E+03  0.7546771E-02  0.1170798E+00
         21   -1    0    0  502  501  0.00000000000E+00  0.00000000000E+00  0.13602248289E+04  0.13602248289E+04  0.00000000000E+00 0.  1.
         21   -1    0    0  501  502 -0.00000000000E+00 -0.00000000000E+00 -0.23016529111E+02  0.23016529111E+02  0.00000000000E+00 0.  1.
         25    1    1    2    0    0 -0.83446991020E+02 -0.87357862917E+02  0.79752666782E+03  0.81625276869E+03  0.12500000000E+03 0.  0.
         25    1    1    2    0    0  0.83446991020E+02  0.87357862917E+02  0.53968163194E+03  0.56698858928E+03  0.12500000000E+03 0.  0.
</event>
<event>
 4    0  0.2156764E-002  0.2161427E+03  0.7546771E-02  0.1136792E+00
         21   -1    0    0  502  501  0.00000000000E+00  0.00000000000E+00  0.35200551335E+02  0.35200551335E+02  0.00000000000E+00 0.  1.
         21   -1    0    0  501  502 -0.00000000000E+00 -0.00000000000E+00 -0.13271861939E+04  0.13271861939E+04  0.00000000000E+00 0.  1.
         25    1    1    2    0    0 -0.15967196103E+03  0.53365607597E+02 -0.81125346946E+03  0.83791420499E+03  0.12500000000E+03 0.  0.
         25    1    1    2    0    0  0.15967196103E+03 -0.53365607597E+02 -0.48073217313E+03  0.52447254027E+03  0.12500000000E+03 0.  0.
</event>
<event>
 4    0  0.2156764E-002  0.1875335E+03  0.7546771E-02  0.1160705E+00
         21   -1    0    0  502  501  0.00000000000E+00  0.00000000000E+00  0.41407318583E+03  0.41407318583E+03  0.00000000000E+00 0.  1.
         21   -1    0    0  501  502 -0.00000000000E+00 -0.00000000000E+00 -0.84933792025E+02  0.84933792025E+02  0.00000000000E+00 0.  1.
         25    1    1    2    0    0 -0.43646678697E+02  0.12088181004E+03  0.23776078410E+03  0.29777950738E+03  0.12500000000E+03 0.  0.
         25    1    1    2    0    0  0.43646678697E+02 -0.12088181004E+03  0.91378609702E+02  0.20122747047E+03  0.12500000000E+03 0.  0.
</event>
<event>
 4    0  0.2156764E-002  0.2226667E+03  0.7546771E-02  0.1131910E+00
         21   -1    0    0  502  501  0.00000000000E+00  0.00000000000E+00  0.24165996019E+03  0.24165996019E+03  0.00000000000E+00 0. -1.
         21   -1    0    0  501  502 -0.00000000000E+00 -0.00000000000E+00 -0.20516623911E+03  0.20516623911E+03  0.00000000000E+00 0. -1.
         25    1    1    2    0    0  0.12867164866E+03  0.77275456492E+02 -0.89011311554E+02  0.21465298258E+03  0.12500000000E+03 0.  0.
         25    1    1    2    0    0 -0.12867164866E+03 -0.77275456492E+02  0.12550503263E+03  0.23217321672E+03  0.12500000000E+03 0.  0.
</event>
<event>
 4    0  0.2156764E-002  0.1756187E+03  0.7546771E-02  0.1172112E+00
         21   -1    0    0  502  501  0.00000000000E+00  0.00000000000E+00  0.15669489065E+03  0.15669489065E+03  0.00000000000E+00 0. -1.
         21   -1    0    0  501  502 -0.00000000000E+00 -0.00000000000E+00 -0.19682801177E+03  0.19682801177E+03  0.00000000000E+00 0. -1.
         25    1    1    2    0    0  0.48386296366E+02 -0.76964232033E+02 -0.10398904852E+03  0.18628861721E+03  0.12500000000E+03 0.  0.
         25    1    1    2    0    0 -0.48386296366E+02  0.76964232033E+02  0.63855927405E+02  0.16723428522E+03  0.12500000000E+03 0.  0.
</event>
<event>
 4    0  0.2156764E-002  0.1837269E+03  0.7546771E-02  0.1164244E+00
         21   -1    0    0  502  501  0.00000000000E+00  0.00000000000E+00  0.11874184993E+03  0.11874184993E+03  0.00000000000E+00 0. -1.
         21   -1    0    0  501  502 -0.00000000000E+00 -0.00000000000E+00 -0.28427710114E+03  0.28427710114E+03  0.00000000000E+00 0. -1.
         25    1    1    2    0    0  0.65642236644E+02 -0.11623711822E+03 -0.63437443870E+02  0.19356983280E+03  0.12500000000E+03 0.  0.
         25    1    1    2    0    0 -0.65642236644E+02  0.11623711822E+03 -0.10209780734E+03  0.20944911828E+03  0.12500000000E+03 0.  0.
</event>
<event>
 4    0  0.2156764E-002  0.3493882E+03  0.7546771E-02  0.1062866E+00
         21   -1    0    0  502  501  0.00000000000E+00  0.00000000000E+00  0.12911585132E+04  0.12911585132E+04  0.00000000000E+00 0.  1.
         21   -1    0    0  501  502 -0.00000000000E+00 -0.00000000000E+00 -0.94544627844E+02  0.94544627844E+02  0.00000000000E+00 0.  1.
         25    1    1    2    0    0  0.27899519844E+03  0.16868213371E+03  0.62300502745E+03  0.71417942228E+03  0.12500000000E+03 0.  0.
         25    1    1    2    0    0 -0.27899519844E+03 -0.16868213371E+03  0.57360885791E+03  0.67152371877E+03  0.12500000000E+03 0.  0.
</event>
<event>
 4    0  0.2156764E-002  0.2105546E+03  0.7546771E-02  0.1141128E+00
         21   -1    0    0  502  501  0.00000000000E+00  0.00000000000E+00  0.55469396585E+03  0.55469396585E+03  0.00000000000E+00 0. -1.
         21   -1    0    0  501  502 -0.00000000000E+00 -0.00000000000E+00 -0.79923803622E+02  0.79923803622E+02  0.00000000000E+00 0. -1.
         25    1    1    2    0    0  0.16000777719E+03  0.28640294557E+02  0.16533944053E+03  0.26341010958E+03  0.12500000000E+03 0.  0.
         25    1    1    2    0    0 -0.16000777719E+03 -0.28640294557E+02  0.30943072170E+03  0.37120765990E+03  0.12500000000E+03 0.  0.
</event>
<event>
 4    0  0.2156764E-002  0.2148097E+03  0.7546771E-02  0.1137813E+00
         21   -1    0    0  502  501  0.00000000000E+00  0.00000000000E+00  0.61005563466E+03  0.61005563466E+03  0.00000000000E+00 0. -1.
         21   -1    0    0  501  502 -0.00000000000E+00 -0.00000000000E+00 -0.75637721119E+02  0.75637721119E+02  0.00000000000E+00 0. -1.
         25    1    1    2    0    0  0.62438015688E+02  0.16276816663E+03  0.24927658343E+03  0.32887048654E+03  0.12500000000E+03 0.  0.
         25    1    1    2    0    0 -0.62438015688E+02 -0.16276816663E+03  0.28514133011E+03  0.35682286923E+03  0.12500000000E+03 0.  0.
</event>
<event>
 4    0  0.2156764E-002  0.2678344E+03  0.7546771E-02  0.1102525E+00
         21   -1    0    0  502  501  0.00000000000E+00  0.00000000000E+00  0.71169954732E+03  0.71169954732E+03  0.00000000000E+00 0. -1.
         21   -1    0    0  501  502 -0.00000000000E+00 -0.00000000000E+00 -0.10079429717E+03  0.10079429717E+03  0.00000000000E+00 0. -1.
         25    1    1    2    0    0 -0.42565564134E+02 -0.17658183319E+03  0.74835173640E+02  0.23284817860E+03  0.12500000000E+03 0.  0.
         25    1    1    2    0    0  0.42565564134E+02  0.17658183319E+03  0.53607007651E+03  0.57964566589E+03  0.12500000000E+03 0.  0.
</event>
<event>
 4    0  0.2156764E-002  0.1908332E+03  0.7546771E-02  0.1157712E+00
         21   -1    0    0  502  501  0.00000000000E+00  0.00000000000E+00  0.68899530020E+03  0.68899530020E+03  0.00000000000E+00 0. -1.
         21   -1    0    0  501  502 -0.00000000000E+00 -0.00000000000E+00 -0.52855659851E+02  0.52855659851E+02  0.00000000000E+00 0. -1.
         25    1    1    2    0    0  0.26241490046E+02  0.46568065936E+02  0.57763509211E+02  0.14771196147E+03  0.12500000000E+03 0.  0.
         25    1    1    2    0    0 -0.26241490046E+02 -0.46568065936E+02  0.57837613114E+03  0.59413899858E+03  0.12500000000E+03 0.  0.
</event>
<event>
 4    0  0.2156764E-002  0.2353847E+03  0.7546771E-02  0.1122906E+00
         21   -1    0    0  502  501  0.00000000000E+00  0.00000000000E+00  0.39072341852E+02  0.39072341852E+02  0.00000000000E+00 0.  1.
         21   -1    0    0  501  502 -0.00000000000E+00 -0.00000000000E+00 -0.14180357946E+04  0.14180357946E+04  0.00000000000E+00 0.  1.
         25    1    1    2    0    0 -0.35475062884E+02  0.16693215483E+03 -0.36997225792E+03  0.42617988694E+03  0.12500000000E+03 0.  0.
         25    1    1    2    0    0  0.35475062884E+02 -0.16693215483E+03 -0.10089911949E+04  0.10309282495E+04  0.12500000000E+03 0.  0.
</event>
<event>
 4    0  0.2156764E-002  0.2366709E+03  0.7546771E-02  0.1122031E+00
         21   -1    0    0  502  501  0.00000000000E+00  0.00000000000E+00  0.24458130854E+03  0.24458130854E+03  0.00000000000E+00 0. -1.
         21   -1    0    0  501  502 -0.00000000000E+00 -0.00000000000E+00 -0.22901625362E+03  0.22901625362E+03  0.00000000000E+00 0.  1.
         25    1    1    2    0    0 -0.19550119037E+03 -0.43397909902E+02 -0.90789096394E+01  0.23624462030E+03  0.12500000000E+03 0.  0.
         25    1    1    2    0    0  0.19550119037E+03  0.43397909902E+02  0.24643964562E+02  0.23735294186E+03  0.12500000000E+03 0.  0.
</event>
<event>
 4    0  0.2156764E-002  0.2000983E+03  0.7546771E-02  0.1149656E+00
         21   -1    0    0  502  501  0.00000000000E+00  0.00000000000E+00  0.44239249691E+03  0.44239249691E+03  0.00000000000E+00 0.  1.
         21   -1    0    0  501  502 -0.00000000000E+00 -0.00000000000E+00 -0.90506333041E+02  0.90506333041E+02  0.00000000000E+00 0.  1.
         25    1    1    2    0    0  0.84117255796E+02  0.64249968997E+02  0.22893593266E+02  0.16538708490E+03  0.12500000000E+03 0.  0.
         25    1    1    2    0    0 -0.84117255796E+02 -0.64249968997E+02  0.32899257060E+03  0.36751174505E+03  0.12500000000E+03 0.  0.
</event>
<event>
 4    0  0.2156764E-002  0.1800538E+03  0.7546771E-02  0.1167751E+00
         21   -1    0    0  502  501  0.00000000000E+00  0.00000000000E+00  0.63900463097E+02  0.63900463097E+02  0.00000000000E+00 0. -1.
         21   -1    0    0  501  502 -0.00000000000E+00 -0.00000000000E+00 -0.50734168042E+03  0.50734168042E+03  0.00000000000E+00 0. -1.
         25    1    1    2    0    0 -0.10349698533E+02 -0.19952182666E+01 -0.16826923033E+02  0.12656714619E+03  0.12500000000E+03 0.  0.
         25    1    1    2    0    0  0.10349698533E+02  0.19952182666E+01 -0.42661429429E+03  0.44467499733E+03  0.12500000000E+03 0.  0.
</event>
<event>
 4    0  0.2156764E-002  0.1874303E+03  0.7546771E-02  0.1160800E+00
         21   -1    0    0  502  501  0.00000000000E+00  0.00000000000E+00  0.44903106269E+03  0.44903106269E+03  0.00000000000E+00 0.  1.
         21   -1    0    0  501  502 -0.00000000000E+00 -0.00000000000E+00 -0.78235368583E+02  0.78235368583E+02  0.00000000000E+00 0.  1.
         25    1    1    2    0    0 -0.12960114192E+03  0.28625080132E+02  0.24653513570E+03  0.30662750094E+03  0.12500000000E+03 0.  0.
         25    1    1    2    0    0  0.12960114192E+03 -0.28625080132E+02  0.12426055840E+03  0.22063893032E+03  0.12500000000E+03 0.  0.
</event>
<event>
 4    0  0.2156764E-002  0.2058396E+03  0.7546771E-02  0.1144904E+00
         21   -1    0    0  502  501  0.00000000000E+00  0.00000000000E+00  0.64210521689E+03  0.64210521689E+03  0.00000000000E+00 0.  1.
         21   -1    0    0  501  502 -0.00000000000E+00 -0.00000000000E+00 -0.65985960533E+02  0.65985960533E+02  0.00000000000E+00 0. -1.
         25    1    1    2    0    0  0.94452096676E+02 -0.78761360604E+02  0.47347274884E+03  0.50490196512E+03  0.12500000000E+03 0.  0.
         25    1    1    2    0    0 -0.94452096676E+02  0.78761360604E+02  0.10264650752E+03  0.20318921231E+03  0.12500000000E+03 0.  0.
</event>
<event>
 4    0  0.2156764E-002  0.1991811E+03  0.7546771E-02  0.1150432E+00
         21   -1    0    0  502  501  0.00000000000E+00  0.00000000000E+00  0.43179370417E+03  0.43179370417E+03  0.00000000000E+00 0.  1.
         21   -1    0    0  501  502 -0.00000000000E+00 -0.00000000000E+00 -0.91879785796E+02  0.91879785796E+02  0.00000000000E+00 0.  1.
         25    1    1    2    0    0 -0.13148993708E+03 -0.25103774248E+02  0.27286583098E+03  0.32863439374E+03  0.12500000000E+03 0.  0.
         25    1    1    2    0    0  0.13148993708E+03  0.25103774248E+02  0.67048087398E+02  0.19503909623E+03  0.12500000000E+03 0.  0.
</event>
<event>
 4    0  0.2156764E-002  0.2882830E+03  0.7546771E-02  0.1091249E+00
         21   -1    0    0  502  501  0.00000000000E+00  0.00000000000E+00  0.58275648409E+02  0.58275648409E+02  0.00000000000E+00 0. -1.
         21   -1    0    0  501  502 -0.00000000000E+00 -0.00000000000E+00 -0.14261027148E+04  0.14261027148E+04  0.00000000000E+00 0. -1.
         25    1    1    2    0    0 -0.84282325931E+02 -0.15969571882E+03 -0.20312077402E+03  0.29914759219E+03  0.12500000000E+03 0.  0.
         25    1    1    2    0    0  0.84282325931E+02  0.15969571882E+03 -0.11647062924E+04  0.11852307710E+04  0.12500000000E+03 0.  0.
</event>
<event>
 4    0  0.2156764E-002  0.2065889E+03  0.7546771E-02  0.1144296E+00
         21   -1    0    0  502  501  0.00000000000E+00  0.00000000000E+00  0.80511166274E+02  0.80511166274E+02  0.00000000000E+00 0. -1.
         21   -1    0    0  501  502 -0.00000000000E+00 -0.00000000000E+00 -0.53010021681E+03  0.53010021681E+03  0.00000000000E+00 0. -1.
         25    1    1    2    0    0  0.20642127308E+02 -0.73301671416E+02 -0.44024918671E+03  0.46394350825E+03  0.12500000000E+03 0.  0.
         25    1    1    2    0    0 -0.20642127308E+02  0.73301671416E+02 -0.93398638303E+01  0.14666787483E+03  0.12500000000E+03 0.  0.
</event>
<event>
 4    0  0.2156764E-002  0.1713231E+03  0.7546771E-02  0.1176475E+00
         21   -1    0    0  502  501  0.00000000000E+00  0.00000000000E+00  0.27556257463E+03  0.27556257463E+03  0.00000000000E+00 0. -1.
         21   -1    0    0  501  502 -0.00000000000E+00 -0.00000000000E+00 -0.10651526546E+03  0.10651526546E+03  0.00000000000E+00 0. -1.
         25    1    1    2    0    0  0.32326471565E+02 -0.10291320537E+03  0.13550720602E+03  0.21359618790E+03  0.12500000000E+03 0.  0.
         25    1    1    2    0    0 -0.32326471565E+02  0.10291320537E+03  0.33540103151E+02  0.16848165218E+03  0.12500000000E+03 0.  0.
</event>
<event>
 4    0  0.2156764E-002  0.2242295E+03  0.7546771E-02  0.1130769E+00
         21   -1    0    0  502  501  0.00000000000E+00  0.00000000000E+00  0.74355515946E+03  0.74355515946E+03  0.00000000000E+00 0.  1.
         21   -1    0    0  501  502 -0.00000000000E+00 -0.00000000000E+00 -0.67619549294E+02  0.67619549294E+02  0.00000000000E+00 0.  1.
         25    1    1    2    0    0  0.12433491586E+03  0.13516995464E+03  0.39294406662E+03  0.45139797013E+03  0.12500000000E+03 0.  0.
         25    1    1    2    0    0 -0.12433491586E+03 -0.13516995464E+03  0.28299154354E+03  0.35977673862E+03  0.12500000000E+03 0.  0.
</event>
<event>
 4    0  0.2156764E-002  0.2964740E+03  0.7546771E-02  0.1087017E+00
         21   -1    0    0  502  501  0.00000000000E+00  0.00000000000E+00  0.21958359053E+03  0.21958359053E+03  0.00000000000E+00 0.  1.
         21   -1    0    0  501  502 -0.00000000000E+00 -0.00000000000E+00 -0.40028872837E+03  0.40028872837E+03  0.00000000000E+00 0.  1.
         25    1    1    2    0    0  0.22919163471E+03 -0.19155913846E+02  0.55166063599E+02  0.26751457723E+03  0.12500000000E+03 0.  0.
         25    1    1    2    0    0 -0.22919163471E+03  0.19155913846E+02 -0.23587120144E+03  0.35235774168E+03  0.12500000000E+03 0.  0.
</event>
<event>
 4    0  0.2156764E-002  0.2299599E+03  0.7546771E-02  0.1126668E+00
         21   -1    0    0  502  501  0.00000000000E+00  0.00000000000E+00  0.22415903597E+03  0.22415903597E+03  0.00000000000E+00 0.  1.
         21   -1    0    0  501  502 -0.00000000000E+00 -0.00000000000E+00 -0.23591090085E+03  0.23591090085E+03  0.00000000000E+00 0.  1.
         25    1    1    2    0    0 -0.33310340520E+01  0.10056979124E+02  0.18691559530E+03  0.22511036934E+03  0.12500000000E+03 0.  0.
         25    1    1    2    0    0  0.33310340520E+01 -0.10056979124E+02 -0.19866746018E+03  0.23495956748E+03  0.12500000000E+03 0.  0.
</event>
<event>
 4    0  0.2156764E-002  0.2669287E+03  0.7546771E-02  0.1103050E+00
         21   -1    0    0  502  501  0.00000000000E+00  0.00000000000E+00  0.55497573284E+03  0.55497573284E+03  0.00000000000E+00 0.  1.
         21   -1    0    0  501  502 -0.00000000000E+00 -0.00000000000E+00 -0.12838566039E+03  0.12838566039E+03  0.00000000000E+00 0.  1.
         25    1    1    2    0    0  0.13501255537E+03  0.16311723353E+03  0.80328600503E+02  0.25867606391E+03  0.12500000000E+03 0.  0.
         25    1    1    2    0    0 -0.13501255537E+03 -0.16311723353E+03  0.34626147195E+03  0.42468532932E+03  0.12500000000E+03 0.  0.
</event>
<event>
 4    0  0.2156764E-002  0.1835043E+03  0.7546771E-02  0.1164454E+00
         21   -1    0    0  502  501  0.00000000000E+00  0.00000000000E+00  0.35633511248E+02  0.35633511248E+02  0.00000000000E+00 0. -1.
         21   -1    0    0  501  502 -0.00000000000E+00 -0.00000000000E+00 -0.94500429656E+03  0.94500429656E+03  0.00000000000E+00 0. -1.
         25    1    1    2    0    0  0.12978700932E+03 -0.79748540906E+01 -0.54492362521E+03  0.57399914930E+03  0.12500000000E+03 0.  0.
         25    1    1    2    0    0 -0.12978700932E+03  0.79748540906E+01 -0.36444716011E+03  0.40663865851E+03  0.12500000000E+03 0.  0.
</event>
<event>
 4    0  0.2156764E-002  0.2103798E+03  0.7546771E-02  0.1141266E+00
         21   -1    0    0  502  501  0.00000000000E+00  0.00000000000E+00  0.10758272529E+04  0.10758272529E+04  0.00000000000E+00 0.  1.
         21   -1    0    0  501  502 -0.00000000000E+00 -0.00000000000E+00 -0.41140099344E+02  0.41140099344E+02  0.00000000000E+00 0.  1.
         25    1    1    2    0    0  0.61538295688E+02 -0.92710942656E+02  0.85577038088E+03  0.87198063368E+03  0.12500000000E+03 0.  0.
         25    1    1    2    0    0 -0.61538295688E+02  0.92710942656E+02  0.17891677266E+03  0.24498671854E+03  0.12500000000E+03 0.  0.
</event>
<event>
 4    0  0.2156764E-002  0.2788693E+03  0.7546771E-02  0.1096308E+00
         21   -1    0    0  502  501  0.00000000000E+00  0.00000000000E+00  0.34663498842E+03  0.34663498842E+03  0.00000000000E+00 0.  1.
         21   -1    0    0  501  502 -0.00000000000E+00 -0.00000000000E+00 -0.22435154314E+03  0.22435154314E+03  0.00000000000E+00 0.  1.
         25    1    1    2    0    0  0.17930181445E+03 -0.14351961144E+03 -0.38094077880E+02  0.26424075821E+03  0.12500000000E+03 0.  0.
         25    1    1    2    0    0 -0.17930181445E+03  0.14351961144E+03  0.16037752316E+03  0.30674577335E+03  0.12500000000E+03 0.  0.
</event>
<event>
 4    0  0.2156764E-002  0.2718240E+03  0.7546771E-02  0.1100240E+00
         21   -1    0    0  502  501  0.00000000000E+00  0.00000000000E+00  0.49078650666E+03  0.49078650666E+03  0.00000000000E+00 0. -1.
         21   -1    0    0  501  502 -0.00000000000E+00 -0.00000000000E+00 -0.15055072913E+03  0.15055072913E+03  0.00000000000E+00 0. -1.
         25    1    1    2    0    0 -0.80507539477E+02 -0.18172759046E+03  0.85522196374E+01  0.23495642470E+03  0.12500000000E+03 0.  0.
         25    1    1    2    0    0  0.80507539477E+02  0.18172759046E+03  0.33168355789E+03  0.40638081109E+03  0.12500000000E+03 0.  0.
</event>
<event>
 4    0  0.2156764E-002  0.2318605E+03  0.7546771E-02  0.1125337E+00
         21   -1    0    0  502  501  0.00000000000E+00  0.00000000000E+00  0.36751269843E+03  0.36751269843E+03  0.00000000000E+00 0. -1.
         21   -1    0    0  501  502 -0.00000000000E+00 -0.00000000000E+00 -0.14627873374E+03  0.14627873374E+03  0.00000000000E+00 0. -1.
         25    1    1    2    0    0  0.95848884268E+02 -0.10701517298E+03  0.25716755344E+03  0.31999907251E+03  0.12500000000E+03 0.  0.
         25    1    1    2    0    0 -0.95848884268E+02  0.10701517298E+03 -0.35933588754E+02  0.19379235967E+03  0.12500000000E+03 0.  0.
</event>
<event>
 4    0  0.2156764E-002  0.2920742E+03  0.7546771E-02  0.1089271E+00
         21   -1    0    0  502  501  0.00000000000E+00  0.00000000000E+00  0.96005694893E+02  0.96005694893E+02  0.00000000000E+00 0.  1.
         21   -1    0    0  501  502 -0.00000000000E+00 -0.00000000000E+00 -0.88856528247E+03  0.88856528247E+03  0.00000000000E+00 0.  1.
         25    1    1    2    0    0  0.17268832034E+03 -0.17274044902E+03 -0.22754800134E+03  0.35645983171E+03  0.12500000000E+03 0.  0.
         25    1    1    2    0    0 -0.17268832034E+03  0.17274044902E+03 -0.56501158624E+03  0.62811114565E+03  0.12500000000E+03 0.  0.
</event>
<event>
 4    0  0.2156764E-002  0.2484309E+03  0.7546771E-02  0.1114301E+00
         21   -1    0    0  502  501  0.00000000000E+00  0.00000000000E+00  0.73309472640E+03  0.73309472640E+03  0.00000000000E+00 0.  1.
         21   -1    0    0  501  502 -0.00000000000E+00 -0.00000000000E+00 -0.84188156351E+02  0.84188156351E+02  0.00000000000E+00 0.  1.
         25    1    1    2    0    0 -0.13799319572E+02  0.16056249224E+03  0.91121372373E+02  0.22338048178E+03  0.12500000000E+03 0.  0.
         25    1    1    2    0    0  0.13799319572E+02 -0.16056249224E+03  0.55778519768E+03  0.59390240097E+03  0.12500000000E+03 0.  0.
</event>
<event>
 4    0  0.2156764E-002  0.2210127E+03  0.7546771E-02  0.1133130E+00
         21   -1    0    0  502  501  0.00000000000E+00  0.00000000000E+00  0.58830508275E+03  0.58830508275E+03  0.00000000000E+00 0.  1.
         21   -1    0    0  501  502 -0.00000000000E+00 -0.00000000000E+00 -0.83029418466E+02  0.83029418466E+02  0.00000000000E+00 0.  1.
         25    1    1    2    0    0  0.93874905847E+02 -0.46462994967E+02  0.26090050502E+02  0.16515749630E+03  0.12500000000E+03 0.  0.
         25    1    1    2    0    0 -0.93874905847E+02  0.46462994967E+02  0.47918561378E+03  0.50617700492E+03  0.12500000000E+03 0.  0.
</event>
<event>
 4    0  0.2156764E-002  0.2264802E+03  0.7546771E-02  0.1129142E+00
         21   -1    0    0  502  501  0.00000000000E+00  0.00000000000E+00  0.34014173548E+02  0.34014173548E+02  0.00000000000E+00 0. -1.
         21   -1    0    0  501  502 -0.00000000000E+00 -0.00000000000E+00 -0.15079979030E+04  0.15079979030E+04  0.00000000000E+00 0. -1.
         25    1    1    2    0    0  0.12805031731E+03  0.50446535242E+02 -0.11772737721E+04  0.11918642000E+04  0.12500000000E+03 0.  0.
         25    1    1    2    0    0 -0.12805031731E+03 -0.50446535242E+02 -0.29670995732E+03  0.35014787656E+03  0.12500000000E+03 0.  0.
</event>
<event>
 4    0  0.2156764E-002  0.1900691E+03  0.7546771E-02  0.1158399E+00
         21   -1    0    0  502  501  0.00000000000E+00  0.00000000000E+00  0.79435111450E+03  0.79435111450E+03  0.00000000000E+00 0. -1.
         21   -1    0    0  501  502 -0.00000000000E+00 -0.00000000000E+00 -0.45478979064E+02  0.45478979064E+02  0.00000000000E+00 0. -1.
         25    1    1    2    0    0 -0.14142853052E+03  0.22343487466E+02  0.37414777899E+03  0.41965798122E+03  0.12500000000E+03 0.  0.
         25    1    1    2    0    0  0.14142853052E+03 -0.22343487466E+02  0.37472435644E+03  0.42017211234E+03  0.12500000000E+03 0.  0.
</event>
<event>
 4    0  0.2156764E-002  0.2650866E+03  0.7546771E-02  0.1104125E+00
         21   -1    0    0  502  501  0.00000000000E+00  0.00000000000E+00  0.43054832456E+03  0.43054832456E+03  0.00000000000E+00 0.  1.
         21   -1    0    0  501  502 -0.00000000000E+00 -0.00000000000E+00 -0.16321257486E+03  0.16321257486E+03  0.00000000000E+00 0.  1.
         25    1    1    2    0    0 -0.18692837067E+03  0.11785538933E+03  0.21906113372E+03  0.33532803173E+03  0.12500000000E+03 0.  0.
         25    1    1    2    0    0  0.18692837067E+03 -0.11785538933E+03  0.48274615974E+02  0.25843286769E+03  0.12500000000E+03 0.  0.
</event>
<event>
 4    0  0.2156764E-002  0.1999803E+03  0.7546771E-02  0.1149756E+00
         21   -1    0    0  502  501  0.00000000000E+00  0.00000000000E+00  0.89871775166E+03  0.89871775166E+03  0.00000000000E+00 0.  1.
         21   -1    0    0  501  502 -0.00000000000E+00 -0.00000000000E+00 -0.44499101700E+02  0.44499101700E+02  0.00000000000E+00 0.  1.
         25    1    1    2    0    0  0.88261935928E+02  0.11485524400E+03  0.28989837727E+03  0.34734416009E+03  0.12500000000E+03 0.  0.
         25    1    1    2    0    0 -0.88261935928E+02 -0.11485524400E+03  0.56432027269E+03  0.59587269326E+03  0.12500000000E+03 0.  0.
</event>
<event>
 4    0  0.2156764E-002  0.1854339E+03  0.7546771E-02  0.1162645E+00
         21   -1    0    0  502  501  0.00000000000E+00  0.00000000000E+00  0.29042259037E+03  0.29042259037E+03  0.00000000000E+00 0. -1.
         21   -1    0    0  501  502 -0.00000000000E+00 -0.00000000000E+00 -0.11839893479E+03  0.11839893479E+03  0.00000000000E+00 0. -1.
         25    1    1    2    0    0  0.98239027100E+02  0.55516310328E+02  0.42782907588E+00  0.16839878324E+03  0.12500000000E+03 0.  0.
         25    1    1    2    0    0 -0.98239027100E+02 -0.55516310328E+02  0.17159582651E+03  0.24042274192E+03  0.12500000000E+03 0.  0.
</event>
<event>
 4    0  0.2156764E-002  0.2664645E+03  0.7546771E-02  0.1103320E+00
         21   -1    0    0  502  501  0.00000000000E+00  0.00000000000E+00  0.18867605318E+03  0.18867605318E+03  0.00000000000E+00 0. -1.
         21   -1    0    0  501  502 -0.00000000000E+00 -0.00000000000E+00 -0.37632393249E+03  0.37632393249E+03  0.00000000000E+00 0. -1.
         25    1    1    2    0    0 -0.12935223229E+03 -0.15216992846E+03 -0.22577522689E+03  0.32632367399E+03  0.12500000000E+03 0.  0.
         25    1    1    2    0    0  0.12935223229E+03  0.15216992846E+03  0.38127347578E+02  0.23867631168E+03  0.12500000000E+03 0.  0.
</event>
<event>
 4    0  0.2156764E-002  0.2073857E+03  0.7546771E-02  0.1143653E+00
         21   -1    0    0  502  501  0.00000000000E+00  0.00000000000E+00  0.35620660597E+03  0.35620660597E+03  0.00000000000E+00 0. -1.
         21   -1    0    0  501  502 -0.00000000000E+00 -0.00000000000E+00 -0.12074126186E+03  0.12074126186E+03  0.00000000000E+00 0. -1.
         25    1    1    2    0    0 -0.14736175254E+03 -0.71955010847E+02  0.14320834040E+03  0.25105106743E+03  0.12500000000E+03 0.  0.
         25    1    1    2    0    0  0.14736175254E+03  0.71955010847E+02  0.92257003704E+02  0.22589680040E+03  0.12500000000E+03 0.  0.
</event>
<event>
 4    0  0.2156764E-002  0.3123901E+03  0.7546771E-02  0.1079206E+00
         21   -1    0    0  502  501  0.00000000000E+00  0.00000000000E+00  0.18897236917E+03  0.18897236917E+03  0.00000000000E+00 0. -1.
         21   -1    0    0  501  502 -0.00000000000E+00 -0.00000000000E+00 -0.51641176092E+03  0.51641176092E+03  0.00000000000E+00 0. -1.
         25    1    1    2    0    0  0.11238988675E+03 -0.11193411912E+02 -0.46072871695E+03  0.49056368571E+03  0.12500000000E+03 0.  0.
         25    1    1    2    0    0 -0.11238988675E+03  0.11193411912E+02  0.13328932519E+03  0.21482044438E+03  0.12500000000E+03 0.  0.
</event>
<event>
 4    0  0.2156764E-002  0.2383246E+03  0.7546771E-02  0.1120914E+00
         21   -1    0    0  502  501  0.00000000000E+00  0.00000000000E+00  0.89844799658E+02  0.89844799658E+02  0.00000000000E+00 0. -1.
         21   -1    0    0  501  502 -0.00000000000E+00 -0.00000000000E+00 -0.63218613244E+03  0.63218613244E+03  0.00000000000E+00 0. -1.
         25    1    1    2    0    0  0.17549093795E+03 -0.16588122359E+02 -0.42341728840E+03  0.47537294330E+03  0.12500000000E+03 0.  0.
         25    1    1    2    0    0 -0.17549093795E+03  0.16588122359E+02 -0.11892404438E+03  0.24665798880E+03  0.12500000000E+03 0.  0.
</event>
<event>
 4    0  0.2156764E-002  0.2831250E+03  0.7546771E-02  0.1093994E+00
         21   -1    0    0  502  501  0.00000000000E+00  0.00000000000E+00  0.89786657787E+03  0.89786657787E+03  0.00000000000E+00 0. -1.
         21   -1    0    0  501  502 -0.00000000000E+00 -0.00000000000E+00 -0.89278009897E+02  0.89278009897E+02  0.00000000000E+00 0. -1.
         25    1    1    2    0    0  0.17373606754E+03  0.15208596692E+03  0.58895579200E+03  0.64483198388E+03  0.12500000000E+03 0.  0.
         25    1    1    2    0    0 -0.17373606754E+03 -0.15208596692E+03  0.21963277597E+03  0.34231260389E+03  0.12500000000E+03 0.  0.
</event>
<event>
 4    0  0.2156764E-002  0.2745247E+03  0.7546771E-02  0.1098718E+00
         21   -1    0    0  502  501  0.00000000000E+00  0.00000000000E+00  0.85938296454E+02  0.85938296454E+02  0.00000000000E+00 0. -1.
         21   -1    0    0  501  502 -0.00000000000E+00 -0.00000000000E+00 -0.87695242792E+03  0.87695242792E+03  0.00000000000E+00 0. -1.
         25    1    1    2    0    0  0.55755680559E+02  0.18684622313E+03 -0.65395998406E+03  0.69376427392E+03  0.12500000000E+03 0.  0.
         25    1    1    2    0    0 -0.55755680559E+02 -0.18684622313E+03 -0.13705414740E+03  0.26912645045E+03  0.12500000000E+03 0.  0.
</event>
<event>
 4    0  0.2156764E-002  0.2250558E+03  0.7546771E-02  0.1130169E+00
         21   -1    0    0  502  501  0.00000000000E+00  0.00000000000E+00  0.11475356034E+04  0.11475356034E+04  0.00000000000E+00 0.  1.
         21   -1    0    0  501  502 -0.00000000000E+00 -0.00000000000E+00 -0.44138147394E+02  0.44138147394E+02  0.00000000000E+00 0.  1.
         25    1    1    2    0    0 -0.11740085494E+03 -0.29713061977E+02  0.92946078196E+03  0.94561523465E+03  0.12500000000E+03 0.  0.
         25    1    1    2    0    0  0.11740085494E+03  0.29713061977E+02  0.17393667405E+03  0.24605851615E+03  0.12500000000E+03 0.  0.
</event>
<event>
 4    0  0.2156764E-002  0.2316049E+03  0.7546771E-02  0.1125515E+00
         21   -1    0    0  502  501  0.00000000000E+00  0.00000000000E+00  0.23586001986E+04  0.23586001986E+04  0.00000000000E+00 0.  1.
         21   -1    0    0  501  502 -0.00000000000E+00 -0.00000000000E+00 -0.22742652608E+02  0.22742652608E+02  0.00000000000E+00 0.  1.
         25    1    1    2    0    0 -0.91774545863E+02 -0.17201848266E+03  0.11766824762E+04  0.11992579270E+04  0.12500000000E+03 0.  0.
         25    1    1    2    0    0  0.91774545863E+02  0.17201848266E+03  0.11591750698E+04  0.11820849243E+04  0.12500000000E+03 0.  0.
</event>
<event>
 4    0  0.2156764E-002  0.2949318E+03  0.7546771E-02  0.1087802E+00
         21   -1    0    0  502  501  0.00000000000E+00  0.00000000000E+00  0.18955301176E+04  0.18955301176E+04  0.00000000000E+00 0.  1.
         21   -1    0    0  501  502 -0.00000000000E+00 -0.00000000000E+00 -0.45889406516E+02  0.45889406516E+02  0.00000000000E+00 0.  1.
         25    1    1    2    0    0  0.10470972594E+03 -0.58468007150E+02  0.13919033670E+03  0.22221967599E+03  0.12500000000E+03 0.  0.
         25    1    1    2    0    0 -0.10470972594E+03  0.58468007150E+02  0.17104503744E+04  0.17191998481E+04  0.12500000000E+03 0.  0.
</event>
<event>
 4    0  0.2156764E-002  0.4646423E+03  0.7546771E-02  0.1023443E+00
         21   -1    0    0  502  501  0.00000000000E+00  0.00000000000E+00  0.98771067808E+02  0.98771067808E+02  0.00000000000E+00 0.  1.
         21   -1    0    0  501  502 -0.00000000000E+00 -0.00000000000E+00 -0.21857863660E+04  0.21857863660E+04  0.00000000000E+00 0.  1.
         25    1    1    2    0    0 -0.39262380671E+03  0.23235553575E+02 -0.51868514782E+03  0.66283680278E+03  0.12500000000E+03 0.  0.
         25    1    1    2    0    0  0.39262380671E+03 -0.23235553575E+02 -0.15683301504E+04  0.16217206310E+04  0.12500000000E+03 0.  0.
</event>
<event>
 4    0  0.2156764E-002  0.1983203E+03  0.7546771E-02  0.1151164E+00
         21   -1    0    0  502  501  0.00000000000E+00  0.00000000000E+00  0.49230192109E+03  0.49230192109E+03  0.00000000000E+00 0. -1.
         21   -1    0    0  501  502 -0.00000000000E+00 -0.00000000000E+00 -0.79891890396E+02  0.79891890396E+02  0.00000000000E+00 0. -1.
         25    1    1    2    0    0  0.13046477860E+03  0.25753258497E+02  0.31814971235E+03  0.36678130847E+03  0.12500000000E+03 0.  0.
         25    1    1    2    0    0 -0.13046477860E+03 -0.25753258497E+02  0.94260318351E+02  0.20541250302E+03  0.12500000000E+03 0.  0.
</event>
<event>
 4    0  0.2156764E-002  0.2766883E+03  0.7546771E-02  0.1097512E+00
         21   -1    0    0  502  501  0.00000000000E+00  0.00000000000E+00  0.17077412069E+03  0.17077412069E+03  0.00000000000E+00 0. -1.
         21   -1    0    0  501  502 -0.00000000000E+00 -0.00000000000E+00 -0.44829053624E+03  0.44829053624E+03  0.00000000000E+00 0. -1.
         25    1    1    2    0    0 -0.16753757373E+03 -0.59307084365E+02  0.52880896176E+02  0.22362369742E+03  0.12500000000E+03 0.  0.
         25    1    1    2    0    0  0.16753757373E+03  0.59307084365E+02 -0.33039731172E+03  0.39544095951E+03  0.12500000000E+03 0.  0.
</event>
<event>
 4    0  0.2156764E-002  0.1643032E+03  0.7546771E-02  0.1183922E+00
         21   -1    0    0  502  501  0.00000000000E+00  0.00000000000E+00  0.70397233626E+02  0.70397233626E+02  0.00000000000E+00 0. -1.
         21   -1    0    0  501  502 -0.00000000000E+00 -0.00000000000E+00 -0.38347468569E+03  0.38347468569E+03  0.00000000000E+00 0. -1.
         25    1    1    2    0    0  0.30138015056E+01  0.10019114159E+03 -0.10629620474E+03  0.19227904461E+03  0.12500000000E+03 0.  0.
         25    1    1    2    0    0 -0.30138015056E+01 -0.10019114159E+03 -0.20678124732E+03  0.26159287471E+03  0.12500000000E+03 0.  0.
</event>
<event>
 4    0  0.2156764E-002  0.2176680E+03  0.7546771E-02  0.1135634E+00
         21   -1    0    0  502  501  0.00000000000E+00  0.00000000000E+00  0.26161551509E+03  0.26161551509E+03  0.00000000000E+00 0. -1.
         21   -1    0    0  501  502 -0.00000000000E+00 -0.00000000000E+00 -0.18110306412E+03  0.18110306412E+03  0.00000000000E+00 0. -1.
         25    1    1    2    0    0 -0.15298059151E+03  0.43756826974E+02 -0.41333046208E+02  0.20652152913E+03  0.12500000000E+03 0.  0.
         25    1    1    2    0    0  0.15298059151E+03 -0.43756826974E+02  0.12184549718E+03  0.23619705008E+03  0.12500000000E+03 0.  0.
</event>
<event>
 4    0  0.2156764E-002  0.3466294E+03  0.7546771E-02  0.1064007E+00
         21   -1    0    0  502  501  0.00000000000E+00  0.00000000000E+00  0.44836144886E+03  0.44836144886E+03  0.00000000000E+00 0.  1.
         21   -1    0    0  501  502 -0.00000000000E+00 -0.00000000000E+00 -0.26798006317E+03  0.26798006317E+03  0.00000000000E+00 0. -1.
         25    1    1    2    0    0  0.30398207262E+03 -0.86555007848E+02  0.16050084479E+03  0.37587549938E+03  0.12500000000E+03 0.  0.
         25    1    1    2    0    0 -0.30398207262E+03  0.86555007848E+02  0.19880540897E+02  0.34046601264E+03  0.12500000000E+03 0.  0.
</event>
<event>
 4    0  0.2156764E-002  0.2744841E+03  0.7546771E-02  0.1098740E+00
         21   -1    0    0  502  501  0.00000000000E+00  0.00000000000E+00  0.26363176533E+03  0.26363176533E+03  0.00000000000E+00 0.  1.
         21   -1    0    0  501  502 -0.00000000000E+00 -0.00000000000E+00 -0.28578313657E+03  0.28578313657E+03  0.00000000000E+00 0.  1.
         25    1    1    2    0    0  0.19482650528E+03 -0.12173379102E+03  0.72298947794E+02  0.27134594319E+03  0.12500000000E+03 0.  0.
         25    1    1    2    0    0 -0.19482650528E+03  0.12173379102E+03 -0.94450319033E+02  0.27806895871E+03  0.12500000000E+03 0.  0.
</event>
<event>
 4    0  0.2156764E-002  0.1880942E+03  0.7546771E-02  0.1160192E+00
         21   -1    0    0  502  501  0.00000000000E+00  0.00000000000E+00  0.15854521635E+02  0.15854521635E+02  0.00000000000E+00 0. -1.
         21   -1    0    0  501  502 -0.00000000000E+00 -0.00000000000E+00 -0.22315038828E+04  0.22315038828E+04  0.00000000000E+00 0. -1.
         25    1    1    2    0    0  0.51478853189E+02 -0.96209797476E+01 -0.18870121634E+04  0.18918727601E+04  0.12500000000E+03 0.  0.
         25    1    1    2    0    0 -0.51478853189E+02  0.96209797476E+01 -0.32863719779E+03  0.35548564436E+03  0.12500000000E+03 0.  0.
</event>
<event>
 4    0  0.2156764E-002  0.1671106E+03  0.7546771E-02  0.1180895E+00
         21   -1    0    0  502  501  0.00000000000E+00  0.00000000000E+00  0.14273878340E+02  0.14273878340E+02  0.00000000000E+00 0. -1.
         21   -1    0    0  501  502 -0.00000000000E+00 -0.00000000000E+00 -0.19564374600E+04  0.19564374600E+04  0.00000000000E+00 0. -1.
         25    1    1    2    0    0 -0.70877170851E+02 -0.13877426900E+02 -0.47477221839E+03  0.49623564531E+03  0.12500000000E+03 0.  0.
         25    1    1    2    0    0  0.70877170851E+02  0.13877426900E+02 -0.14673913633E+04  0.14744756931E+04  0.12500000000E+03 0.  0.
</event>
<event>
 4    0  0.2156764E-002  0.1743217E+03  0.7546771E-02  0.1173415E+00
         21   -1    0    0  502  501  0.00000000000E+00  0.00000000000E+00  0.31158683778E+03  0.31158683778E+03  0.00000000000E+00 0. -1.
         21   -1    0    0  501  502 -0.00000000000E+00 -0.00000000000E+00 -0.97526716640E+02  0.97526716640E+02  0.00000000000E+00 0. -1.
         25    1    1    2    0    0 -0.14723156160E+02  0.11969778121E+03  0.12438399356E+03  0.21363686013E+03  0.12500000000E+03 0.  0.
         25    1    1    2    0    0  0.14723156160E+02 -0.11969778121E+03  0.89676127580E+02  0.19547669429E+03  0.12500000000E+03 0.  0.
</event>
<event>
 4    0  0.2156764E-002  0.2233612E+03  0.7546771E-02  0.1131402E+00
         21   -1    0    0  502  501  0.00000000000E+00  0.00000000000E+00  0.12989015801E+04  0.12989015801E+04  0.00000000000E+00 0. -1.
         21   -1    0    0  501  502 -0.00000000000E+00 -0.00000000000E+00 -0.38409545633E+02  0.38409545633E+02  0.00000000000E+00 0. -1.
         25    1    1    2    0    0  0.15446672587E+03 -0.85486490742E+02  0.79685065744E+03  0.82568994166E+03  0.12500000000E+03 0.  0.
         25    1    1    2    0    0 -0.15446672587E+03  0.85486490742E+02  0.46364137704E+03  0.51162118408E+03  0.12500000000E+03 0.  0.
</event>
<event>
 4    0  0.2156764E-002  0.2523438E+03  0.7546771E-02  0.1111833E+00
         21   -1    0    0  502  501  0.00000000000E+00  0.00000000000E+00  0.26780565167E+03  0.26780565167E+03  0.00000000000E+00 0. -1.
         21   -1    0    0  501  502 -0.00000000000E+00 -0.00000000000E+00 -0.23777457476E+03  0.23777457476E+03  0.00000000000E+00 0. -1.
         25    1    1    2    0    0 -0.10199216984E+03 -0.10224997303E+03  0.18021604075E+03  0.26260289610E+03  0.12500000000E+03 0.  0.
         25    1    1    2    0    0  0.10199216984E+03  0.10224997303E+03 -0.15018496384E+03  0.24297733034E+03  0.12500000000E+03 0.  0.
</event>
<event>
 4    0  0.2156764E-002  0.2696838E+03  0.7546771E-02  0.1101461E+00
         21   -1    0    0  502  501  0.00000000000E+00  0.00000000000E+00  0.15051420322E+03  0.15051420322E+03  0.00000000000E+00 0. -1.
         21   -1    0    0  501  502 -0.00000000000E+00 -0.00000000000E+00 -0.48320597475E+03  0.48320597475E+03  0.00000000000E+00 0. -1.
         25    1    1    2    0    0  0.23499199198E+03  0.11248044148E+02 -0.11710226084E+03  0.29100806568E+03  0.12500000000E+03 0.  0.
         25    1    1    2    0    0 -0.23499199198E+03 -0.11248044148E+02 -0.21558951068E+03  0.34271211229E+03  0.12500000000E+03 0.  0.
</event>
<event>
 4    0  0.2156764E-002  0.1796946E+03  0.7546771E-02  0.1168099E+00
         21   -1    0    0  502  501  0.00000000000E+00  0.00000000000E+00  0.17320407296E+03  0.17320407296E+03  0.00000000000E+00 0. -1.
         21   -1    0    0  501  502 -0.00000000000E+00 -0.00000000000E+00 -0.18642844750E+03  0.18642844750E+03  0.00000000000E+00 0. -1.
         25    1    1    2    0    0 -0.55366284488E+02 -0.11265363083E+03  0.23556191550E+02  0.17870691133E+03  0.12500000000E+03 0.  0.
         25    1    1    2    0    0  0.55366284488E+02  0.11265363083E+03 -0.36780566095E+02  0.18092560913E+03  0.12500000000E+03 0.  0.
</event>
<event>
 4    0  0.2156764E-002  0.2521223E+03  0.7546771E-02  0.1111971E+00
         21   -1    0    0  502  501  0.00000000000E+00  0.00000000000E+00  0.88555600545E+03  0.88555600545E+03  0.00000000000E+00 0. -1.
         21   -1    0    0  501  502 -0.00000000000E+00 -0.00000000000E+00 -0.71780490494E+02  0.71780490494E+02  0.00000000000E+00 0. -1.
         25    1    1    2    0    0  0.55476007550E+02  0.13773117404E+03  0.10138432510E+03  0.21897772739E+03  0.12500000000E+03 0.  0.
         25    1    1    2    0    0 -0.55476007550E+02 -0.13773117404E+03  0.71239118986E+03  0.73835876855E+03  0.12500000000E+03 0.  0.
</event>
<event>
 4    0  0.2156764E-002  0.1641723E+03  0.7546771E-02  0.1184065E+00
         21   -1    0    0  502  501  0.00000000000E+00  0.00000000000E+00  0.79645725164E+02  0.79645725164E+02  0.00000000000E+00 0.  1.
         21   -1    0    0  501  502 -0.00000000000E+00 -0.00000000000E+00 -0.33840553912E+03  0.33840553912E+03  0.00000000000E+00 0.  1.
         25    1    1    2    0    0 -0.74633121742E+02  0.91483118020E+01 -0.33476273229E+02  0.14966447588E+03  0.12500000000E+03 0.  0.
         25    1    1    2    0    0  0.74633121742E+02 -0.91483118020E+01 -0.22528354072E+03  0.26838678841E+03  0.12500000000E+03 0.  0.
</event>
<event>
 4    0  0.2156764E-002  0.2017324E+03  0.7546771E-02  0.1148286E+00
         21   -1    0    0  502  501  0.00000000000E+00  0.00000000000E+00  0.10753808334E+04  0.10753808334E+04  0.00000000000E+00 0.  1.
         21   -1    0    0  501  502 -0.00000000000E+00 -0.00000000000E+00 -0.37843305842E+02  0.37843305842E+02  0.00000000000E+00 0.  1.
         25    1    1    2    0    0 -0.97809369886E+02  0.49926360486E+01  0.86205273969E+03  0.87655662980E+03  0.12500000000E+03 0.  0.
         25    1    1    2    0    0  0.97809369886E+02 -0.49926360486E+01  0.17548478789E+03  0.23666750946E+03  0.12500000000E+03 0.  0.
</event>
<event>
 4    0  0.2156764E-002  0.1997609E+03  0.7546771E-02  0.1149941E+00
         21   -1    0    0  502  501  0.00000000000E+00  0.00000000000E+00  0.40444880542E+02  0.40444880542E+02  0.00000000000E+00 0.  1.
         21   -1    0    0  501  502 -0.00000000000E+00 -0.00000000000E+00 -0.98663737627E+03  0.98663737627E+03  0.00000000000E+00 0.  1.
         25    1    1    2    0    0 -0.39869111299E+02 -0.78606449789E+02 -0.14276459776E+03  0.20922535783E+03  0.12500000000E+03 0.  0.
         25    1    1    2    0    0  0.39869111299E+02  0.78606449789E+02 -0.80342789797E+03  0.81785689899E+03  0.12500000000E+03 0.  0.
</event>
<event>
 4    0  0.2156764E-002  0.2282480E+03  0.7546771E-02  0.1127879E+00
         21   -1    0    0  502  501  0.00000000000E+00  0.00000000000E+00  0.28240477967E+03  0.28240477967E+03  0.00000000000E+00 0. -1.
         21   -1    0    0  501  502 -0.00000000000E+00 -0.00000000000E+00 -0.18447687986E+03  0.18447687986E+03  0.00000000000E+00 0. -1.
         25    1    1    2    0    0  0.27566681833E+01 -0.17036372475E+03  0.13718623808E+03  0.25194535488E+03  0.12500000000E+03 0.  0.
         25    1    1    2    0    0 -0.27566681833E+01  0.17036372475E+03 -0.39258338269E+02  0.21493630464E+03  0.12500000000E+03 0.  0.
</event>
<event>
 4    0  0.2156764E-002  0.2794994E+03  0.7546771E-02  0.1095963E+00
         21   -1    0    0  502  501  0.00000000000E+00  0.00000000000E+00  0.10240289501E+04  0.10240289501E+04  0.00000000000E+00 0.  1.
         21   -1    0    0  501  502 -0.00000000000E+00 -0.00000000000E+00 -0.76286820645E+02  0.76286820645E+02  0.00000000000E+00 0.  1.
         25    1    1    2    0    0 -0.13769064374E+03  0.15453378241E+03  0.19790948603E+03  0.31246210640E+03  0.12500000000E+03 0.  0.
         25    1    1    2    0    0  0.13769064374E+03 -0.15453378241E+03  0.74983264347E+03  0.78785366439E+03  0.12500000000E+03 0.  0.
</event>
<event>
 4    0  0.2156764E-002  0.3467054E+03  0.7546771E-02  0.1063975E+00
         21   -1    0    0  502  501  0.00000000000E+00  0.00000000000E+00  0.75301857479E+02  0.75301857479E+02  0.00000000000E+00 0.  1.
         21   -1    0    0  501  502 -0.00000000000E+00 -0.00000000000E+00 -0.15963033480E+04  0.15963033480E+04  0.00000000000E+00 0.  1.
         25    1    1    2    0    0 -0.24140485113E+03  0.20856405964E+03 -0.88816177614E+03  0.95196197914E+03  0.12500000000E+03 0.  0.
         25    1    1    2    0    0  0.24140485113E+03 -0.20856405964E+03 -0.63283971434E+03  0.71964322630E+03  0.12500000000E+03 0.  0.
</event>
<event>
 4    0  0.2156764E-002  0.2836372E+03  0.7546771E-02  0.1093719E+00
         21   -1    0    0  502  501  0.00000000000E+00  0.00000000000E+00  0.70493190550E+02  0.70493190550E+02  0.00000000000E+00 0.  1.
         21   -1    0    0  501  502 -0.00000000000E+00 -0.00000000000E+00 -0.11412459865E+04  0.11412459865E+04  0.00000000000E+00 0.  1.
         25    1    1    2    0    0  0.24818916931E+03 -0.56808467434E+02 -0.53552823986E+03  0.60600376354E+03  0.12500000000E+03 0.  0.
         25    1    1    2    0    0 -0.24818916931E+03  0.56808467434E+02 -0.53522455607E+03  0.60573541349E+03  0.12500000000E+03 0.  0.
</event>
<event>
 4    0  0.2156764E-002  0.2906238E+03  0.7546771E-02  0.1090024E+00
         21   -1    0    0  502  501  0.00000000000E+00  0.00000000000E+00  0.11137395540E+03  0.11137395540E+03  0.00000000000E+00 0. -1.
         21   -1    0    0  501  502 -0.00000000000E+00 -0.00000000000E+00 -0.75836558831E+03  0.75836558831E+03  0.00000000000E+00 0. -1.
         25    1    1    2    0    0 -0.23921120489E+03  0.31919229914E+02 -0.16946558102E+03  0.32028802809E+03  0.12500000000E+03 0.  0.
         25    1    1    2    0    0  0.23921120489E+03 -0.31919229914E+02 -0.47752605189E+03  0.54945151562E+03  0.12500000000E+03 0.  0.
</event>
<event>
 4    0  0.2156764E-002  0.1994442E+03  0.7546771E-02  0.1150209E+00
         21   -1    0    0  502  501  0.00000000000E+00  0.00000000000E+00  0.15777717134E+03  0.15777717134E+03  0.00000000000E+00 0. -1.
         21   -1    0    0  501  502 -0.00000000000E+00 -0.00000000000E+00 -0.25211507818E+03  0.25211507818E+03  0.00000000000E+00 0. -1.
         25    1    1    2    0    0  0.14120760977E+03 -0.27799829363E+02 -0.10744355114E+03  0.21881850071E+03  0.12500000000E+03 0.  0.
         25    1    1    2    0    0 -0.14120760977E+03  0.27799829363E+02  0.13105644302E+02  0.19107374880E+03  0.12500000000E+03 0.  0.
</event>
<event>
 4    0  0.2156764E-002  0.2217882E+03  0.7546771E-02  0.1132557E+00
         21   -1    0    0  502  501  0.00000000000E+00  0.00000000000E+00  0.31257185198E+02  0.31257185198E+02  0.00000000000E+00 0.  1.
         21   -1    0    0  501  502 -0.00000000000E+00 -0.00000000000E+00 -0.15737179815E+04  0.15737179815E+04  0.00000000000E+00 0.  1.
         25    1    1    2    0    0 -0.17854161052E+03 -0.28451242938E+02 -0.66399215784E+03  0.69942631176E+03  0.12500000000E+03 0.  0.
         25    1    1    2    0    0  0.17854161052E+03  0.28451242938E+02 -0.87846863847E+03  0.90554885494E+03  0.12500000000E+03 0.  0.
</event>
<event>
 4    0  0.2156764E-002  0.1552195E+03  0.7546771E-02  0.1194202E+00
         21   -1    0    0  502  501  0.00000000000E+00  0.00000000000E+00  0.32760441468E+03  0.32760441468E+03  0.00000000000E+00 0. -1.
         21   -1    0    0  501  502 -0.00000000000E+00 -0.00000000000E+00 -0.73543252176E+02  0.73543252176E+02  0.00000000000E+00 0. -1.
         25    1    1    2    0    0 -0.64335657530E+02 -0.19616424149E+02  0.20818425327E+03  0.25197135598E+03  0.12500000000E+03 0.  0.
         25    1    1    2    0    0  0.64335657530E+02  0.19616424149E+02  0.45876909240E+02  0.14917631088E+03  0.12500000000E+03 0.  0.
</event>
<event>
 4    0  0.2156764E-002  0.3176731E+03  0.7546771E-02  0.1076725E+00
         21   -1    0    0  502  501  0.00000000000E+00  0.00000000000E+00  0.34282935925E+03  0.34282935925E+03  0.00000000000E+00 0.  1.
         21   -1    0    0  501  502 -0.00000000000E+00 -0.00000000000E+00 -0.29436280113E+03  0.29436280113E+03  0.00000000000E+00 0.  1.
         25    1    1    2    0    0  0.70291670903E+02 -0.88738723576E+02 -0.24576205674E+03  0.29805950512E+03  0.12500000000E+03 0.  0.
         25    1    1    2    0    0 -0.70291670903E+02  0.88738723576E+02  0.29422861486E+03  0.33913265525E+03  0.12500000000E+03 0.  0.
</event>
<event>
 4    0  0.2156764E-002  0.2698793E+03  0.7546771E-02  0.1101349E+00
         21   -1    0    0  502  501  0.00000000000E+00  0.00000000000E+00  0.15111158014E+03  0.15111158014E+03  0.00000000000E+00 0.  1.
         21   -1    0    0  501  502 -0.00000000000E+00 -0.00000000000E+00 -0.48199378278E+03  0.48199378278E+03  0.00000000000E+00 0.  1.
         25    1    1    2    0    0 -0.55450674604E+02 -0.14687608860E+03  0.46217118031E+02  0.20593296170E+03  0.12500000000E+03 0.  0.
         25    1    1    2    0    0  0.55450674604E+02  0.14687608860E+03 -0.37709932067E+03  0.42717240122E+03  0.12500000000E+03 0.  0.
</event>
<event>
 4    0  0.2156764E-002  0.2360528E+03  0.7546771E-02  0.1122451E+00
         21   -1    0    0  502  501  0.00000000000E+00  0.00000000000E+00  0.27365980440E+02  0.27365980440E+02  0.00000000000E+00 0.  1.
         21   -1    0    0  501  502 -0.00000000000E+00 -0.00000000000E+00 -0.20361378390E+04  0.20361378390E+04  0.00000000000E+00 0. -1.
         25    1    1    2    0    0  0.14477623048E+03 -0.12148823996E+03 -0.71523629049E+03  0.75027161788E+03  0.12500000000E+03 0.  0.
         25    1    1    2    0    0 -0.14477623048E+03  0.12148823996E+03 -0.12935355681E+04  0.13132322016E+04  0.12500000000E+03 0.  0.
</event>
<event>
 4    0  0.2156764E-002  0.1739268E+03  0.7546771E-02  0.1173814E+00
         21   -1    0    0  502  501  0.00000000000E+00  0.00000000000E+00  0.14890327248E+03  0.14890327248E+03  0.00000000000E+00 0.  1.
         21   -1    0    0  501  502 -0.00000000000E+00 -0.00000000000E+00 -0.20315568538E+03  0.20315568538E+03  0.00000000000E+00 0.  1.
         25    1    1    2    0    0 -0.64278088797E+02  0.98977477569E+02 -0.53852502815E+02  0.18014801088E+03  0.12500000000E+03 0.  0.
         25    1    1    2    0    0  0.64278088797E+02 -0.98977477569E+02 -0.39991008460E+00  0.17191094699E+03  0.12500000000E+03 0.  0.
</event>
<event>
 4    0  0.2156764E-002  0.2347840E+03  0.7546771E-02  0.1123317E+00
         21   -1    0    0  502  501  0.00000000000E+00  0.00000000000E+00  0.14650373727E+03  0.14650373727E+03  0.00000000000E+00 0.  1.
         21   -1    0    0  501  502 -0.00000000000E+00 -0.00000000000E+00 -0.37626033579E+03  0.37626033579E+03  0.00000000000E+00 0.  1.
         25    1    1    2    0    0  0.17558824821E+03 -0.91201496465E+02 -0.13569407386E+03  0.27053064068E+03  0.12500000000E+03 0.  0.
         25    1    1    2    0    0 -0.17558824821E+03  0.91201496465E+02 -0.94062524663E+02  0.25223343239E+03  0.12500000000E+03 0.  0.
</event>
<event>
 4    0  0.2156764E-002  0.2560042E+03  0.7546771E-02  0.1109568E+00
         21   -1    0    0  502  501  0.00000000000E+00  0.00000000000E+00  0.38117977529E+03  0.38117977529E+03  0.00000000000E+00 0.  1.
         21   -1    0    0  501  502 -0.00000000000E+00 -0.00000000000E+00 -0.17193496897E+03  0.17193496897E+03  0.00000000000E+00 0. -1.
         25    1    1    2    0    0 -0.12421214452E+03  0.17878418962E+03  0.50385125040E+02  0.25603926287E+03  0.12500000000E+03 0.  0.
         25    1    1    2    0    0  0.12421214452E+03 -0.17878418962E+03  0.15885968128E+03  0.29707548139E+03  0.12500000000E+03 0.  0.
</event>
<event>
 4    0  0.2156764E-002  0.2776067E+03  0.7546771E-02  0.1097003E+00
         21   -1    0    0  502  501  0.00000000000E+00  0.00000000000E+00  0.63838237641E+02  0.63838237641E+02  0.00000000000E+00 0.  1.
         21   -1    0    0  501  502 -0.00000000000E+00 -0.00000000000E+00 -0.12071996629E+04  0.12071996629E+04  0.00000000000E+00 0.  1.
         25    1    1    2    0    0  0.14116600344E+03  0.20213348677E+03 -0.63025724312E+03  0.68821143518E+03  0.12500000000E+03 0.  0.
         25    1    1    2    0    0 -0.14116600344E+03 -0.20213348677E+03 -0.51310418215E+03  0.58282646538E+03  0.12500000000E+03 0.  0.
</event>
<event>
 4    0  0.2156764E-002  0.2922344E+03  0.7546771E-02  0.1089188E+00
         21   -1    0    0  502  501  0.00000000000E+00  0.00000000000E+00  0.22803956511E+03  0.22803956511E+03  0.00000000000E+00 0. -1.
         21   -1    0    0  501  502 -0.00000000000E+00 -0.00000000000E+00 -0.37450054899E+03  0.37450054899E+03  0.00000000000E+00 0. -1.
         25    1    1    2    0    0  0.18169615862E+03  0.15508361687E+03 -0.18946186860E+03  0.32952271838E+03  0.12500000000E+03 0.  0.
         25    1    1    2    0    0 -0.18169615862E+03 -0.15508361687E+03  0.43000884724E+02  0.27301739572E+03  0.12500000000E+03 0.  0.
</event>
<event>
 4    0  0.2156764E-002  0.2982754E+03  0.7546771E-02  0.1086106E+00
         21   -1    0    0  502  501  0.00000000000E+00  0.00000000000E+00  0.10005420305E+03  0.10005420305E+03  0.00000000000E+00 0.  1.
         21   -1    0    0  501  502 -0.00000000000E+00 -0.00000000000E+00 -0.88920031454E+03  0.88920031454E+03  0.00000000000E+00 0.  1.
         25    1    1    2    0    0  0.17374317212E+03 -0.17582258107E+03 -0.21108670178E+03  0.34825689590E+03  0.12500000000E+03 0.  0.
         25    1    1    2    0    0 -0.17374317212E+03  0.17582258107E+03 -0.57805940971E+03  0.64099762170E+03  0.12500000000E+03 0.  0.
</event>
<event>
 4    0  0.2156764E-002  0.2914417E+03  0.7546771E-02  0.1089599E+00
         21   -1    0    0  502  501  0.00000000000E+00  0.00000000000E+00  0.34195075305E+03  0.34195075305E+03  0.00000000000E+00 0. -1.
         21   -1    0    0  501  502 -0.00000000000E+00 -0.00000000000E+00 -0.24839318659E+03  0.24839318659E+03  0.00000000000E+00 0. -1.
         25    1    1    2    0    0  0.94272672351E+02  0.32967446616E+02  0.29349277423E+03  0.33427114415E+03  0.12500000000E+03 0.  0.
         25    1    1    2    0    0 -0.94272672351E+02 -0.32967446616E+02 -0.19993520776E+03  0.25607279549E+03  0.12500000000E+03 0.  0.
</event>
<event>
 4    0  0.2156764E-002  0.2221391E+03  0.7546771E-02  0.1132298E+00
         21   -1    0    0  502  501  0.00000000000E+00  0.00000000000E+00  0.18967137989E+03  0.18967137989E+03  0.00000000000E+00 0.  1.
         21   -1    0    0  501  502 -0.00000000000E+00 -0.00000000000E+00 -0.26016465349E+03  0.26016465349E+03  0.00000000000E+00 0.  1.
         25    1    1    2    0    0 -0.42877597539E+02 -0.17753076066E+03 -0.15899235338E+02  0.22188610825E+03  0.12500000000E+03 0.  0.
         25    1    1    2    0    0  0.42877597539E+02  0.17753076066E+03 -0.54594038268E+02  0.22794992513E+03  0.12500000000E+03 0.  0.
</event>
<event>
 4    0  0.2156764E-002  0.2644116E+03  0.7546771E-02  0.1104521E+00
         21   -1    0    0  502  501  0.00000000000E+00  0.00000000000E+00  0.18063503233E+04  0.18063503233E+04  0.00000000000E+00 0.  1.
         21   -1    0    0  501  502 -0.00000000000E+00 -0.00000000000E+00 -0.38704280307E+02  0.38704280307E+02  0.00000000000E+00 0.  1.
         25    1    1    2    0    0  0.11603676750E+03 -0.13475432593E+03  0.35855761525E+03  0.41929920489E+03  0.12500000000E+03 0.  0.
         25    1    1    2    0    0 -0.11603676750E+03  0.13475432593E+03  0.14090884278E+04  0.14257553987E+04  0.12500000000E+03 0.  0.
</event>
<event>
 4    0  0.2156764E-002  0.2179427E+03  0.7546771E-02  0.1135426E+00
         21   -1    0    0  502  501  0.00000000000E+00  0.00000000000E+00  0.22150676043E+03  0.22150676043E+03  0.00000000000E+00 0. -1.
         21   -1    0    0  501  502 -0.00000000000E+00 -0.00000000000E+00 -0.21443600699E+03  0.21443600699E+03  0.00000000000E+00 0. -1.
         25    1    1    2    0    0  0.17662779114E+03  0.45125284281E+01  0.29156821029E+02  0.21838694953E+03  0.12500000000E+03 0.  0.
         25    1    1    2    0    0 -0.17662779114E+03 -0.45125284281E+01 -0.22086067594E+02  0.21755581789E+03  0.12500000000E+03 0.  0.
</event>
<event>
 4    0  0.2156764E-002  0.4921389E+03  0.7546771E-02  0.1015851E+00
         21   -1    0    0  502  501  0.00000000000E+00  0.00000000000E+00  0.52844992750E+03  0.52844992750E+03  0.00000000000E+00 0. -1.
         21   -1    0    0  501  502 -0.00000000000E+00 -0.00000000000E+00 -0.45832284383E+03  0.45832284383E+03  0.00000000000E+00 0. -1.
         25    1    1    2    0    0 -0.93731025411E+02  0.27602178863E+03  0.41231801472E+03  0.52019676872E+03  0.12500000000E+03 0.  0.
         25    1    1    2    0    0  0.93731025411E+02 -0.27602178863E+03 -0.34219093105E+03  0.46657600262E+03  0.12500000000E+03 0.  0.
</event>
<event>
 4    0  0.2156764E-002  0.2646559E+03  0.7546771E-02  0.1104378E+00
         21   -1    0    0  502  501  0.00000000000E+00  0.00000000000E+00  0.41718471465E+03  0.41718471465E+03  0.00000000000E+00 0.  1.
         21   -1    0    0  501  502 -0.00000000000E+00 -0.00000000000E+00 -0.16789378433E+03  0.16789378433E+03  0.00000000000E+00 0. -1.
         25    1    1    2    0    0  0.78712777338E+02 -0.21459046905E+03  0.17617159043E+03  0.31449356114E+03  0.12500000000E+03 0.  0.
         25    1    1    2    0    0 -0.78712777338E+02  0.21459046905E+03  0.73119339896E+02  0.27058493785E+03  0.12500000000E+03 0.  0.
</event>
<event>
 4    0  0.2156764E-002  0.1893468E+03  0.7546771E-02  0.1159052E+00
         21   -1    0    0  502  501  0.00000000000E+00  0.00000000000E+00  0.60526420299E+02  0.60526420299E+02  0.00000000000E+00 0. -1.
         21   -1    0    0  501  502 -0.00000000000E+00 -0.00000000000E+00 -0.59233987302E+03  0.59233987302E+03  0.00000000000E+00 0. -1.
         25    1    1    2    0    0  0.97938796356E+02  0.10229847442E+03 -0.28839984879E+03  0.34475565040E+03  0.12500000000E+03 0.  0.
         25    1    1    2    0    0 -0.97938796356E+02 -0.10229847442E+03 -0.24341360394E+03  0.30811064292E+03  0.12500000000E+03 0.  0.
</event>
<event>
 4    0  0.2156764E-002  0.2038283E+03  0.7546771E-02  0.1146549E+00
         21   -1    0    0  502  501  0.00000000000E+00  0.00000000000E+00  0.10686591403E+03  0.10686591403E+03  0.00000000000E+00 0. -1.
         21   -1    0    0  501  502 -0.00000000000E+00 -0.00000000000E+00 -0.38876722115E+03  0.38876722115E+03  0.00000000000E+00 0. -1.
         25    1    1    2    0    0 -0.72633043509E+02  0.11679512361E+03 -0.24270393524E+03  0.30569079164E+03  0.12500000000E+03 0.  0.
         25    1    1    2    0    0  0.72633043509E+02 -0.11679512361E+03 -0.39197371884E+02  0.18994234354E+03  0.12500000000E+03 0.  0.
</event>
<event>
 4    0  0.2156764E-002  0.2117360E+03  0.7546771E-02  0.1140199E+00
         21   -1    0    0  502  501  0.00000000000E+00  0.00000000000E+00  0.11823162535E+03  0.11823162535E+03  0.00000000000E+00 0. -1.
         21   -1    0    0  501  502 -0.00000000000E+00 -0.00000000000E+00 -0.37918913884E+03  0.37918913884E+03  0.00000000000E+00 0. -1.
         25    1    1    2    0    0 -0.33928213735E+02  0.13160698412E+03 -0.25218499289E+03  0.31256006238E+03  0.12500000000E+03 0.  0.
         25    1    1    2    0    0  0.33928213735E+02 -0.13160698412E+03 -0.87725205997E+01  0.18486070181E+03  0.12500000000E+03 0.  0.
</event>
<event>
 4    0  0.2156764E-002  0.1907650E+03  0.7546771E-02  0.1157773E+00
         21   -1    0    0  502  501  0.00000000000E+00  0.00000000000E+00  0.21452349439E+03  0.21452349439E+03  0.00000000000E+00 0. -1.
         21   -1    0    0  501  502 -0.00000000000E+00 -0.00000000000E+00 -0.16963770668E+03  0.16963770668E+03  0.00000000000E+00 0. -1.
         25    1    1    2    0    0 -0.39063814048E+02 -0.13811073030E+03  0.35404834147E+02  0.19359508690E+03  0.12500000000E+03 0.  0.
         25    1    1    2    0    0  0.39063814048E+02  0.13811073030E+03  0.94809535668E+01  0.19056611417E+03  0.12500000000E+03 0.  0.
</event>
<event>
 4    0  0.2156764E-002  0.2429783E+03  0.7546771E-02  0.1117825E+00
         21   -1    0    0  502  501  0.00000000000E+00  0.00000000000E+00  0.84816143984E+03  0.84816143984E+03  0.00000000000E+00 0.  1.
         21   -1    0    0  501  502 -0.00000000000E+00 -0.00000000000E+00 -0.69607576100E+02  0.69607576100E+02  0.00000000000E+00 0.  1.
         25    1    1    2    0    0  0.37746671842E+02 -0.19859392621E+03  0.29392497990E+03  0.37799636582E+03  0.12500000000E+03 0.  0.
         25    1    1    2    0    0 -0.37746671842E+02  0.19859392621E+03  0.48462888384E+03  0.53977265012E+03  0.12500000000E+03 0.  0.
</event>
<event>
 4    0  0.2156764E-002  0.2093767E+03  0.7546771E-02  0.1142061E+00
         21   -1    0    0  502  501  0.00000000000E+00  0.00000000000E+00  0.10909146025E+04  0.10909146025E+04  0.00000000000E+00 0. -1.
         21   -1    0    0  501  502 -0.00000000000E+00 -0.00000000000E+00 -0.40185185346E+02  0.40185185346E+02  0.00000000000E+00 0. -1.
         25    1    1    2    0    0 -0.12233910220E+03 -0.11397234026E+03  0.56867147710E+03  0.60577949713E+03  0.12500000000E+03 0.  0.
         25    1    1    2    0    0  0.12233910220E+03  0.11397234026E+03  0.48205794006E+03  0.52532029072E+03  0.12500000000E+03 0.  0.
</event>
<event>
 4    0  0.2156764E-002  0.1379235E+03  0.7546771E-02  0.1216151E+00
         21   -1    0    0  502  501  0.00000000000E+00  0.00000000000E+00  0.41494339805E+02  0.41494339805E+02  0.00000000000E+00 0.  1.
         21   -1    0    0  501  502 -0.00000000000E+00 -0.00000000000E+00 -0.45844519333E+03  0.45844519333E+03  0.00000000000E+00 0.  1.
         25    1    1    2    0    0  0.34859269155E+02 -0.77627436745E+00 -0.29313724707E+03  0.32057794195E+03  0.12500000000E+03 0.  0.
         25    1    1    2    0    0 -0.34859269155E+02  0.77627436745E+00 -0.12381360646E+03  0.17936159118E+03  0.12500000000E+03 0.  0.
</event>
<event>
 4    0  0.2156764E-002  0.1765289E+03  0.7546771E-02  0.1171205E+00
         21   -1    0    0  502  501  0.00000000000E+00  0.00000000000E+00  0.35855105035E+03  0.35855105035E+03  0.00000000000E+00 0. -1.
         21   -1    0    0  501  502 -0.00000000000E+00 -0.00000000000E+00 -0.86912201342E+02  0.86912201342E+02  0.00000000000E+00 0. -1.
         25    1    1    2    0    0 -0.28616521479E+02 -0.10654907296E+03  0.20901982296E+03  0.26736846605E+03  0.12500000000E+03 0.  0.
         25    1    1    2    0    0  0.28616521479E+02  0.10654907296E+03  0.62619026053E+02  0.17809478564E+03  0.12500000000E+03 0.  0.
</event>
<event>
 4    0  0.2156764E-002  0.2755636E+03  0.7546771E-02  0.1098137E+00
         21   -1    0    0  502  501  0.00000000000E+00  0.00000000000E+00  0.33957720806E+03  0.33957720806E+03  0.00000000000E+00 0.  1.
         21   -1    0    0  501  502 -0.00000000000E+00 -0.00000000000E+00 -0.22361714504E+03  0.22361714504E+03  0.00000000000E+00 0.  1.
         25    1    1    2    0    0  0.58976788800E+02 -0.36595004624E+02  0.29870709385E+03  0.33116217159E+03  0.12500000000E+03 0.  0.
         25    1    1    2    0    0 -0.58976788800E+02  0.36595004624E+02 -0.18274703082E+03  0.23203218151E+03  0.12500000000E+03 0.  0.
</event>
<event>
 4    0  0.2156764E-002  0.1753482E+03  0.7546771E-02  0.1172383E+00
         21   -1    0    0  502  501  0.00000000000E+00  0.00000000000E+00  0.19406944742E+03  0.19406944742E+03  0.00000000000E+00 0. -1.
         21   -1    0    0  501  502 -0.00000000000E+00 -0.00000000000E+00 -0.15843289006E+03  0.15843289006E+03  0.00000000000E+00 0. -1.
         25    1    1    2    0    0 -0.50625107483E+02  0.79264765769E+02  0.97448588112E+02  0.18430147022E+03  0.12500000000E+03 0.  0.
         25    1    1    2    0    0  0.50625107483E+02 -0.79264765769E+02 -0.61812030748E+02  0.16820086725E+03  0.12500000000E+03 0.  0.
</event>
<event>
 4    0  0.2156764E-002  0.3044531E+03  0.7546771E-02  0.1083035E+00
         21   -1    0    0  502  501  0.00000000000E+00  0.00000000000E+00  0.12079476636E+03  0.12079476636E+03  0.00000000000E+00 0. -1.
         21   -1    0    0  501  502 -0.00000000000E+00 -0.00000000000E+00 -0.76734860563E+03  0.76734860563E+03  0.00000000000E+00 0. -1.
         25    1    1    2    0    0 -0.23960492763E+03  0.40430791315E+02 -0.12746981609E+03  0.30152731923E+03  0.12500000000E+03 0.  0.
         25    1    1    2    0    0  0.23960492763E+03 -0.40430791315E+02 -0.51908402318E+03  0.58661605276E+03  0.12500000000E+03 0.  0.
</event>
<event>
 4    0  0.2156764E-002  0.1822827E+03  0.7546771E-02  0.1165612E+00
         21   -1    0    0  502  501  0.00000000000E+00  0.00000000000E+00  0.25278946404E+02  0.25278946404E+02  0.00000000000E+00 0. -1.
         21   -1    0    0  501  502 -0.00000000000E+00 -0.00000000000E+00 -0.13144130426E+04  0.13144130426E+04  0.00000000000E+00 0. -1.
         25    1    1    2    0    0  0.17493717862E+02 -0.20781902410E+02 -0.16735586815E+03  0.21064402255E+03  0.12500000000E+03 0.  0.
         25    1    1    2    0    0 -0.17493717862E+02  0.20781902410E+02 -0.11217782280E+04  0.11290479664E+04  0.12500000000E+03 0.  0.
</event>
<event>
 4    0  0.2156764E-002  0.2896139E+03  0.7546771E-02  0.1090551E+00
         21   -1    0    0  502  501  0.00000000000E+00  0.00000000000E+00  0.13088750830E+03  0.13088750830E+03  0.00000000000E+00 0.  1.
         21   -1    0    0  501  502 -0.00000000000E+00 -0.00000000000E+00 -0.64082672093E+03  0.64082672093E+03  0.00000000000E+00 0.  1.
         25    1    1    2    0    0 -0.36177048686E+01 -0.65016310849E+02 -0.59205072502E+03  0.60859614644E+03  0.12500000000E+03 0.  0.
         25    1    1    2    0    0  0.36177048686E+01  0.65016310849E+02  0.82111512388E+02  0.16311808279E+03  0.12500000000E+03 0.  0.
</event>
<event>
 4    0  0.2156764E-002  0.2162441E+03  0.7546771E-02  0.1136715E+00
         21   -1    0    0  502  501  0.00000000000E+00  0.00000000000E+00  0.25803788677E+02  0.25803788677E+02  0.00000000000E+00 0.  1.
         21   -1    0    0  501  502 -0.00000000000E+00 -0.00000000000E+00 -0.18121955311E+04  0.18121955311E+04  0.00000000000E+00 0.  1.
         25    1    1    2    0    0 -0.14613655945E+03 -0.73421961250E+01 -0.13123309782E+04  0.13263662383E+04  0.12500000000E+03 0.  0.
         25    1    1    2    0    0  0.14613655945E+03  0.73421961250E+01 -0.47406076422E+03  0.51163308144E+03  0.12500000000E+03 0.  0.
</event>
<event>
 4    0  0.2156764E-002  0.1511142E+03  0.7546771E-02  0.1199111E+00
         21   -1    0    0  502  501  0.00000000000E+00  0.00000000000E+00  0.25589231091E+03  0.25589231091E+03  0.00000000000E+00 0.  1.
         21   -1    0    0  501  502 -0.00000000000E+00 -0.00000000000E+00 -0.89238731329E+02  0.89238731329E+02  0.00000000000E+00 0.  1.
         25    1    1    2    0    0 -0.49902365433E+02  0.68049524844E+02  0.72522111367E+02  0.16734826125E+03  0.12500000000E+03 0.  0.
         25    1    1    2    0    0  0.49902365433E+02 -0.68049524844E+02  0.94131468216E+02  0.17778278099E+03  0.12500000000E+03 0.  0.
</event>
<event>
 4    0  0.2156764E-002  0.3753708E+03  0.7546771E-02  0.1052658E+00
         21   -1    0    0  502  501  0.00000000000E+00  0.00000000000E+00  0.12501459130E+03  0.12501459130E+03  0.00000000000E+00 0. -1.
         21   -1    0    0  501  502 -0.00000000000E+00 -0.00000000000E+00 -0.11270941098E+04  0.11270941098E+04  0.00000000000E+00 0. -1.
         25    1    1    2    0    0  0.60498719948E+02  0.34626998661E+03 -0.43196643784E+03  0.57077403774E+03  0.12500000000E+03 0.  0.
         25    1    1    2    0    0 -0.60498719948E+02 -0.34626998661E+03 -0.57011308062E+03  0.68133466331E+03  0.12500000000E+03 0.  0.
</event>
<event>
 4    0  0.2156764E-002  0.1767478E+03  0.7546771E-02  0.1170988E+00
         21   -1    0    0  502  501  0.00000000000E+00  0.00000000000E+00  0.36937345082E+03  0.36937345082E+03  0.00000000000E+00 0.  1.
         21   -1    0    0  501  502 -0.00000000000E+00 -0.00000000000E+00 -0.84575060923E+02  0.84575060923E+02  0.00000000000E+00 0.  1.
         25    1    1    2    0    0 -0.57713945215E+02  0.11082705297E+03  0.14383319592E+03  0.22787391994E+03  0.12500000000E+03 0.  0.
         25    1    1    2    0    0  0.57713945215E+02 -0.11082705297E+03  0.14096519398E+03  0.22607459180E+03  0.12500000000E+03 0.  0.
</event>
<event>
 4    0  0.2156764E-002  0.1754909E+03  0.7546771E-02  0.1172240E+00
         21   -1    0    0  502  501  0.00000000000E+00  0.00000000000E+00  0.19152817786E+03  0.19152817786E+03  0.00000000000E+00 0.  1.
         21   -1    0    0  501  502 -0.00000000000E+00 -0.00000000000E+00 -0.16079655327E+03  0.16079655327E+03  0.00000000000E+00 0.  1.
         25    1    1    2    0    0  0.11778929630E+03 -0.16261113463E+02 -0.16902605934E+02  0.17334774363E+03  0.12500000000E+03 0.  0.
         25    1    1    2    0    0 -0.11778929630E+03  0.16261113463E+02  0.47634230524E+02  0.17897698749E+03  0.12500000000E+03 0.  0.
</event>
<event>
 4    0  0.2156764E-002  0.1913720E+03  0.7546771E-02  0.1157230E+00
         21   -1    0    0  502  501  0.00000000000E+00  0.00000000000E+00  0.20239719908E+03  0.20239719908E+03  0.00000000000E+00 0.  1.
         21   -1    0    0  501  502 -0.00000000000E+00 -0.00000000000E+00 -0.18094743957E+03  0.18094743957E+03  0.00000000000E+00 0.  1.
         25    1    1    2    0    0 -0.30443992972E+02 -0.13540098139E+03 -0.31029772817E+02  0.18933596930E+03  0.12500000000E+03 0.  0.
         25    1    1    2    0    0  0.30443992972E+02  0.13540098139E+03  0.52479532325E+02  0.19400866935E+03  0.12500000000E+03 0.  0.
</event>
<event>
 4    0  0.2156764E-002  0.2541877E+03  0.7546771E-02  0.1110687E+00
         21   -1    0    0  502  501  0.00000000000E+00  0.00000000000E+00  0.15482342618E+03  0.15482342618E+03  0.00000000000E+00 0.  1.
         21   -1    0    0  501  502 -0.00000000000E+00 -0.00000000000E+00 -0.41732298899E+03  0.41732298899E+03  0.00000000000E+00 0.  1.
         25    1    1    2    0    0  0.19704175370E+02 -0.36473503988E+02  0.11343412572E+03  0.17381274952E+03  0.12500000000E+03 0.  0.
         25    1    1    2    0    0 -0.19704175370E+02  0.36473503988E+02 -0.37593368853E+03  0.39833366565E+03  0.12500000000E+03 0.  0.
</event>
<event>
 4    0  0.2156764E-002  0.1803272E+03  0.7546771E-02  0.1167487E+00
         21   -1    0    0  502  501  0.00000000000E+00  0.00000000000E+00  0.23193717545E+02  0.23193717545E+02  0.00000000000E+00 0.  1.
         21   -1    0    0  501  502 -0.00000000000E+00 -0.00000000000E+00 -0.14020127694E+04  0.14020127694E+04  0.00000000000E+00 0.  1.
         25    1    1    2    0    0 -0.41452846537E+02  0.11344911099E+03 -0.49973298362E+03  0.52910026856E+03  0.12500000000E+03 0.  0.
         25    1    1    2    0    0  0.41452846537E+02 -0.11344911099E+03 -0.87908606823E+03  0.89610621839E+03  0.12500000000E+03 0.  0.
</event>
<event>
 4    0  0.2156764E-002  0.2230039E+03  0.7546771E-02  0.1131663E+00
         21   -1    0    0  502  501  0.00000000000E+00  0.00000000000E+00  0.19118606655E+03  0.19118606655E+03  0.00000000000E+00 0. -1.
         21   -1    0    0  501  502 -0.00000000000E+00 -0.00000000000E+00 -0.26011701292E+03  0.26011701292E+03  0.00000000000E+00 0. -1.
         25    1    1    2    0    0  0.58571528609E+01 -0.62275264110E+02  0.14135952355E+03  0.19879645283E+03  0.12500000000E+03 0.  0.
         25    1    1    2    0    0 -0.58571528609E+01  0.62275264110E+02 -0.21029046992E+03  0.25250662664E+03  0.12500000000E+03 0.  0.
</event>
<event>
 4    0  0.2156764E-002  0.2981432E+03  0.7546771E-02  0.1086172E+00
         21   -1    0    0  502  501  0.00000000000E+00  0.00000000000E+00  0.15955641585E+04  0.15955641585E+04  0.00000000000E+00 0.  1.
         21   -1    0    0  501  502 -0.00000000000E+00 -0.00000000000E+00 -0.55710322599E+02  0.55710322599E+02  0.00000000000E+00 0.  1.
         25    1    1    2    0    0 -0.16362192126E+03 -0.15964327160E+03  0.11712914070E+04  0.11999194421E+04  0.12500000000E+03 0.  0.
         25    1    1    2    0    0  0.16362192126E+03  0.15964327160E+03  0.36856242891E+03  0.45135503906E+03  0.12500000000E+03 0.  0.
</event>
<event>
 4    0  0.2156764E-002  0.3987157E+03  0.7546771E-02  0.1044225E+00
         21   -1    0    0  502  501  0.00000000000E+00  0.00000000000E+00  0.33197202983E+03  0.33197202983E+03  0.00000000000E+00 0.  1.
         21   -1    0    0  501  502 -0.00000000000E+00 -0.00000000000E+00 -0.47887844157E+03  0.47887844157E+03  0.00000000000E+00 0. -1.
         25    1    1    2    0    0 -0.55582418546E+02  0.35553487497E+03  0.46233923624E+02  0.38374083476E+03  0.12500000000E+03 0.  0.
         25    1    1    2    0    0  0.55582418546E+02 -0.35553487497E+03 -0.19314033536E+03  0.42710963664E+03  0.12500000000E+03 0.  0.
</event>
<event>
 4    0  0.2156764E-002  0.2386912E+03  0.7546771E-02  0.1120668E+00
         21   -1    0    0  502  501  0.00000000000E+00  0.00000000000E+00  0.42068570061E+03  0.42068570061E+03  0.00000000000E+00 0. -1.
         21   -1    0    0  501  502 -0.00000000000E+00 -0.00000000000E+00 -0.13543007703E+03  0.13543007703E+03  0.00000000000E+00 0. -1.
         25    1    1    2    0    0  0.16399699388E+03  0.26801778561E+02  0.27915383717E+03  0.34808794024E+03  0.12500000000E+03 0.  0.
         25    1    1    2    0    0 -0.16399699388E+03 -0.26801778561E+02  0.61017864100E+01  0.20802783740E+03  0.12500000000E+03 0.  0.
</event>
<event>
 4    0  0.2156764E-002  0.1945604E+03  0.7546771E-02  0.1154411E+00
         21   -1    0    0  502  501  0.00000000000E+00  0.00000000000E+00  0.37181891168E+03  0.37181891168E+03  0.00000000000E+00 0.  1.
         21   -1    0    0  501  502 -0.00000000000E+00 -0.00000000000E+00 -0.10180695036E+03  0.10180695036E+03  0.00000000000E+00 0.  1.
         25    1    1    2    0    0  0.11919670781E+03 -0.80312169939E+02  0.86764761257E+02  0.20931083008E+03  0.12500000000E+03 0.  0.
         25    1    1    2    0    0 -0.11919670781E+03  0.80312169939E+02  0.18324720006E+03  0.26431503197E+03  0.12500000000E+03 0.  0.
</event>
<event>
 4    0  0.2156764E-002  0.3790430E+03  0.7546771E-02  0.1051288E+00
         21   -1    0    0  502  501  0.00000000000E+00  0.00000000000E+00  0.95241377842E+02  0.95241377842E+02  0.00000000000E+00 0.  1.
         21   -1    0    0  501  502 -0.00000000000E+00 -0.00000000000E+00 -0.15085209694E+04  0.15085209694E+04  0.00000000000E+00 0.  1.
         25    1    1    2    0    0  0.41488016662E+02 -0.20595499307E+02 -0.14572939043E+04  0.14633782675E+04  0.12500000000E+03 0.  0.
         25    1    1    2    0    0 -0.41488016662E+02  0.20595499307E+02  0.44014312786E+02  0.14038407975E+03  0.12500000000E+03 0.  0.
</event>
<event>
 4    0  0.2156764E-002  0.1674316E+03  0.7546771E-02  0.1180553E+00
         21   -1    0    0  502  501  0.00000000000E+00  0.00000000000E+00  0.58855311061E+03  0.58855311061E+03  0.00000000000E+00 0. -1.
         21   -1    0    0  501  502 -0.00000000000E+00 -0.00000000000E+00 -0.47630916700E+02  0.47630916700E+02  0.00000000000E+00 0. -1.
         25    1    1    2    0    0 -0.80511766385E+02 -0.75817160265E+02  0.24511858515E+03  0.29654427511E+03  0.12500000000E+03 0.  0.
         25    1    1    2    0    0  0.80511766385E+02  0.75817160265E+02  0.29580360876E+03  0.33963975220E+03  0.12500000000E+03 0.  0.
</event>
<event>
 4    0  0.2156764E-002  0.2713280E+03  0.7546771E-02  0.1100522E+00
         21   -1    0    0  502  501  0.00000000000E+00  0.00000000000E+00  0.15947590981E+03  0.15947590981E+03  0.00000000000E+00 0. -1.
         21   -1    0    0  501  502 -0.00000000000E+00 -0.00000000000E+00 -0.46163026311E+03  0.46163026311E+03  0.00000000000E+00 0. -1.
         25    1    1    2    0    0 -0.30419150479E+02 -0.22786177459E+03 -0.68958247460E+02  0.27060405194E+03  0.12500000000E+03 0.  0.
         25    1    1    2    0    0  0.30419150479E+02  0.22786177459E+03 -0.23319610584E+03  0.35050212098E+03  0.12500000000E+03 0.  0.
</event>
<event>
 4    0  0.2156764E-002  0.2222706E+03  0.7546771E-02  0.1132201E+00
         21   -1    0    0  502  501  0.00000000000E+00  0.00000000000E+00  0.40844961966E+02  0.40844961966E+02  0.00000000000E+00 0.  1.
         21   -1    0    0  501  502 -0.00000000000E+00 -0.00000000000E+00 -0.12095546471E+04  0.12095546471E+04  0.00000000000E+00 0.  1.
         25    1    1    2    0    0  0.23929508603E+02  0.17461045776E+03 -0.73099199047E+03  0.76225699306E+03  0.12500000000E+03 0.  0.
         25    1    1    2    0    0 -0.23929508603E+02 -0.17461045776E+03 -0.43771769469E+03  0.48814261603E+03  0.12500000000E+03 0.  0.
</event>
<event>
 4    0  0.2156764E-002  0.2632900E+03  0.7546771E-02  0.1105182E+00
         21   -1    0    0  502  501  0.00000000000E+00  0.00000000000E+00  0.10126507528E+04  0.10126507528E+04  0.00000000000E+00 0. -1.
         21   -1    0    0  501  502 -0.00000000000E+00 -0.00000000000E+00 -0.68455631072E+02  0.68455631072E+02  0.00000000000E+00 0. -1.
         25    1    1    2    0    0  0.15855322512E+03 -0.79575311448E+02  0.77817247019E+03  0.80786678899E+03  0.12500000000E+03 0.  0.
         25    1    1    2    0    0 -0.15855322512E+03  0.79575311448E+02  0.16602265153E+03  0.27323959488E+03  0.12500000000E+03 0.  0.
</event>
<event>
 4    0  0.2156764E-002  0.2263893E+03  0.7546771E-02  0.1129207E+00
         21   -1    0    0  502  501  0.00000000000E+00  0.00000000000E+00  0.40608354548E+03  0.40608354548E+03  0.00000000000E+00 0. -1.
         21   -1    0    0  501  502 -0.00000000000E+00 -0.00000000000E+00 -0.12621072141E+03  0.12621072141E+03  0.00000000000E+00 0. -1.
         25    1    1    2    0    0  0.14078123656E+03 -0.11242071296E+03  0.73752979300E+02  0.23134881721E+03  0.12500000000E+03 0.  0.
         25    1    1    2    0    0 -0.14078123656E+03  0.11242071296E+03  0.20611984477E+03  0.30094544967E+03  0.12500000000E+03 0.  0.
</event>
<event>
 4    0  0.2156764E-002  0.2100306E+03  0.7546771E-02  0.1141542E+00
         21   -1    0    0  502  501  0.00000000000E+00  0.00000000000E+00  0.45321445044E+03  0.45321445044E+03  0.00000000000E+00 0.  1.
         21   -1    0    0  501  502 -0.00000000000E+00 -0.00000000000E+00 -0.97333256395E+02  0.97333256395E+02  0.00000000000E+00 0.  1.
         25    1    1    2    0    0 -0.79809150321E+02 -0.60415495929E+01 -0.16819537679E+02  0.14937837074E+03  0.12500000000E+03 0.  0.
         25    1    1    2    0    0  0.79809150321E+02  0.60415495929E+01  0.37270073172E+03  0.40116933610E+03  0.12500000000E+03 0.  0.
</event>
<event>
 4    0  0.2156764E-002  0.1749911E+03  0.7546771E-02  0.1172741E+00
         21   -1    0    0  502  501  0.00000000000E+00  0.00000000000E+00  0.17510200366E+04  0.17510200366E+04  0.00000000000E+00 0. -1.
         21   -1    0    0  501  502 -0.00000000000E+00 -0.00000000000E+00 -0.17488016672E+02  0.17488016672E+02  0.00000000000E+00 0. -1.
         25    1    1    2    0    0  0.66494966152E+02  0.78223364310E+02  0.52943760037E+03  0.55359700860E+03  0.12500000000E+03 0.  0.
         25    1    1    2    0    0 -0.66494966152E+02 -0.78223364310E+02  0.12040944195E+04  0.12149110446E+04  0.12500000000E+03 0.  0.
</event>
<event>
 4    0  0.2156764E-002  0.1751664E+03  0.7546771E-02  0.1172565E+00
         21   -1    0    0  502  501  0.00000000000E+00  0.00000000000E+00  0.35210769992E+03  0.35210769992E+03  0.00000000000E+00 0. -1.
         21   -1    0    0  501  502 -0.00000000000E+00 -0.00000000000E+00 -0.87141750924E+02  0.87141750924E+02  0.00000000000E+00 0. -1.
         25    1    1    2    0    0  0.11677627218E+03 -0.13889010724E+02  0.88533916703E+02  0.19311358515E+03  0.12500000000E+03 0.  0.
         25    1    1    2    0    0 -0.11677627218E+03  0.13889010724E+02  0.17643203230E+03  0.24613586570E+03  0.12500000000E+03 0.  0.
</event>
<event>
 4    0  0.2156764E-002  0.2936238E+03  0.7546771E-02  0.1088472E+00
         21   -1    0    0  502  501  0.00000000000E+00  0.00000000000E+00  0.95145971313E+02  0.95145971313E+02  0.00000000000E+00 0. -1.
         21   -1    0    0  501  502 -0.00000000000E+00 -0.00000000000E+00 -0.90613307971E+03  0.90613307971E+03  0.00000000000E+00 0. -1.
         25    1    1    2    0    0 -0.16157887406E+03  0.20198694765E+03 -0.30201235016E+03  0.41682480638E+03  0.12500000000E+03 0.  0.
         25    1    1    2    0    0  0.16157887406E+03 -0.20198694765E+03 -0.50897475824E+03  0.58445424465E+03  0.12500000000E+03 0.  0.
</event>
<event>
 4    0  0.2156764E-002  0.2315619E+03  0.7546771E-02  0.1125545E+00
         21   -1    0    0  502  501  0.00000000000E+00  0.00000000000E+00  0.24657418817E+02  0.24657418817E+02  0.00000000000E+00 0. -1.
         21   -1    0    0  501  502 -0.00000000000E+00 -0.00000000000E+00 -0.21746370507E+04  0.21746370507E+04  0.00000000000E+00 0. -1.
         25    1    1    2    0    0 -0.11449205894E+03 -0.13513945510E+02 -0.18213999856E+04  0.18293206295E+04  0.12500000000E+03 0.  0.
         25    1    1    2    0    0  0.11449205894E+03  0.13513945510E+02 -0.32857964630E+03  0.36997383995E+03  0.12500000000E+03 0.  0.
</event>
<event>
 4    0  0.2156764E-002  0.1877413E+03  0.7546771E-02  0.1160514E+00
         21   -1    0    0  502  501  0.00000000000E+00  0.00000000000E+00  0.60839925054E+03  0.60839925054E+03  0.00000000000E+00 0. -1.
         21   -1    0    0  501  502 -0.00000000000E+00 -0.00000000000E+00 -0.57933631833E+02  0.57933631833E+02  0.00000000000E+00 0. -1.
         25    1    1    2    0    0  0.93294240190E+02 -0.42319886777E+02  0.10569548405E+03  0.19310961503E+03  0.12500000000E+03 0.  0.
         25    1    1    2    0    0 -0.93294240190E+02  0.42319886777E+02  0.44477013466E+03  0.47322326734E+03  0.12500000000E+03 0.  0.
</event>
<event>
 4    0  0.2156764E-002  0.2686781E+03  0.7546771E-02  0.1102039E+00
         21   -1    0    0  502  501  0.00000000000E+00  0.00000000000E+00  0.18473711625E+03  0.18473711625E+03  0.00000000000E+00 0.  1.
         21   -1    0    0  501  502 -0.00000000000E+00 -0.00000000000E+00 -0.39076023468E+03  0.39076023468E+03  0.00000000000E+00 0.  1.
         25    1    1    2    0    0 -0.70974901169E+02 -0.19776318234E+03  0.16320748019E+02  0.24502873240E+03  0.12500000000E+03 0.  0.
         25    1    1    2    0    0  0.70974901169E+02  0.19776318234E+03 -0.22234386645E+03  0.33046861853E+03  0.12500000000E+03 0.  0.
</event>
<event>
 4    0  0.2156764E-002  0.2014877E+03  0.7546771E-02  0.1148490E+00
         21   -1    0    0  502  501  0.00000000000E+00  0.00000000000E+00  0.27014401327E+02  0.27014401327E+02  0.00000000000E+00 0. -1.
         21   -1    0    0  501  502 -0.00000000000E+00 -0.00000000000E+00 -0.15028025247E+04  0.15028025247E+04  0.00000000000E+00 0. -1.
         25    1    1    2    0    0 -0.12578786429E+03 -0.27427504624E+02 -0.10857782540E+04  0.11005063706E+04  0.12500000000E+03 0.  0.
         25    1    1    2    0    0  0.12578786429E+03  0.27427504624E+02 -0.39000986934E+03  0.42931055542E+03  0.12500000000E+03 0.  0.
</event>
<event>
 4    0  0.2156764E-002  0.2111515E+03  0.7546771E-02  0.1140657E+00
         21   -1    0    0  502  501  0.00000000000E+00  0.00000000000E+00  0.70775974425E+02  0.70775974425E+02  0.00000000000E+00 0. -1.
         21   -1    0    0  501  502 -0.00000000000E+00 -0.00000000000E+00 -0.62994470620E+03  0.62994470620E+03  0.00000000000E+00 0. -1.
         25    1    1    2    0    0  0.12991906007E+03 -0.22888304168E+02 -0.10120464094E+03  0.20801494173E+03  0.12500000000E+03 0.  0.
         25    1    1    2    0    0 -0.12991906007E+03  0.22888304168E+02 -0.45796409084E+03  0.49270573889E+03  0.12500000000E+03 0.  0.
</event>
<event>
 4    0  0.2156764E-002  0.2055945E+03  0.7546771E-02  0.1145103E+00
         21   -1    0    0  502  501  0.00000000000E+00  0.00000000000E+00  0.97745896176E+02  0.97745896176E+02  0.00000000000E+00 0. -1.
         21   -1    0    0  501  502 -0.00000000000E+00 -0.00000000000E+00 -0.43243865692E+03  0.43243865692E+03  0.00000000000E+00 0. -1.
         25    1    1    2    0    0  0.10135320571E+03  0.12571191824E+03 -0.13661264920E+03  0.24569081101E+03  0.12500000000E+03 0.  0.
         25    1    1    2    0    0 -0.10135320571E+03 -0.12571191824E+03 -0.19808011154E+03  0.28449374208E+03  0.12500000000E+03 0.  0.
</event>
<event>
 4    0  0.2156764E-002  0.2281159E+03  0.7546771E-02  0.1127973E+00
         21   -1    0    0  502  501  0.00000000000E+00  0.00000000000E+00  0.34638074342E+03  0.34638074342E+03  0.00000000000E+00 0. -1.
         21   -1    0    0  501  502 -0.00000000000E+00 -0.00000000000E+00 -0.15023030600E+03  0.15023030600E+03  0.00000000000E+00 0. -1.
         25    1    1    2    0    0  0.63791732859E+02  0.16548729296E+03  0.21442125853E+02  0.21803713921E+03  0.12500000000E+03 0.  0.
         25    1    1    2    0    0 -0.63791732859E+02 -0.16548729296E+03  0.17470831157E+03  0.27857391020E+03  0.12500000000E+03 0.  0.
</event>
<event>
 4    0  0.2156764E-002  0.2211409E+03  0.7546771E-02  0.1133035E+00
         21   -1    0    0  502  501  0.00000000000E+00  0.00000000000E+00  0.18508091899E+03  0.18508091899E+03  0.00000000000E+00 0.  1.
         21   -1    0    0  501  502 -0.00000000000E+00 -0.00000000000E+00 -0.26422660894E+03  0.26422660894E+03  0.00000000000E+00 0.  1.
         25    1    1    2    0    0  0.12742194653E+03 -0.60648213658E+02  0.77865168283E+02  0.20396701378E+03  0.12500000000E+03 0.  0.
         25    1    1    2    0    0 -0.12742194653E+03  0.60648213658E+02 -0.15701085823E+03  0.24534051415E+03  0.12500000000E+03 0.  0.
</event>
<event>
 4    0  0.2156764E-002  0.1540338E+03  0.7546771E-02  0.1195602E+00
         21   -1    0    0  502  501  0.00000000000E+00  0.00000000000E+00  0.49633956545E+02  0.49633956545E+02  0.00000000000E+00 0. -1.
         21   -1    0    0  501  502 -0.00000000000E+00 -0.00000000000E+00 -0.47802785143E+03  0.47802785143E+03  0.00000000000E+00 0. -1.
         25    1    1    2    0    0 -0.14889208853E+02 -0.88726062980E+02 -0.21885970185E+03  0.26761646415E+03  0.12500000000E+03 0.  0.
         25    1    1    2    0    0  0.14889208853E+02  0.88726062980E+02 -0.20953419304E+03  0.26004534382E+03  0.12500000000E+03 0.  0.
</event>
<event>
 4    0  0.2156764E-002  0.2124341E+03  0.7546771E-02  0.1139653E+00
         21   -1    0    0  502  501  0.00000000000E+00  0.00000000000E+00  0.19752605947E+03  0.19752605947E+03  0.00000000000E+00 0.  1.
         21   -1    0    0  501  502 -0.00000000000E+00 -0.00000000000E+00 -0.22846728824E+03  0.22846728824E+03  0.00000000000E+00 0.  1.
         25    1    1    2    0    0  0.15084129816E+03 -0.81986419168E+02 -0.20811352360E+02  0.21338458835E+03  0.12500000000E+03 0.  0.
         25    1    1    2    0    0 -0.15084129816E+03  0.81986419168E+02 -0.10129876406E+02  0.21260875936E+03  0.12500000000E+03 0.  0.
</event>
<event>
 4    0  0.2156764E-002  0.2400098E+03  0.7546771E-02  0.1119786E+00
         21   -1    0    0  502  501  0.00000000000E+00  0.00000000000E+00  0.10079019310E+03  0.10079019310E+03  0.00000000000E+00 0. -1.
         21   -1    0    0  501  502 -0.00000000000E+00 -0.00000000000E+00 -0.57153100743E+03  0.57153100743E+03  0.00000000000E+00 0. -1.
         25    1    1    2    0    0 -0.12805903924E+03  0.15929912954E+03 -0.21534653705E+03  0.32214043711E+03  0.12500000000E+03 0.  0.
         25    1    1    2    0    0  0.12805903924E+03 -0.15929912954E+03 -0.25539427728E+03  0.35018076342E+03  0.12500000000E+03 0.  0.
</event>
<event>
 4    0  0.2156764E-002  0.2438500E+03  0.7546771E-02  0.1117254E+00
         21   -1    0    0  502  501  0.00000000000E+00  0.00000000000E+00  0.27092458193E+03  0.27092458193E+03  0.00000000000E+00 0. -1.
         21   -1    0    0  501  502 -0.00000000000E+00 -0.00000000000E+00 -0.21948104589E+03  0.21948104589E+03  0.00000000000E+00 0. -1.
         25    1    1    2    0    0  0.91150164557E+02  0.32072278025E+02  0.21249622676E+03  0.26479544918E+03  0.12500000000E+03 0.  0.
         25    1    1    2    0    0 -0.91150164557E+02 -0.32072278025E+02 -0.16105269073E+03  0.22561017864E+03  0.12500000000E+03 0.  0.
</event>
<event>
 4    0  0.2156764E-002  0.2309057E+03  0.7546771E-02  0.1126004E+00
         21   -1    0    0  502  501  0.00000000000E+00  0.00000000000E+00  0.17554479631E+03  0.17554479631E+03  0.00000000000E+00 0.  1.
         21   -1    0    0  501  502 -0.00000000000E+00 -0.00000000000E+00 -0.30372566689E+03  0.30372566689E+03  0.00000000000E+00 0.  1.
         25    1    1    2    0    0 -0.16121413512E+03 -0.10798514090E+03 -0.70789894470E+02  0.24142700175E+03  0.12500000000E+03 0.  0.
         25    1    1    2    0    0  0.16121413512E+03  0.10798514090E+03 -0.57390976109E+02  0.23784346145E+03  0.12500000000E+03 0.  0.
</event>
<event>
 4    0  0.2190002E-002  0.2151745E+03  0.7546771E-02  0.1137533E+00
         21   -1    0    0  502  501  0.00000000000E+00  0.00000000000E+00  0.24778395787E+03  0.24778395787E+03  0.00000000000E+00 0. -1.
         21   -1    0    0  501  502 -0.00000000000E+00 -0.00000000000E+00 -0.18685654889E+03  0.18685654889E+03  0.00000000000E+00 0. -1.
         25    1    1    2    0    0  0.26101291700E+02  0.45407297987E+00  0.20537728920E+03  0.24183943957E+03  0.12500000000E+03 0.  0.
         25    1    1    2    0    0 -0.26101291700E+02 -0.45407297987E+00 -0.14444988023E+03  0.19280106719E+03  0.12500000000E+03 0.  0.
</event>
<event>
 4    0  0.2156764E-002  0.2554417E+03  0.7546771E-02  0.1109913E+00
         21   -1    0    0  502  501  0.00000000000E+00  0.00000000000E+00  0.52074685100E+02  0.52074685100E+02  0.00000000000E+00 0. -1.
         21   -1    0    0  501  502 -0.00000000000E+00 -0.00000000000E+00 -0.12530165143E+04  0.12530165143E+04  0.00000000000E+00 0. -1.
         25    1    1    2    0    0 -0.43936984783E+02 -0.15887737554E+03 -0.98325683555E+03  0.10047842971E+04  0.12500000000E+03 0.  0.
         25    1    1    2    0    0  0.43936984783E+02  0.15887737554E+03 -0.21768499363E+03  0.30030690226E+03  0.12500000000E+03 0.  0.
</event>
<event>
 4    0  0.2156764E-002  0.2565280E+03  0.7546771E-02  0.1109247E+00
         21   -1    0    0  502  501  0.00000000000E+00  0.00000000000E+00  0.64340877614E+03  0.64340877614E+03  0.00000000000E+00 0. -1.
         21   -1    0    0  501  502 -0.00000000000E+00 -0.00000000000E+00 -0.10227807160E+03  0.10227807160E+03  0.00000000000E+00 0. -1.
         25    1    1    2    0    0  0.29743772346E+01 -0.22386934229E+03  0.25975912954E+03  0.36500155440E+03  0.12500000000E+03 0.  0.
         25    1    1    2    0    0 -0.29743772346E+01  0.22386934229E+03  0.28137157500E+03  0.38068529333E+03  0.12500000000E+03 0.  0.
</event>
<event>
 4    0  0.2156764E-002  0.2560352E+03  0.7546771E-02  0.1109549E+00
         21   -1    0    0  502  501  0.00000000000E+00  0.00000000000E+00  0.19014915849E+03  0.19014915849E+03  0.00000000000E+00 0. -1.
         21   -1    0    0  501  502 -0.00000000000E+00 -0.00000000000E+00 -0.34475059811E+03  0.34475059811E+03  0.00000000000E+00 0. -1.
         25    1    1    2    0    0 -0.38153719579E+02  0.16769340316E+03 -0.22632221821E+03  0.31052138451E+03  0.12500000000E+03 0.  0.
         25    1    1    2    0    0  0.38153719579E+02 -0.16769340316E+03  0.71720778592E+02  0.22437837209E+03  0.12500000000E+03 0.  0.
</event>
<event>
 4    0  0.2156764E-002  0.1562086E+03  0.7546771E-02  0.1193045E+00
         21   -1    0    0  502  501  0.00000000000E+00  0.00000000000E+00  0.72745884673E+03  0.72745884673E+03  0.00000000000E+00 0. -1.
         21   -1    0    0  501  502 -0.00000000000E+00 -0.00000000000E+00 -0.33542961171E+02  0.33542961171E+02  0.00000000000E+00 0. -1.
         25    1    1    2    0    0  0.92388656344E+02  0.15058860733E+02  0.33794504879E+03  0.37228253936E+03  0.12500000000E+03 0.  0.
         25    1    1    2    0    0 -0.92388656344E+02 -0.15058860733E+02  0.35597083676E+03  0.38871926854E+03  0.12500000000E+03 0.  0.
</event>
<event>
 4    0  0.2156764E-002  0.2188832E+03  0.7546771E-02  0.1134718E+00
         21   -1    0    0  502  501  0.00000000000E+00  0.00000000000E+00  0.16754254237E+04  0.16754254237E+04  0.00000000000E+00 0.  1.
         21   -1    0    0  501  502 -0.00000000000E+00 -0.00000000000E+00 -0.28595642324E+02  0.28595642324E+02  0.00000000000E+00 0.  1.
         25    1    1    2    0    0  0.16614126861E+03  0.25123247891E+02  0.10711577468E+04  0.10914385082E+04  0.12500000000E+03 0.  0.
         25    1    1    2    0    0 -0.16614126861E+03 -0.25123247891E+02  0.57567203457E+03  0.61258255779E+03  0.12500000000E+03 0.  0.
</event>
<event>
 4    0  0.2156764E-002  0.1976480E+03  0.7546771E-02  0.1151739E+00
         21   -1    0    0  502  501  0.00000000000E+00  0.00000000000E+00  0.43204844141E+02  0.43204844141E+02  0.00000000000E+00 0. -1.
         21   -1    0    0  501  502 -0.00000000000E+00 -0.00000000000E+00 -0.90417519331E+03  0.90417519331E+03  0.00000000000E+00 0. -1.
         25    1    1    2    0    0  0.10030398011E+03 -0.82572225571E+02 -0.23636244362E+03  0.29727304892E+03  0.12500000000E+03 0.  0.
         25    1    1    2    0    0 -0.10030398011E+03  0.82572225571E+02 -0.62460790555E+03  0.65010698853E+03  0.12500000000E+03 0.  0.
</event>
<event>
 4    0  0.2156764E-002  0.2049853E+03  0.7546771E-02  0.1145600E+00
         21   -1    0    0  502  501  0.00000000000E+00  0.00000000000E+00  0.38874026666E+02  0.38874026666E+02  0.00000000000E+00 0. -1.
         21   -1    0    0  501  502 -0.00000000000E+00 -0.00000000000E+00 -0.10809014722E+04  0.10809014722E+04  0.00000000000E+00 0.  1.
         25    1    1    2    0    0 -0.10376322269E+03  0.12436120579E+03 -0.55572200897E+03  0.59218617608E+03  0.12500000000E+03 0.  0.
         25    1    1    2    0    0  0.10376322269E+03 -0.12436120579E+03 -0.48630543661E+03  0.52758932283E+03  0.12500000000E+03 0.  0.
</event>
<event>
 4    0  0.2156764E-002  0.3124416E+03  0.7546771E-02  0.1079181E+00
         21   -1    0    0  502  501  0.00000000000E+00  0.00000000000E+00  0.12797461265E+03  0.12797461265E+03  0.00000000000E+00 0. -1.
         21   -1    0    0  501  502 -0.00000000000E+00 -0.00000000000E+00 -0.76280570216E+03  0.76280570216E+03  0.00000000000E+00 0. -1.
         25    1    1    2    0    0  0.97189379086E+02  0.17440909357E+03 -0.61001251365E+03  0.65391480648E+03  0.12500000000E+03 0.  0.
         25    1    1    2    0    0 -0.97189379086E+02 -0.17440909357E+03 -0.24818575857E+02  0.23686550833E+03  0.12500000000E+03 0.  0.
</event>
<event>
 4    0  0.2156764E-002  0.2444024E+03  0.7546771E-02  0.1116894E+00
         21   -1    0    0  502  501  0.00000000000E+00  0.00000000000E+00  0.16657554758E+03  0.16657554758E+03  0.00000000000E+00 0. -1.
         21   -1    0    0  501  502 -0.00000000000E+00 -0.00000000000E+00 -0.35859131765E+03  0.35859131765E+03  0.00000000000E+00 0. -1.
         25    1    1    2    0    0  0.11450340899E+01  0.10648551941E+03  0.98474648609E+02  0.19147515078E+03  0.12500000000E+03 0.  0.
         25    1    1    2    0    0 -0.11450340899E+01 -0.10648551941E+03 -0.29049041868E+03  0.33369171445E+03  0.12500000000E+03 0.  0.
</event>
<event>
 4    0  0.2156764E-002  0.2187558E+03  0.7546771E-02  0.1134814E+00
         21   -1    0    0  502  501  0.00000000000E+00  0.00000000000E+00  0.26626244669E+03  0.26626244669E+03  0.00000000000E+00 0.  1.
         21   -1    0    0  501  502 -0.00000000000E+00 -0.00000000000E+00 -0.17972525499E+03  0.17972525499E+03  0.00000000000E+00 0.  1.
         25    1    1    2    0    0  0.12170071264E+03  0.91169359816E+02  0.14054360104E+03  0.24186859949E+03  0.12500000000E+03 0.  0.
         25    1    1    2    0    0 -0.12170071264E+03 -0.91169359816E+02 -0.54006409339E+02  0.20411910218E+03  0.12500000000E+03 0.  0.
</event>
<event>
 4    0  0.2156764E-002  0.2300073E+03  0.7546771E-02  0.1126635E+00
         21   -1    0    0  502  501  0.00000000000E+00  0.00000000000E+00  0.39973838448E+03  0.39973838448E+03  0.00000000000E+00 0. -1.
         21   -1    0    0  501  502 -0.00000000000E+00 -0.00000000000E+00 -0.13234495026E+03  0.13234495026E+03  0.00000000000E+00 0. -1.
         25    1    1    2    0    0  0.37570427311E+02  0.35918552453E+02 -0.81383108021E+02  0.15795534081E+03  0.12500000000E+03 0.  0.
         25    1    1    2    0    0 -0.37570427311E+02 -0.35918552453E+02  0.34877654224E+03  0.37412799393E+03  0.12500000000E+03 0.  0.
</event>
<event>
 4    0  0.2156764E-002  0.2298811E+03  0.7546771E-02  0.1126723E+00
         21   -1    0    0  502  501  0.00000000000E+00  0.00000000000E+00  0.17548977716E+04  0.17548977716E+04  0.00000000000E+00 0. -1.
         21   -1    0    0  501  502 -0.00000000000E+00 -0.00000000000E+00 -0.30113040801E+02  0.30113040801E+02  0.00000000000E+00 0. -1.
         25    1    1    2    0    0 -0.19262146984E+03 -0.38283196622E+01  0.82306210097E+03  0.85450214086E+03  0.12500000000E+03 0.  0.
         25    1    1    2    0    0  0.19262146984E+03  0.38283196622E+01  0.90172262985E+03  0.93050867157E+03  0.12500000000E+03 0.  0.
</event>
<event>
 4    0  0.2156764E-002  0.3341689E+03  0.7546771E-02  0.1069307E+00
         21   -1    0    0  502  501  0.00000000000E+00  0.00000000000E+00  0.42716371848E+03  0.42716371848E+03  0.00000000000E+00 0. -1.
         21   -1    0    0  501  502 -0.00000000000E+00 -0.00000000000E+00 -0.26141933954E+03  0.26141933954E+03  0.00000000000E+00 0. -1.
         25    1    1    2    0    0  0.41964393961E+02  0.30700057434E+03  0.88834914710E+02  0.34572677808E+03  0.12500000000E+03 0.  0.
         25    1    1    2    0    0 -0.41964393961E+02 -0.30700057434E+03  0.76909464234E+02  0.34285627994E+03  0.12500000000E+03 0.  0.
</event>
<event>
 4    0  0.2156764E-002  0.2009442E+03  0.7546771E-02  0.1148945E+00
         21   -1    0    0  502  501  0.00000000000E+00  0.00000000000E+00  0.49878825691E+03  0.49878825691E+03  0.00000000000E+00 0. -1.
         21   -1    0    0  501  502 -0.00000000000E+00 -0.00000000000E+00 -0.80953369716E+02  0.80953369716E+02  0.00000000000E+00 0. -1.
         25    1    1    2    0    0 -0.11119082695E+03 -0.30773473409E+02  0.36323038326E+03  0.40108816735E+03  0.12500000000E+03 0.  0.
         25    1    1    2    0    0  0.11119082695E+03  0.30773473409E+02  0.54604503935E+02  0.17865345928E+03  0.12500000000E+03 0.  0.
</event>
<event>
 4    0  0.2156764E-002  0.1707560E+03  0.7546771E-02  0.1177062E+00
         21   -1    0    0  502  501  0.00000000000E+00  0.00000000000E+00  0.17532659316E+04  0.17532659316E+04  0.00000000000E+00 0.  1.
         21   -1    0    0  501  502 -0.00000000000E+00 -0.00000000000E+00 -0.16630448674E+02  0.16630448674E+02  0.00000000000E+00 0.  1.
         25    1    1    2    0    0 -0.36460473254E+02  0.10357729732E+03  0.66928042412E+03  0.68965129503E+03  0.12500000000E+03 0.  0.
         25    1    1    2    0    0  0.36460473254E+02 -0.10357729732E+03  0.10673550588E+04  0.10802450853E+04  0.12500000000E+03 0.  0.
</event>
<event>
 4    0  0.2156764E-002  0.2215639E+03  0.7546771E-02  0.1132722E+00
         21   -1    0    0  502  501  0.00000000000E+00  0.00000000000E+00  0.99321082558E+02  0.99321082558E+02  0.00000000000E+00 0. -1.
         21   -1    0    0  501  502 -0.00000000000E+00 -0.00000000000E+00 -0.49426118284E+03  0.49426118284E+03  0.00000000000E+00 0. -1.
         25    1    1    2    0    0 -0.10625439451E+03  0.15834588636E+02 -0.39581448367E+03  0.42875964833E+03  0.12500000000E+03 0.  0.
         25    1    1    2    0    0  0.10625439451E+03 -0.15834588636E+02  0.87438338999E+00  0.16482261707E+03  0.12500000000E+03 0.  0.
</event>
<event>
 4    0  0.2156764E-002  0.3149593E+03  0.7546771E-02  0.1077993E+00
         21   -1    0    0  502  501  0.00000000000E+00  0.00000000000E+00  0.73523252026E+03  0.73523252026E+03  0.00000000000E+00 0.  1.
         21   -1    0    0  501  502 -0.00000000000E+00 -0.00000000000E+00 -0.13492247579E+03  0.13492247579E+03  0.00000000000E+00 0.  1.
         25    1    1    2    0    0  0.11949627148E+03  0.24586882079E+03  0.17025010751E+03  0.34545757343E+03  0.12500000000E+03 0.  0.
         25    1    1    2    0    0 -0.11949627148E+03 -0.24586882079E+03  0.43005993695E+03  0.52469742262E+03  0.12500000000E+03 0.  0.
</event>
<event>
 4    0  0.2156764E-002  0.1927137E+03  0.7546771E-02  0.1156036E+00
         21   -1    0    0  502  501  0.00000000000E+00  0.00000000000E+00  0.43593630223E+03  0.43593630223E+03  0.00000000000E+00 0.  1.
         21   -1    0    0  501  502 -0.00000000000E+00 -0.00000000000E+00 -0.85192675921E+02  0.85192675921E+02  0.00000000000E+00 0.  1.
         25    1    1    2    0    0  0.90673781208E+02  0.82866722284E+02  0.66994714905E+02  0.18762174737E+03  0.12500000000E+03 0.  0.
         25    1    1    2    0    0 -0.90673781208E+02 -0.82866722284E+02  0.28374891140E+03  0.33350723078E+03  0.12500000000E+03 0.  0.
</event>
<event>
 4    0  0.2156764E-002  0.1695620E+03  0.7546771E-02  0.1178305E+00
         21   -1    0    0  502  501  0.00000000000E+00  0.00000000000E+00  0.40350236197E+02  0.40350236197E+02  0.00000000000E+00 0.  1.
         21   -1    0    0  501  502 -0.00000000000E+00 -0.00000000000E+00 -0.71254290448E+03  0.71254290448E+03  0.00000000000E+00 0.  1.
         25    1    1    2    0    0  0.78668521898E+02  0.80291219933E+02 -0.28690905474E+03  0.33253153539E+03  0.12500000000E+03 0.  0.
         25    1    1    2    0    0 -0.78668521898E+02 -0.80291219933E+02 -0.38528361355E+03  0.42036160529E+03  0.12500000000E+03 0.  0.
</event>
<event>
 4    0  0.2156764E-002  0.1762275E+03  0.7546771E-02  0.1171505E+00
         21   -1    0    0  502  501  0.00000000000E+00  0.00000000000E+00  0.67057792231E+03  0.67057792231E+03  0.00000000000E+00 0.  1.
         21   -1    0    0  501  502 -0.00000000000E+00 -0.00000000000E+00 -0.46312467042E+02  0.46312467042E+02  0.00000000000E+00 0.  1.
         25    1    1    2    0    0  0.99873473052E+01 -0.66729086501E+02  0.99986321074E+02  0.17370890160E+03  0.12500000000E+03 0.  0.
         25    1    1    2    0    0 -0.99873473052E+01  0.66729086501E+02  0.52427913419E+03  0.54318148775E+03  0.12500000000E+03 0.  0.
</event>
<event>
 4    0  0.2156764E-002  0.2471200E+03  0.7546771E-02  0.1115139E+00
         21   -1    0    0  502  501  0.00000000000E+00  0.00000000000E+00  0.18326175802E+03  0.18326175802E+03  0.00000000000E+00 0. -1.
         21   -1    0    0  501  502 -0.00000000000E+00 -0.00000000000E+00 -0.33322993203E+03  0.33322993203E+03  0.00000000000E+00 0. -1.
         25    1    1    2    0    0  0.11917229947E+02  0.18649904282E+03  0.32197625339E+02  0.22712463631E+03  0.12500000000E+03 0.  0.
         25    1    1    2    0    0 -0.11917229947E+02 -0.18649904282E+03 -0.18216579935E+03  0.28936705374E+03  0.12500000000E+03 0.  0.
</event>
<event>
 4    0  0.2156764E-002  0.4128621E+03  0.7546771E-02  0.1039415E+00
         21   -1    0    0  502  501  0.00000000000E+00  0.00000000000E+00  0.10171369770E+04  0.10171369770E+04  0.00000000000E+00 0.  1.
         21   -1    0    0  501  502 -0.00000000000E+00 -0.00000000000E+00 -0.16758324709E+03  0.16758324709E+03  0.00000000000E+00 0. -1.
         25    1    1    2    0    0  0.10247290394E+03 -0.37030781499E+03  0.54653376354E+03  0.67967104439E+03  0.12500000000E+03 0.  0.
         25    1    1    2    0    0 -0.10247290394E+03  0.37030781499E+03  0.30301996634E+03  0.50504917967E+03  0.12500000000E+03 0.  0.
</event>
<event>
 4    0  0.2156764E-002  0.2316251E+03  0.7546771E-02  0.1125501E+00
         21   -1    0    0  502  501  0.00000000000E+00  0.00000000000E+00  0.13944847451E+03  0.13944847451E+03  0.00000000000E+00 0. -1.
         21   -1    0    0  501  502 -0.00000000000E+00 -0.00000000000E+00 -0.38473117825E+03  0.38473117825E+03  0.00000000000E+00 0. -1.
         25    1    1    2    0    0  0.11230210975E+03 -0.12784136394E+03 -0.14878723145E+02  0.21166377723E+03  0.12500000000E+03 0.  0.
         25    1    1    2    0    0 -0.11230210975E+03  0.12784136394E+03 -0.23040398060E+03  0.31251587554E+03  0.12500000000E+03 0.  0.
</event>
<event>
 4    0  0.2156764E-002  0.1894894E+03  0.7546771E-02  0.1158923E+00
         21   -1    0    0  502  501  0.00000000000E+00  0.00000000000E+00  0.10080589405E+03  0.10080589405E+03  0.00000000000E+00 0.  1.
         21   -1    0    0  501  502 -0.00000000000E+00 -0.00000000000E+00 -0.35619189487E+03  0.35619189487E+03  0.00000000000E+00 0.  1.
         25    1    1    2    0    0 -0.13965830316E+03  0.27507553302E+02 -0.12228199470E+03  0.22547503933E+03  0.12500000000E+03 0.  0.
         25    1    1    2    0    0  0.13965830316E+03 -0.27507553302E+02 -0.13310400612E+03  0.23152274959E+03  0.12500000000E+03 0.  0.
</event>
<event>
 4    0  0.2156764E-002  0.2311253E+03  0.7546771E-02  0.1125850E+00
         21   -1    0    0  502  501  0.00000000000E+00  0.00000000000E+00  0.91272179855E+03  0.91272179855E+03  0.00000000000E+00 0. -1.
         21   -1    0    0  501  502 -0.00000000000E+00 -0.00000000000E+00 -0.58527031906E+02  0.58527031906E+02  0.00000000000E+00 0. -1.
         25    1    1    2    0    0 -0.10000699220E+03 -0.50890239367E+01  0.76979404440E+02  0.17770235047E+03  0.12500000000E+03 0.  0.
         25    1    1    2    0    0  0.10000699220E+03  0.50890239367E+01  0.77721536220E+03  0.79354647999E+03  0.12500000000E+03 0.  0.
</event>
<event>
 4    0  0.2156764E-002  0.2295689E+03  0.7546771E-02  0.1126944E+00
         21   -1    0    0  502  501  0.00000000000E+00  0.00000000000E+00  0.17503982814E+04  0.17503982814E+04  0.00000000000E+00 0.  1.
         21   -1    0    0  501  502 -0.00000000000E+00 -0.00000000000E+00 -0.30108507651E+02  0.30108507651E+02  0.00000000000E+00 0.  1.
         25    1    1    2    0    0 -0.27492678976E+01  0.88067077222E+02  0.19619621395E+03  0.24875956852E+03  0.12500000000E+03 0.  0.
         25    1    1    2    0    0  0.27492678976E+01 -0.88067077222E+02  0.15240935598E+04  0.15317472205E+04  0.12500000000E+03 0.  0.
</event>
<event>
 4    0  0.2156764E-002  0.3741738E+03  0.7546771E-02  0.1053108E+00
         21   -1    0    0  502  501  0.00000000000E+00  0.00000000000E+00  0.54157952229E+03  0.54157952229E+03  0.00000000000E+00 0.  1.
         21   -1    0    0  501  502 -0.00000000000E+00 -0.00000000000E+00 -0.25851420587E+03  0.25851420587E+03  0.00000000000E+00 0.  1.
         25    1    1    2    0    0  0.12895270822E+03  0.14972381161E+03 -0.17078827254E+03  0.28955078096E+03  0.12500000000E+03 0.  0.
         25    1    1    2    0    0 -0.12895270822E+03 -0.14972381161E+03  0.45385358896E+03  0.51054294719E+03  0.12500000000E+03 0.  0.
</event>
<event>
 4    0  0.2156764E-002  0.2245007E+03  0.7546771E-02  0.1130571E+00
         21   -1    0    0  502  501  0.00000000000E+00  0.00000000000E+00  0.48996869967E+03  0.48996869967E+03  0.00000000000E+00 0. -1.
         21   -1    0    0  501  502 -0.00000000000E+00 -0.00000000000E+00 -0.10286488590E+03  0.10286488590E+03  0.00000000000E+00 0. -1.
         25    1    1    2    0    0 -0.48453122270E+02 -0.15249046542E+02  0.43046089692E+03  0.45111176249E+03  0.12500000000E+03 0.  0.
         25    1    1    2    0    0  0.48453122270E+02  0.15249046542E+02 -0.43357083150E+02  0.14172182308E+03  0.12500000000E+03 0.  0.
</event>
<event>
 4    0  0.2156764E-002  0.1966964E+03  0.7546771E-02  0.1152557E+00
         21   -1    0    0  502  501  0.00000000000E+00  0.00000000000E+00  0.15715884175E+03  0.15715884175E+03  0.00000000000E+00 0.  1.
         21   -1    0    0  501  502 -0.00000000000E+00 -0.00000000000E+00 -0.24618060291E+03  0.24618060291E+03  0.00000000000E+00 0.  1.
         25    1    1    2    0    0  0.88341736762E+01 -0.72177244242E+02  0.92190190055E+02  0.17149818761E+03  0.12500000000E+03 0.  0.
         25    1    1    2    0    0 -0.88341736762E+01  0.72177244242E+02 -0.18121195121E+03  0.23184125705E+03  0.12500000000E+03 0.  0.
</event>
<event>
 4    0  0.2156764E-002  0.2569212E+03  0.7546771E-02  0.1109007E+00
         21   -1    0    0  502  501  0.00000000000E+00  0.00000000000E+00  0.17549583822E+04  0.17549583822E+04  0.00000000000E+00 0. -1.
         21   -1    0    0  501  502 -0.00000000000E+00 -0.00000000000E+00 -0.37612565577E+02  0.37612565577E+02  0.00000000000E+00 0. -1.
         25    1    1    2    0    0 -0.19530629176E+03 -0.10776180318E+03  0.77136587010E+03  0.81264227024E+03  0.12500000000E+03 0.  0.
         25    1    1    2    0    0  0.19530629176E+03  0.10776180318E+03  0.94597994648E+03  0.97992867749E+03  0.12500000000E+03 0.  0.
</event>
<event>
 4    0  0.2156764E-002  0.1666406E+03  0.7546771E-02  0.1181397E+00
         21   -1    0    0  502  501  0.00000000000E+00  0.00000000000E+00  0.34840446470E+02  0.34840446470E+02  0.00000000000E+00 0. -1.
         21   -1    0    0  501  502 -0.00000000000E+00 -0.00000000000E+00 -0.79703581091E+03  0.79703581091E+03  0.00000000000E+00 0. -1.
         25    1    1    2    0    0 -0.88229817933E+02  0.61872348370E+02 -0.32355941353E+03  0.36321946857E+03  0.12500000000E+03 0.  0.
         25    1    1    2    0    0  0.88229817933E+02 -0.61872348370E+02 -0.43863595091E+03  0.46865678881E+03  0.12500000000E+03 0.  0.
</event>
<event>
 4    0  0.2156764E-002  0.2559791E+03  0.7546771E-02  0.1109583E+00
         21   -1    0    0  502  501  0.00000000000E+00  0.00000000000E+00  0.36668021586E+03  0.36668021586E+03  0.00000000000E+00 0. -1.
         21   -1    0    0  501  502 -0.00000000000E+00 -0.00000000000E+00 -0.17869872332E+03  0.17869872332E+03  0.00000000000E+00 0. -1.
         25    1    1    2    0    0 -0.20979238091E+03  0.54906640315E+02  0.15108722933E+03  0.29236951466E+03  0.12500000000E+03 0.  0.
         25    1    1    2    0    0  0.20979238091E+03 -0.54906640315E+02  0.36894263212E+02  0.25300942452E+03  0.12500000000E+03 0.  0.
</event>
