<event>
 5    0  0.5778896E-005  0.3400842E+03  0.7546771E-02  0.1066760E+00
         21   -1    0    0  502  501  0.00000000000E+00  0.00000000000E+00  0.29504333650E+03  0.29504333650E+03  0.00000000000E+00 0.  1.
         21   -1    0    0  501  502 -0.00000000000E+00 -0.00000000000E+00 -0.39200104568E+03  0.39200104568E+03  0.00000000000E+00 0.  1.
         25    1    1    2    0    0  0.76780421446E+02 -0.12879703170E+03 -0.12908414676E+03  0.23403338530E+03  0.12500000000E+03 0.  0.
         25    1    1    2    0    0 -0.19664797763E+02  0.24195696574E+03  0.32602125077E+02  0.27498686532E+03  0.12500000000E+03 0.  0.
         25    1    1    2    0    0 -0.57115623682E+02 -0.11315993404E+03 -0.47568749801E+00  0.17802413156E+03  0.12500000000E+03 0.  0.
</event>
<event>
 5    0  0.7291920E-005  0.2807082E+03  0.7546771E-02  0.1095303E+00
         21   -1    0    0  502  501  0.00000000000E+00  0.00000000000E+00  0.24070000554E+03  0.24070000554E+03  0.00000000000E+00 0.  1.
         21   -1    0    0  501  502 -0.00000000000E+00 -0.00000000000E+00 -0.32736638901E+03  0.32736638901E+03  0.00000000000E+00 0.  1.
         25    1    1    2    0    0 -0.89420000221E+02 -0.16948807484E+03  0.53971769315E+00  0.22879561895E+03  0.12500000000E+03 0.  0.
         25    1    1    2    0    0  0.30264780080E+02  0.74684836070E+02  0.32516009937E+01  0.14875938478E+03  0.12500000000E+03 0.  0.
         25    1    1    2    0    0  0.59155220142E+02  0.94803238773E+02 -0.90457702159E+02  0.19051139082E+03  0.12500000000E+03 0.  0.
</event>
<event>
 5    0  0.5778896E-005  0.2665740E+03  0.7546771E-02  0.1103257E+00
         21   -1    0    0  502  501  0.00000000000E+00  0.00000000000E+00  0.68732978685E+02  0.68732978685E+02  0.00000000000E+00 0.  1.
         21   -1    0    0  501  502 -0.00000000000E+00 -0.00000000000E+00 -0.10338803177E+04  0.10338803177E+04  0.00000000000E+00 0.  1.
         25    1    1    2    0    0  0.74918314304E+02  0.10361175317E+03 -0.67092271991E+03  0.69434173525E+03  0.12500000000E+03 0.  0.
         25    1    1    2    0    0 -0.37204107906E+02 -0.32668421071E+02 -0.13827104729E+03  0.19286071114E+03  0.12500000000E+03 0.  0.
         25    1    1    2    0    0 -0.37714206398E+02 -0.70943332094E+02 -0.15595357177E+03  0.21541084996E+03  0.12500000000E+03 0.  0.
</event>
<event>
 5    0  0.5778896E-005  0.2955686E+03  0.7546771E-02  0.1087477E+00
         21   -1    0    0  502  501  0.00000000000E+00  0.00000000000E+00  0.23517663206E+03  0.23517663206E+03  0.00000000000E+00 0. -1.
         21   -1    0    0  501  502 -0.00000000000E+00 -0.00000000000E+00 -0.37146874739E+03  0.37146874739E+03  0.00000000000E+00 0. -1.
         25    1    1    2    0    0 -0.18277976214E+03 -0.15342984235E+02 -0.32510373693E+02  0.22433406565E+03  0.12500000000E+03 0.  0.
         25    1    1    2    0    0  0.20092265863E+03  0.17299491948E+02 -0.39354664127E+02  0.24050566888E+03  0.12500000000E+03 0.  0.
         25    1    1    2    0    0 -0.18142896493E+02 -0.19565077124E+01 -0.64427077502E+02  0.14180564492E+03  0.12500000000E+03 0.  0.
</event>
<event>
 5    0  0.5778896E-005  0.2675322E+03  0.7546771E-02  0.1102700E+00
         21   -1    0    0  502  501  0.00000000000E+00  0.00000000000E+00  0.19731280963E+03  0.19731280963E+03  0.00000000000E+00 0.  1.
         21   -1    0    0  501  502 -0.00000000000E+00 -0.00000000000E+00 -0.36274110743E+03  0.36274110743E+03  0.00000000000E+00 0.  1.
         25    1    1    2    0    0  0.31760995411E+02  0.14860621779E+02 -0.63035823428E+02  0.14431948567E+03  0.12500000000E+03 0.  0.
         25    1    1    2    0    0  0.64309141704E+02  0.12762869868E+03 -0.59231286798E+02  0.19889217121E+03  0.12500000000E+03 0.  0.
         25    1    1    2    0    0 -0.96070137115E+02 -0.14248932046E+03 -0.43161187572E+02  0.21684226019E+03  0.12500000000E+03 0.  0.
</event>
<event>
 5    0  0.5778896E-005  0.3025731E+03  0.7546771E-02  0.1083961E+00
         21   -1    0    0  502  501  0.00000000000E+00  0.00000000000E+00  0.11522575146E+03  0.11522575146E+03  0.00000000000E+00 0. -1.
         21   -1    0    0  501  502 -0.00000000000E+00 -0.00000000000E+00 -0.79453138561E+03  0.79453138561E+03  0.00000000000E+00 0. -1.
         25    1    1    2    0    0 -0.42530894569E+02 -0.78774915896E+02 -0.15916067247E+03  0.22129501582E+03  0.12500000000E+03 0.  0.
         25    1    1    2    0    0  0.12432123340E+02 -0.44357158665E+02  0.56590472368E+01  0.13333844169E+03  0.12500000000E+03 0.  0.
         25    1    1    2    0    0  0.30098771229E+02  0.12313207456E+03 -0.52580400892E+03  0.55512367957E+03  0.12500000000E+03 0.  0.
</event>
<event>
 5    0  0.5778896E-005  0.2929060E+03  0.7546771E-02  0.1088842E+00
         21   -1    0    0  502  501  0.00000000000E+00  0.00000000000E+00  0.51745040936E+02  0.51745040936E+02  0.00000000000E+00 0. -1.
         21   -1    0    0  501  502 -0.00000000000E+00 -0.00000000000E+00 -0.16580120907E+04  0.16580120907E+04  0.00000000000E+00 0. -1.
         25    1    1    2    0    0  0.99617632233E+02  0.78183663826E+02 -0.11580030266E+04  0.11715939431E+04  0.12500000000E+03 0.  0.
         25    1    1    2    0    0 -0.10223496043E+03 -0.50176658772E+02 -0.23850739850E+03  0.29237042149E+03  0.12500000000E+03 0.  0.
         25    1    1    2    0    0  0.26173282001E+01 -0.28007005054E+02 -0.20975662472E+03  0.24579276709E+03  0.12500000000E+03 0.  0.
</event>
<event>
 5    0  0.6289588E-005  0.2657978E+03  0.7546771E-02  0.1103709E+00
         21   -1    0    0  502  501  0.00000000000E+00  0.00000000000E+00  0.46343605616E+03  0.46343605616E+03  0.00000000000E+00 0. -1.
         21   -1    0    0  501  502 -0.00000000000E+00 -0.00000000000E+00 -0.15244488578E+03  0.15244488578E+03  0.00000000000E+00 0. -1.
         25    1    1    2    0    0 -0.36692930090E+02  0.19074976788E+02  0.27696797624E+03  0.30666999482E+03  0.12500000000E+03 0.  0.
         25    1    1    2    0    0 -0.55941991927E+02  0.13890158116E+02  0.56111168456E+02  0.14864691782E+03  0.12500000000E+03 0.  0.
         25    1    1    2    0    0  0.92634922016E+02 -0.32965134903E+02 -0.22087974316E+02  0.16056402930E+03  0.12500000000E+03 0.  0.
</event>
<event>
 5    0  0.5778896E-005  0.2791154E+03  0.7546771E-02  0.1096173E+00
         21   -1    0    0  502  501  0.00000000000E+00  0.00000000000E+00  0.28108435819E+03  0.28108435819E+03  0.00000000000E+00 0.  1.
         21   -1    0    0  501  502 -0.00000000000E+00 -0.00000000000E+00 -0.27716028535E+03  0.27716028535E+03  0.00000000000E+00 0.  1.
         25    1    1    2    0    0  0.10054557042E+03  0.98546153761E+02 -0.99923381929E+02  0.21314417282E+03  0.12500000000E+03 0.  0.
         25    1    1    2    0    0 -0.15268344790E+02  0.80522726101E+00 -0.17542613146E+02  0.12714760721E+03  0.12500000000E+03 0.  0.
         25    1    1    2    0    0 -0.85277225632E+02 -0.99351381022E+02  0.12139006792E+03  0.21795286351E+03  0.12500000000E+03 0.  0.
</event>
<event>
 5    0  0.5778896E-005  0.3441193E+03  0.7546771E-02  0.1065055E+00
         21   -1    0    0  502  501  0.00000000000E+00  0.00000000000E+00  0.12866958399E+03  0.12866958399E+03  0.00000000000E+00 0.  1.
         21   -1    0    0  501  502 -0.00000000000E+00 -0.00000000000E+00 -0.92032684346E+03  0.92032684346E+03  0.00000000000E+00 0.  1.
         25    1    1    2    0    0  0.11802542890E+03  0.15616870305E+03 -0.29584133398E+03  0.37611934352E+03  0.12500000000E+03 0.  0.
         25    1    1    2    0    0  0.10792177478E+03 -0.89331261152E+02 -0.21899030183E+03  0.28845959160E+03  0.12500000000E+03 0.  0.
         25    1    1    2    0    0 -0.22594720368E+03 -0.66837441896E+02 -0.27682562367E+03  0.38441749233E+03  0.12500000000E+03 0.  0.
</event>
<event>
 5    0  0.5778896E-005  0.3527085E+03  0.7546771E-02  0.1061509E+00
         21   -1    0    0  502  501  0.00000000000E+00  0.00000000000E+00  0.91162565848E+03  0.91162565848E+03  0.00000000000E+00 0. -1.
         21   -1    0    0  501  502 -0.00000000000E+00 -0.00000000000E+00 -0.13646313101E+03  0.13646313101E+03  0.00000000000E+00 0. -1.
         25    1    1    2    0    0  0.29811940943E+02  0.40251751897E+01  0.67885754916E+02  0.14539061035E+03  0.12500000000E+03 0.  0.
         25    1    1    2    0    0 -0.14750552223E+03  0.89304120639E+02  0.52454015231E+02  0.21933884464E+03  0.12500000000E+03 0.  0.
         25    1    1    2    0    0  0.11769358129E+03 -0.93329295829E+02  0.65482275732E+03  0.68335933449E+03  0.12500000000E+03 0.  0.
</event>
<event>
 5    0  0.5778896E-005  0.3185722E+03  0.7546771E-02  0.1076308E+00
         21   -1    0    0  502  501  0.00000000000E+00  0.00000000000E+00  0.77222212936E+03  0.77222212936E+03  0.00000000000E+00 0. -1.
         21   -1    0    0  501  502 -0.00000000000E+00 -0.00000000000E+00 -0.13142360444E+03  0.13142360444E+03  0.00000000000E+00 0. -1.
         25    1    1    2    0    0 -0.36483205895E+02  0.95767201140E+02  0.17383279554E+01  0.16164901147E+03  0.12500000000E+03 0.  0.
         25    1    1    2    0    0 -0.13378281249E+02  0.80079421914E+02  0.19165529312E+03  0.24279300567E+03  0.12500000000E+03 0.  0.
         25    1    1    2    0    0  0.49861487143E+02 -0.17584662305E+03  0.44740490384E+03  0.49920371666E+03  0.12500000000E+03 0.  0.
</event>
<event>
 5    0  0.6354976E-005  0.3175273E+03  0.7546771E-02  0.1076793E+00
         21   -1    0    0  502  501  0.00000000000E+00  0.00000000000E+00  0.18490345954E+03  0.18490345954E+03  0.00000000000E+00 0. -1.
         21   -1    0    0  501  502 -0.00000000000E+00 -0.00000000000E+00 -0.54527677690E+03  0.54527677690E+03  0.00000000000E+00 0. -1.
         25    1    1    2    0    0  0.10636764726E+03 -0.24489049334E+02 -0.22737200341E+03  0.28149035127E+03  0.12500000000E+03 0.  0.
         25    1    1    2    0    0  0.64296098020E+02  0.93129714847E+02  0.32173511189E+02  0.17166032398E+03  0.12500000000E+03 0.  0.
         25    1    1    2    0    0 -0.17066374528E+03 -0.68640665513E+02 -0.16517482514E+03  0.27702956120E+03  0.12500000000E+03 0.  0.
</event>
<event>
 5    0  0.5778896E-005  0.3911007E+03  0.7546771E-02  0.1046905E+00
         21   -1    0    0  502  501  0.00000000000E+00  0.00000000000E+00  0.54874330056E+03  0.54874330056E+03  0.00000000000E+00 0. -1.
         21   -1    0    0  501  502 -0.00000000000E+00 -0.00000000000E+00 -0.27874559001E+03  0.27874559001E+03  0.00000000000E+00 0. -1.
         25    1    1    2    0    0 -0.64042197758E+02 -0.18476277822E+03  0.20819826235E+01  0.23209485552E+03  0.12500000000E+03 0.  0.
         25    1    1    2    0    0  0.13522635339E+03  0.29405000111E+03  0.21058902012E+03  0.40586242151E+03  0.12500000000E+03 0.  0.
         25    1    1    2    0    0 -0.71184155628E+02 -0.10928722289E+03  0.57326707803E+02  0.18953161353E+03  0.12500000000E+03 0.  0.
</event>
<event>
 5    0  0.5778896E-005  0.3274413E+03  0.7546771E-02  0.1072275E+00
         21   -1    0    0  502  501  0.00000000000E+00  0.00000000000E+00  0.36372928511E+03  0.36372928511E+03  0.00000000000E+00 0. -1.
         21   -1    0    0  501  502 -0.00000000000E+00 -0.00000000000E+00 -0.29477365489E+03  0.29477365489E+03  0.00000000000E+00 0. -1.
         25    1    1    2    0    0 -0.33775068669E+02 -0.18985277336E+01  0.17137188397E+03  0.21479683956E+03  0.12500000000E+03 0.  0.
         25    1    1    2    0    0  0.14297072603E+03  0.12287669440E+03 -0.59333061230E+02  0.23384764845E+03  0.12500000000E+03 0.  0.
         25    1    1    2    0    0 -0.10919565736E+03 -0.12097816667E+03 -0.43083192514E+02  0.20985845200E+03  0.12500000000E+03 0.  0.
</event>
<event>
 5    0  0.5778896E-005  0.3290448E+03  0.7546771E-02  0.1071560E+00
         21   -1    0    0  502  501  0.00000000000E+00  0.00000000000E+00  0.24269524351E+03  0.24269524351E+03  0.00000000000E+00 0. -1.
         21   -1    0    0  501  502 -0.00000000000E+00 -0.00000000000E+00 -0.44611703829E+03  0.44611703829E+03  0.00000000000E+00 0. -1.
         25    1    1    2    0    0 -0.89997327605E+01 -0.13836832924E+03 -0.29489093566E+03  0.34901640887E+03  0.12500000000E+03 0.  0.
         25    1    1    2    0    0  0.74866481301E+02  0.80349164373E+02  0.10011735302E+02  0.16669197066E+03  0.12500000000E+03 0.  0.
         25    1    1    2    0    0 -0.65866748541E+02  0.58019164867E+02  0.81457405582E+02  0.17310390227E+03  0.12500000000E+03 0.  0.
</event>
<event>
 5    0  0.5778896E-005  0.2396501E+03  0.7546771E-02  0.1120026E+00
         21   -1    0    0  502  501  0.00000000000E+00  0.00000000000E+00  0.12478498504E+03  0.12478498504E+03  0.00000000000E+00 0.  1.
         21   -1    0    0  501  502 -0.00000000000E+00 -0.00000000000E+00 -0.46024886604E+03  0.46024886604E+03  0.00000000000E+00 0.  1.
         25    1    1    2    0    0 -0.25033863447E+02  0.41223778188E+02 -0.50569410241E+02  0.14320740016E+03  0.12500000000E+03 0.  0.
         25    1    1    2    0    0  0.84090896733E+02 -0.88005403681E+02 -0.22338061900E+03  0.28344334696E+03  0.12500000000E+03 0.  0.
         25    1    1    2    0    0 -0.59057033286E+02  0.46781625493E+02 -0.61513851755E+02  0.15838310397E+03  0.12500000000E+03 0.  0.
</event>
<event>
 5    0  0.5778896E-005  0.2357758E+03  0.7546771E-02  0.1122639E+00
         21   -1    0    0  502  501  0.00000000000E+00  0.00000000000E+00  0.38736976253E+03  0.38736976253E+03  0.00000000000E+00 0. -1.
         21   -1    0    0  501  502 -0.00000000000E+00 -0.00000000000E+00 -0.14350685625E+03  0.14350685625E+03  0.00000000000E+00 0. -1.
         25    1    1    2    0    0 -0.15571956640E+02 -0.73132919209E+02  0.42270781922E+02  0.15166650490E+03  0.12500000000E+03 0.  0.
         25    1    1    2    0    0 -0.14908526257E+02  0.10811843705E+03  0.17880465597E+03  0.24394254566E+03  0.12500000000E+03 0.  0.
         25    1    1    2    0    0  0.30480482897E+02 -0.34985517836E+02  0.22787468386E+02  0.13526756822E+03  0.12500000000E+03 0.  0.
</event>
<event>
 5    0  0.5778896E-005  0.2871094E+03  0.7546771E-02  0.1091868E+00
         21   -1    0    0  502  501  0.00000000000E+00  0.00000000000E+00  0.98721218654E+03  0.98721218654E+03  0.00000000000E+00 0.  1.
         21   -1    0    0  501  502 -0.00000000000E+00 -0.00000000000E+00 -0.83499572999E+02  0.83499572999E+02  0.00000000000E+00 0.  1.
         25    1    1    2    0    0 -0.87090002693E+02  0.60106373709E+02  0.14568063353E+03  0.21919236236E+03  0.12500000000E+03 0.  0.
         25    1    1    2    0    0  0.29310899880E+02 -0.89521655181E+01  0.67100668711E+02  0.14514396254E+03  0.12500000000E+03 0.  0.
         25    1    1    2    0    0  0.57779102813E+02 -0.51154208190E+02  0.69093131129E+03  0.70637543464E+03  0.12500000000E+03 0.  0.
</event>
<event>
 5    0  0.5778896E-005  0.2470354E+03  0.7546771E-02  0.1115193E+00
         21   -1    0    0  502  501  0.00000000000E+00  0.00000000000E+00  0.49125423733E+02  0.49125423733E+02  0.00000000000E+00 0.  1.
         21   -1    0    0  501  502 -0.00000000000E+00 -0.00000000000E+00 -0.12422584809E+04  0.12422584809E+04  0.00000000000E+00 0.  1.
         25    1    1    2    0    0 -0.33870328194E+02  0.22215819654E+02 -0.42130925258E+03  0.44132440232E+03  0.12500000000E+03 0.  0.
         25    1    1    2    0    0  0.91175143612E+02  0.83620282692E+02 -0.47119033220E+03  0.50294193268E+03  0.12500000000E+03 0.  0.
         25    1    1    2    0    0 -0.57304815418E+02 -0.10583610235E+03 -0.30063347242E+03  0.34711756966E+03  0.12500000000E+03 0.  0.
</event>
<event>
 5    0  0.5778896E-005  0.3520720E+03  0.7546771E-02  0.1061768E+00
         21   -1    0    0  502  501  0.00000000000E+00  0.00000000000E+00  0.42767823004E+02  0.42767823004E+02  0.00000000000E+00 0. -1.
         21   -1    0    0  501  502 -0.00000000000E+00 -0.00000000000E+00 -0.28983161536E+04  0.28983161536E+04  0.00000000000E+00 0. -1.
         25    1    1    2    0    0  0.81856282947E+02  0.13322246136E+02 -0.27124358736E+03  0.30996131530E+03  0.12500000000E+03 0.  0.
         25    1    1    2    0    0  0.77438756017E+02 -0.17866277036E+03 -0.13103218023E+04  0.13305958711E+04  0.12500000000E+03 0.  0.
         25    1    1    2    0    0 -0.15929503896E+03  0.16534052423E+03 -0.12739829409E+04  0.13005267902E+04  0.12500000000E+03 0.  0.
</event>
<event>
 5    0  0.5778896E-005  0.4870388E+03  0.7546771E-02  0.1017218E+00
         21   -1    0    0  502  501  0.00000000000E+00  0.00000000000E+00  0.72583733891E+03  0.72583733891E+03  0.00000000000E+00 0.  1.
         21   -1    0    0  501  502 -0.00000000000E+00 -0.00000000000E+00 -0.32680430568E+03  0.32680430568E+03  0.00000000000E+00 0.  1.
         25    1    1    2    0    0  0.27138212038E+03 -0.88510714392E+02 -0.98149812757E+02  0.32671208666E+03  0.12500000000E+03 0.  0.
         25    1    1    2    0    0 -0.10624331913E+02 -0.91667253850E+02  0.28485509980E+03  0.32447371194E+03  0.12500000000E+03 0.  0.
         25    1    1    2    0    0 -0.26075778847E+03  0.18017796824E+03  0.21232774619E+03  0.40145584600E+03  0.12500000000E+03 0.  0.
</event>
<event>
 5    0  0.5778896E-005  0.2313089E+03  0.7546771E-02  0.1125722E+00
         21   -1    0    0  502  501  0.00000000000E+00  0.00000000000E+00  0.59680259565E+03  0.59680259565E+03  0.00000000000E+00 0. -1.
         21   -1    0    0  501  502 -0.00000000000E+00 -0.00000000000E+00 -0.89650730738E+02  0.89650730738E+02  0.00000000000E+00 0. -1.
         25    1    1    2    0    0  0.81127593126E+00  0.74089158334E+02  0.10602130690E+03  0.17987601026E+03  0.12500000000E+03 0.  0.
         25    1    1    2    0    0 -0.38026683607E+01 -0.36903762105E+02  0.33674008118E+03  0.36110279730E+03  0.12500000000E+03 0.  0.
         25    1    1    2    0    0  0.29913924295E+01 -0.37185396229E+02  0.64390476832E+02  0.14547451883E+03  0.12500000000E+03 0.  0.
</event>
<event>
 5    0  0.5778896E-005  0.2390173E+03  0.7546771E-02  0.1120449E+00
         21   -1    0    0  502  501  0.00000000000E+00  0.00000000000E+00  0.68495989885E+03  0.68495989885E+03  0.00000000000E+00 0.  1.
         21   -1    0    0  501  502 -0.00000000000E+00 -0.00000000000E+00 -0.83405270010E+02  0.83405270010E+02  0.00000000000E+00 0.  1.
         25    1    1    2    0    0  0.36401562625E+02 -0.53411889719E+01  0.17024670237E+03  0.21438876306E+03  0.12500000000E+03 0.  0.
         25    1    1    2    0    0 -0.26155413377E+02 -0.11591687454E+03  0.23239480314E+03  0.28940140286E+03  0.12500000000E+03 0.  0.
         25    1    1    2    0    0 -0.10246149248E+02  0.12125806352E+03  0.19891312333E+03  0.26457500293E+03  0.12500000000E+03 0.  0.
</event>
<event>
 5    0  0.5778896E-005  0.2934841E+03  0.7546771E-02  0.1088544E+00
         21   -1    0    0  502  501  0.00000000000E+00  0.00000000000E+00  0.18904374957E+03  0.18904374957E+03  0.00000000000E+00 0.  1.
         21   -1    0    0  501  502 -0.00000000000E+00 -0.00000000000E+00 -0.45562412591E+03  0.45562412591E+03  0.00000000000E+00 0.  1.
         25    1    1    2    0    0  0.98635546856E+01 -0.22245946974E+02 -0.23333340842E+03  0.26582259376E+03  0.12500000000E+03 0.  0.
         25    1    1    2    0    0 -0.11916116351E+03  0.18764896787E+02  0.65468548136E+02  0.18564114586E+03  0.12500000000E+03 0.  0.
         25    1    1    2    0    0  0.10929760882E+03  0.34810501866E+01 -0.98715516057E+02  0.19320413586E+03  0.12500000000E+03 0.  0.
</event>
<event>
 5    0  0.5778896E-005  0.3250705E+03  0.7546771E-02  0.1073339E+00
         21   -1    0    0  502  501  0.00000000000E+00  0.00000000000E+00  0.14730532349E+04  0.14730532349E+04  0.00000000000E+00 0. -1.
         21   -1    0    0  501  502 -0.00000000000E+00 -0.00000000000E+00 -0.71735934807E+02  0.71735934807E+02  0.00000000000E+00 0. -1.
         25    1    1    2    0    0  0.60024022363E+02  0.69955753431E+02  0.69987139278E+03  0.71689724307E+03  0.12500000000E+03 0.  0.
         25    1    1    2    0    0 -0.17325827169E+03  0.44387403135E+02  0.24533475675E+03  0.32833338717E+03  0.12500000000E+03 0.  0.
         25    1    1    2    0    0  0.11323424932E+03 -0.11434315657E+03  0.45611115056E+03  0.49955853945E+03  0.12500000000E+03 0.  0.
</event>
<event>
 5    0  0.5778896E-005  0.2381065E+03  0.7546771E-02  0.1121061E+00
         21   -1    0    0  502  501  0.00000000000E+00  0.00000000000E+00  0.81134948805E+03  0.81134948805E+03  0.00000000000E+00 0.  1.
         21   -1    0    0  501  502 -0.00000000000E+00 -0.00000000000E+00 -0.69877021503E+02  0.69877021503E+02  0.00000000000E+00 0.  1.
         25    1    1    2    0    0  0.14116725142E+02 -0.10080905451E+03  0.25538951332E+03  0.30201084569E+03  0.12500000000E+03 0.  0.
         25    1    1    2    0    0  0.47188495308E+02  0.98972477203E+02  0.33350407593E+03  0.37265570436E+03  0.12500000000E+03 0.  0.
         25    1    1    2    0    0 -0.61305220450E+02  0.18365773121E+01  0.15257887730E+03  0.20655995950E+03  0.12500000000E+03 0.  0.
</event>
<event>
 5    0  0.5778896E-005  0.4444299E+03  0.7546771E-02  0.1029396E+00
         21   -1    0    0  502  501  0.00000000000E+00  0.00000000000E+00  0.87034683645E+03  0.87034683645E+03  0.00000000000E+00 0.  1.
         21   -1    0    0  501  502 -0.00000000000E+00 -0.00000000000E+00 -0.22694162057E+03  0.22694162057E+03  0.00000000000E+00 0.  1.
         25    1    1    2    0    0 -0.26867716103E+03 -0.93105154184E+02  0.34134789592E+03  0.46151855070E+03  0.12500000000E+03 0.  0.
         25    1    1    2    0    0  0.30518794420E+03 -0.76374916124E+02  0.13480845415E+03  0.36437772765E+03  0.12500000000E+03 0.  0.
         25    1    1    2    0    0 -0.36510783178E+02  0.16948007031E+03  0.16724886582E+03  0.27139217866E+03  0.12500000000E+03 0.  0.
</event>
<event>
 5    0  0.5778896E-005  0.2723456E+03  0.7546771E-02  0.1099945E+00
         21   -1    0    0  502  501  0.00000000000E+00  0.00000000000E+00  0.15284737423E+03  0.15284737423E+03  0.00000000000E+00 0. -1.
         21   -1    0    0  501  502 -0.00000000000E+00 -0.00000000000E+00 -0.48526928719E+03  0.48526928719E+03  0.00000000000E+00 0. -1.
         25    1    1    2    0    0  0.69411815041E+02 -0.69576022343E+02 -0.26581132738E+03  0.30974099619E+03  0.12500000000E+03 0.  0.
         25    1    1    2    0    0 -0.37015265767E+02  0.10911353822E+03  0.14870021719E+02  0.17065172624E+03  0.12500000000E+03 0.  0.
         25    1    1    2    0    0 -0.32396549274E+02 -0.39537515874E+02 -0.81480607299E+02  0.15772393900E+03  0.12500000000E+03 0.  0.
</event>
<event>
 5    0  0.5778896E-005  0.2215623E+03  0.7546771E-02  0.1132724E+00
         21   -1    0    0  502  501  0.00000000000E+00  0.00000000000E+00  0.83273865260E+03  0.83273865260E+03  0.00000000000E+00 0.  1.
         21   -1    0    0  501  502 -0.00000000000E+00 -0.00000000000E+00 -0.58949893945E+02  0.58949893945E+02  0.00000000000E+00 0.  1.
         25    1    1    2    0    0 -0.57980179720E+02 -0.37107427768E+02  0.39914998619E+03  0.42389193659E+03  0.12500000000E+03 0.  0.
         25    1    1    2    0    0  0.70889239222E+02  0.53250710973E+02  0.19641620681E+03  0.24912898016E+03  0.12500000000E+03 0.  0.
         25    1    1    2    0    0 -0.12909059501E+02 -0.16143283205E+02  0.17822256565E+03  0.21866762979E+03  0.12500000000E+03 0.  0.
</event>
<event>
 5    0  0.5778896E-005  0.2533407E+03  0.7546771E-02  0.1111212E+00
         21   -1    0    0  502  501  0.00000000000E+00  0.00000000000E+00  0.25697220097E+03  0.25697220097E+03  0.00000000000E+00 0.  1.
         21   -1    0    0  501  502 -0.00000000000E+00 -0.00000000000E+00 -0.24976051629E+03  0.24976051629E+03  0.00000000000E+00 0.  1.
         25    1    1    2    0    0  0.31552026262E+02  0.14234626194E+02  0.66559844159E+02  0.14578534837E+03  0.12500000000E+03 0.  0.
         25    1    1    2    0    0 -0.80138091539E+02  0.70480969964E+02 -0.10603066007E+03  0.19559443172E+03  0.12500000000E+03 0.  0.
         25    1    1    2    0    0  0.48586065277E+02 -0.84715596158E+02  0.46682500602E+02  0.16535293718E+03  0.12500000000E+03 0.  0.
</event>
<event>
 5    0  0.5778896E-005  0.2040622E+03  0.7546771E-02  0.1146356E+00
         21   -1    0    0  502  501  0.00000000000E+00  0.00000000000E+00  0.23823011512E+03  0.23823011512E+03  0.00000000000E+00 0. -1.
         21   -1    0    0  501  502 -0.00000000000E+00 -0.00000000000E+00 -0.17479473816E+03  0.17479473816E+03  0.00000000000E+00 0. -1.
         25    1    1    2    0    0 -0.56686994043E+01 -0.50246827271E+02  0.53209885100E+01  0.13494513968E+03  0.12500000000E+03 0.  0.
         25    1    1    2    0    0  0.35295491459E+02  0.12324601430E+02  0.61176108427E+02  0.14410129687E+03  0.12500000000E+03 0.  0.
         25    1    1    2    0    0 -0.29626792055E+02  0.37922225841E+02 -0.30617199804E+01  0.13397841673E+03  0.12500000000E+03 0.  0.
</event>
<event>
 5    0  0.5778896E-005  0.2655325E+03  0.7546771E-02  0.1103864E+00
         21   -1    0    0  502  501  0.00000000000E+00  0.00000000000E+00  0.35113362307E+02  0.35113362307E+02  0.00000000000E+00 0.  1.
         21   -1    0    0  501  502 -0.00000000000E+00 -0.00000000000E+00 -0.20079969035E+04  0.20079969035E+04  0.00000000000E+00 0.  1.
         25    1    1    2    0    0 -0.29257783561E+02 -0.86964704980E+02 -0.91078087054E+03  0.92388617911E+03  0.12500000000E+03 0.  0.
         25    1    1    2    0    0 -0.79554848697E+02  0.11030400464E+03 -0.51703799139E+03  0.54904392532E+03  0.12500000000E+03 0.  0.
         25    1    1    2    0    0  0.10881263226E+03 -0.23339299656E+02 -0.54506467928E+03  0.57018016139E+03  0.12500000000E+03 0.  0.
</event>
<event>
 5    0  0.5778896E-005  0.5429348E+03  0.7546771E-02  0.1003143E+00
         21   -1    0    0  502  501  0.00000000000E+00  0.00000000000E+00  0.75778491127E+03  0.75778491127E+03  0.00000000000E+00 0.  1.
         21   -1    0    0  501  502 -0.00000000000E+00 -0.00000000000E+00 -0.38899976230E+03  0.38899976230E+03  0.00000000000E+00 0.  1.
         25    1    1    2    0    0  0.31408026756E+03 -0.28132897211E+03  0.15685747520E+03  0.46692790937E+03  0.12500000000E+03 0.  0.
         25    1    1    2    0    0 -0.36386250332E+03  0.29100204067E+03  0.75979919511E+02  0.48834010399E+03  0.12500000000E+03 0.  0.
         25    1    1    2    0    0  0.49782235758E+02 -0.96730685527E+01  0.13594775425E+03  0.19151666021E+03  0.12500000000E+03 0.  0.
</event>
<event>
 5    0  0.5778896E-005  0.3752969E+03  0.7546771E-02  0.1052686E+00
         21   -1    0    0  502  501  0.00000000000E+00  0.00000000000E+00  0.74728450612E+03  0.74728450612E+03  0.00000000000E+00 0.  1.
         21   -1    0    0  501  502 -0.00000000000E+00 -0.00000000000E+00 -0.18847940603E+03  0.18847940603E+03  0.00000000000E+00 0.  1.
         25    1    1    2    0    0 -0.20458650562E+02  0.90274645515E+02  0.28374371526E+03  0.32357930087E+03  0.12500000000E+03 0.  0.
         25    1    1    2    0    0  0.15007133909E+03 -0.16042827398E+03 -0.26370783403E+02  0.25412409592E+03  0.12500000000E+03 0.  0.
         25    1    1    2    0    0 -0.12961268853E+03  0.70153628466E+02  0.30143216823E+03  0.35806051536E+03  0.12500000000E+03 0.  0.
</event>
<event>
 5    0  0.5778896E-005  0.2407117E+03  0.7546771E-02  0.1119320E+00
         21   -1    0    0  502  501  0.00000000000E+00  0.00000000000E+00  0.25313032850E+02  0.25313032850E+02  0.00000000000E+00 0. -1.
         21   -1    0    0  501  502 -0.00000000000E+00 -0.00000000000E+00 -0.22890235470E+04  0.22890235470E+04  0.00000000000E+00 0. -1.
         25    1    1    2    0    0  0.73608407270E+02  0.52593618983E+02 -0.41177530053E+03  0.43973649439E+03  0.12500000000E+03 0.  0.
         25    1    1    2    0    0 -0.39125110974E+02 -0.81450070388E+02 -0.84783016997E+03  0.86174583573E+03  0.12500000000E+03 0.  0.
         25    1    1    2    0    0 -0.34483296297E+02  0.28856451405E+02 -0.10041050437E+04  0.10128542497E+04  0.12500000000E+03 0.  0.
</event>
<event>
 5    0  0.5778896E-005  0.3230324E+03  0.7546771E-02  0.1074262E+00
         21   -1    0    0  502  501  0.00000000000E+00  0.00000000000E+00  0.25109806221E+03  0.25109806221E+03  0.00000000000E+00 0. -1.
         21   -1    0    0  501  502 -0.00000000000E+00 -0.00000000000E+00 -0.41557438454E+03  0.41557438454E+03  0.00000000000E+00 0. -1.
         25    1    1    2    0    0  0.17336361718E+03 -0.14729243876E+03 -0.16211302073E+03  0.30603208617E+03  0.12500000000E+03 0.  0.
         25    1    1    2    0    0 -0.58538368951E+02  0.11397422488E+03  0.38064698545E+02  0.18300487931E+03  0.12500000000E+03 0.  0.
         25    1    1    2    0    0 -0.11482524823E+03  0.33318213879E+02 -0.40428000142E+02  0.17763548126E+03  0.12500000000E+03 0.  0.
</event>
<event>
 5    0  0.5778896E-005  0.2394917E+03  0.7546771E-02  0.1120132E+00
         21   -1    0    0  502  501  0.00000000000E+00  0.00000000000E+00  0.83140974578E+02  0.83140974578E+02  0.00000000000E+00 0.  1.
         21   -1    0    0  501  502 -0.00000000000E+00 -0.00000000000E+00 -0.68986760783E+03  0.68986760783E+03  0.00000000000E+00 0.  1.
         25    1    1    2    0    0 -0.12995456555E+02 -0.10285704602E+03 -0.12935412881E+03  0.20761971112E+03  0.12500000000E+03 0.  0.
         25    1    1    2    0    0  0.24520694092E+02  0.84416314621E+02 -0.36578349738E+03  0.39642142421E+03  0.12500000000E+03 0.  0.
         25    1    1    2    0    0 -0.11525237537E+02  0.18440731398E+02 -0.11158900705E+03  0.16896744707E+03  0.12500000000E+03 0.  0.
</event>
<event>
 5    0  0.5778896E-005  0.4055602E+03  0.7546771E-02  0.1041871E+00
         21   -1    0    0  502  501  0.00000000000E+00  0.00000000000E+00  0.16130384641E+03  0.16130384641E+03  0.00000000000E+00 0.  1.
         21   -1    0    0  501  502 -0.00000000000E+00 -0.00000000000E+00 -0.10196848603E+04  0.10196848603E+04  0.00000000000E+00 0.  1.
         25    1    1    2    0    0 -0.11868438805E+03 -0.84226907177E+02  0.24726390578E+02  0.19343358098E+03  0.12500000000E+03 0.  0.
         25    1    1    2    0    0  0.12299256889E+03 -0.26151314879E+02 -0.75954038588E+03  0.77996003812E+03  0.12500000000E+03 0.  0.
         25    1    1    2    0    0 -0.43081808405E+01  0.11037822206E+03 -0.12356701863E+03  0.20759508766E+03  0.12500000000E+03 0.  0.
</event>
<event>
 5    0  0.5778896E-005  0.3514140E+03  0.7546771E-02  0.1062036E+00
         21   -1    0    0  502  501  0.00000000000E+00  0.00000000000E+00  0.20745452534E+03  0.20745452534E+03  0.00000000000E+00 0.  1.
         21   -1    0    0  501  502 -0.00000000000E+00 -0.00000000000E+00 -0.59527162308E+03  0.59527162308E+03  0.00000000000E+00 0.  1.
         25    1    1    2    0    0 -0.25189321742E+02 -0.19624156230E+03  0.43082171067E+02  0.23796286720E+03  0.12500000000E+03 0.  0.
         25    1    1    2    0    0 -0.56029598537E+02  0.69917469778E+02 -0.27383431609E+03  0.31406687371E+03  0.12500000000E+03 0.  0.
         25    1    1    2    0    0  0.81218920279E+02  0.12632409252E+03 -0.15706495271E+03  0.25069640750E+03  0.12500000000E+03 0.  0.
</event>
<event>
 5    0  0.5778896E-005  0.2589604E+03  0.7546771E-02  0.1107769E+00
         21   -1    0    0  502  501  0.00000000000E+00  0.00000000000E+00  0.56127061906E+03  0.56127061906E+03  0.00000000000E+00 0. -1.
         21   -1    0    0  501  502 -0.00000000000E+00 -0.00000000000E+00 -0.11947981865E+03  0.11947981865E+03  0.00000000000E+00 0. -1.
         25    1    1    2    0    0 -0.13291771765E+03 -0.32437189211E+02  0.17373892702E+03  0.25402658457E+03  0.12500000000E+03 0.  0.
         25    1    1    2    0    0  0.90394984316E+02  0.15251662257E+02  0.24744588358E+03  0.29199029383E+03  0.12500000000E+03 0.  0.
         25    1    1    2    0    0  0.42522733331E+02  0.17185526954E+02  0.20605989817E+02  0.13473355930E+03  0.12500000000E+03 0.  0.
</event>
<event>
 5    0  0.5778896E-005  0.3187958E+03  0.7546771E-02  0.1076205E+00
         21   -1    0    0  502  501  0.00000000000E+00  0.00000000000E+00  0.15477804582E+04  0.15477804582E+04  0.00000000000E+00 0.  1.
         21   -1    0    0  501  502 -0.00000000000E+00 -0.00000000000E+00 -0.65662275149E+02  0.65662275149E+02  0.00000000000E+00 0.  1.
         25    1    1    2    0    0  0.28196108607E+02  0.15724968333E+03  0.42243432917E+03  0.46861310898E+03  0.12500000000E+03 0.  0.
         25    1    1    2    0    0 -0.14850820777E+02 -0.49132294082E+02  0.91453723934E+03  0.92446627377E+03  0.12500000000E+03 0.  0.
         25    1    1    2    0    0 -0.13345287830E+02 -0.10811738925E+03  0.14514661449E+03  0.22036335055E+03  0.12500000000E+03 0.  0.
</event>
<event>
 5    0  0.5778896E-005  0.2468275E+03  0.7546771E-02  0.1115326E+00
         21   -1    0    0  502  501  0.00000000000E+00  0.00000000000E+00  0.26810691832E+04  0.26810691832E+04  0.00000000000E+00 0.  1.
         21   -1    0    0  501  502 -0.00000000000E+00 -0.00000000000E+00 -0.22723699449E+02  0.22723699449E+02  0.00000000000E+00 0.  1.
         25    1    1    2    0    0 -0.66442691500E+02 -0.24187573018E+02  0.39382191647E+03  0.41919013805E+03  0.12500000000E+03 0.  0.
         25    1    1    2    0    0  0.11072570882E+03  0.23999220095E+01  0.11698227675E+04  0.11816836504E+04  0.12500000000E+03 0.  0.
         25    1    1    2    0    0 -0.44283017321E+02  0.21787651008E+02  0.10947007997E+04  0.11029190942E+04  0.12500000000E+03 0.  0.
</event>
<event>
 5    0  0.5778896E-005  0.2362731E+03  0.7546771E-02  0.1122301E+00
         21   -1    0    0  502  501  0.00000000000E+00  0.00000000000E+00  0.22364597327E+03  0.22364597327E+03  0.00000000000E+00 0. -1.
         21   -1    0    0  501  502 -0.00000000000E+00 -0.00000000000E+00 -0.24961323974E+03  0.24961323974E+03  0.00000000000E+00 0. -1.
         25    1    1    2    0    0 -0.90934985480E+02  0.58228197558E+01 -0.56888031718E+02  0.16481603371E+03  0.12500000000E+03 0.  0.
         25    1    1    2    0    0  0.63694420215E+01 -0.16933070686E+02 -0.51181864563E+02  0.13627869215E+03  0.12500000000E+03 0.  0.
         25    1    1    2    0    0  0.84565543458E+02  0.11110250930E+02  0.82102629813E+02  0.17216448716E+03  0.12500000000E+03 0.  0.
</event>
<event>
 5    0  0.5778896E-005  0.2702227E+03  0.7546771E-02  0.1101152E+00
         21   -1    0    0  502  501  0.00000000000E+00  0.00000000000E+00  0.86609675075E+02  0.86609675075E+02  0.00000000000E+00 0. -1.
         21   -1    0    0  501  502 -0.00000000000E+00 -0.00000000000E+00 -0.84309636788E+03  0.84309636788E+03  0.00000000000E+00 0. -1.
         25    1    1    2    0    0  0.11506132806E+03  0.68908912329E+02 -0.17887110878E+03  0.25613945610E+03  0.12500000000E+03 0.  0.
         25    1    1    2    0    0 -0.25600574801E+02 -0.78044877950E+02 -0.44794202397E+03  0.47225358574E+03  0.12500000000E+03 0.  0.
         25    1    1    2    0    0 -0.89460753260E+02  0.91359656210E+01 -0.12967356005E+03  0.20131300111E+03  0.12500000000E+03 0.  0.
</event>
<event>
 5    0  0.5778896E-005  0.3198335E+03  0.7546771E-02  0.1075726E+00
         21   -1    0    0  502  501  0.00000000000E+00  0.00000000000E+00  0.11309745679E+04  0.11309745679E+04  0.00000000000E+00 0. -1.
         21   -1    0    0  501  502 -0.00000000000E+00 -0.00000000000E+00 -0.90447167018E+02  0.90447167018E+02  0.00000000000E+00 0. -1.
         25    1    1    2    0    0  0.76131254336E+02  0.58840357164E+02  0.71873394067E+02  0.17334630164E+03  0.12500000000E+03 0.  0.
         25    1    1    2    0    0 -0.12515449178E+03 -0.10220022500E+03  0.81174735340E+03  0.83705871870E+03  0.12500000000E+03 0.  0.
         25    1    1    2    0    0  0.49023237443E+02  0.43359867835E+02  0.15690665345E+03  0.21101671461E+03  0.12500000000E+03 0.  0.
</event>
<event>
 5    0  0.5778896E-005  0.3968221E+03  0.7546771E-02  0.1044886E+00
         21   -1    0    0  502  501  0.00000000000E+00  0.00000000000E+00  0.27736523012E+03  0.27736523012E+03  0.00000000000E+00 0. -1.
         21   -1    0    0  501  502 -0.00000000000E+00 -0.00000000000E+00 -0.56772707769E+03  0.56772707769E+03  0.00000000000E+00 0. -1.
         25    1    1    2    0    0 -0.80141145687E+02  0.67735228096E+01  0.20546743180E+03  0.25359485281E+03  0.12500000000E+03 0.  0.
         25    1    1    2    0    0  0.45700526402E+02 -0.51236390116E+02 -0.39887603618E+03  0.42360453022E+03  0.12500000000E+03 0.  0.
         25    1    1    2    0    0  0.34440619285E+02  0.44462867306E+02 -0.96953243195E+02  0.16789292478E+03  0.12500000000E+03 0.  0.
</event>
<event>
 5    0  0.5778896E-005  0.2047223E+03  0.7546771E-02  0.1145815E+00
         21   -1    0    0  502  501  0.00000000000E+00  0.00000000000E+00  0.13263248781E+03  0.13263248781E+03  0.00000000000E+00 0.  1.
         21   -1    0    0  501  502 -0.00000000000E+00 -0.00000000000E+00 -0.31599505428E+03  0.31599505428E+03  0.00000000000E+00 0.  1.
         25    1    1    2    0    0 -0.19905841816E+02 -0.66649282848E+01 -0.12292085703E+03  0.17656500474E+03  0.12500000000E+03 0.  0.
         25    1    1    2    0    0 -0.23893318957E+02 -0.12486086156E+02 -0.73430916121E+01  0.12808479236E+03  0.12500000000E+03 0.  0.
         25    1    1    2    0    0  0.43799160774E+02  0.19151014441E+02 -0.53098617828E+02  0.14397774500E+03  0.12500000000E+03 0.  0.
</event>
<event>
 5    0  0.5778896E-005  0.3184900E+03  0.7546771E-02  0.1076346E+00
         21   -1    0    0  502  501  0.00000000000E+00  0.00000000000E+00  0.19216604548E+03  0.19216604548E+03  0.00000000000E+00 0. -1.
         21   -1    0    0  501  502 -0.00000000000E+00 -0.00000000000E+00 -0.52785549570E+03  0.52785549570E+03  0.00000000000E+00 0. -1.
         25    1    1    2    0    0 -0.70681609704E+01  0.22029350095E+03 -0.16684861191E+03  0.30338530741E+03  0.12500000000E+03 0.  0.
         25    1    1    2    0    0 -0.61661093013E+02 -0.29236115804E+02 -0.60160970732E+02  0.15460007522E+03  0.12500000000E+03 0.  0.
         25    1    1    2    0    0  0.68729253983E+02 -0.19105738514E+03 -0.10867986758E+03  0.26203615855E+03  0.12500000000E+03 0.  0.
</event>
<event>
 5    0  0.5778896E-005  0.3991339E+03  0.7546771E-02  0.1044080E+00
         21   -1    0    0  502  501  0.00000000000E+00  0.00000000000E+00  0.17373170294E+03  0.17373170294E+03  0.00000000000E+00 0. -1.
         21   -1    0    0  501  502 -0.00000000000E+00 -0.00000000000E+00 -0.91697620106E+03  0.91697620106E+03  0.00000000000E+00 0. -1.
         25    1    1    2    0    0  0.11312272364E+03  0.17463650864E+03 -0.35338550151E+03  0.42872015748E+03  0.12500000000E+03 0.  0.
         25    1    1    2    0    0  0.67681780034E+02 -0.20965124020E+03 -0.35589841069E+03  0.43683308551E+03  0.12500000000E+03 0.  0.
         25    1    1    2    0    0 -0.18080450367E+03  0.35014731562E+02 -0.33960585918E+02  0.22515466100E+03  0.12500000000E+03 0.  0.
</event>
<event>
 5    0  0.5778896E-005  0.3770191E+03  0.7546771E-02  0.1052041E+00
         21   -1    0    0  502  501  0.00000000000E+00  0.00000000000E+00  0.28034589184E+03  0.28034589184E+03  0.00000000000E+00 0. -1.
         21   -1    0    0  501  502 -0.00000000000E+00 -0.00000000000E+00 -0.50702861403E+03  0.50702861403E+03  0.00000000000E+00 0. -1.
         25    1    1    2    0    0  0.26055271185E+02 -0.60871790926E+02  0.11909479744E+03  0.18491301432E+03  0.12500000000E+03 0.  0.
         25    1    1    2    0    0 -0.58477958436E+02 -0.23842604585E+02  0.71698485316E+02  0.15733344912E+03  0.12500000000E+03 0.  0.
         25    1    1    2    0    0  0.32422687251E+02  0.84714395510E+02 -0.41747600494E+03  0.44512804243E+03  0.12500000000E+03 0.  0.
</event>
<event>
 5    0  0.6068060E-005  0.3227447E+03  0.7546771E-02  0.1074393E+00
         21   -1    0    0  502  501  0.00000000000E+00  0.00000000000E+00  0.30196433587E+03  0.30196433587E+03  0.00000000000E+00 0.  1.
         21   -1    0    0  501  502 -0.00000000000E+00 -0.00000000000E+00 -0.34495502785E+03  0.34495502785E+03  0.00000000000E+00 0.  1.
         25    1    1    2    0    0 -0.11894110152E+03  0.10995254041E+03 -0.79407869066E+02  0.21947017210E+03  0.12500000000E+03 0.  0.
         25    1    1    2    0    0  0.16444668764E+03 -0.44067775627E+02 -0.92745829849E+02  0.23067611684E+03  0.12500000000E+03 0.  0.
         25    1    1    2    0    0 -0.45505586118E+02 -0.65884764784E+02  0.12916300694E+03  0.19677307478E+03  0.12500000000E+03 0.  0.
</event>
<event>
 5    0  0.5778896E-005  0.2935551E+03  0.7546771E-02  0.1088507E+00
         21   -1    0    0  502  501  0.00000000000E+00  0.00000000000E+00  0.62403974823E+03  0.62403974823E+03  0.00000000000E+00 0. -1.
         21   -1    0    0  501  502 -0.00000000000E+00 -0.00000000000E+00 -0.13809151755E+03  0.13809151755E+03  0.00000000000E+00 0. -1.
         25    1    1    2    0    0  0.12063622532E+03  0.48307104567E+02  0.31665257735E+03  0.36439062824E+03  0.12500000000E+03 0.  0.
         25    1    1    2    0    0 -0.87926371548E+02 -0.40880789672E+02 -0.29108770091E+02  0.16085585558E+03  0.12500000000E+03 0.  0.
         25    1    1    2    0    0 -0.32709853768E+02 -0.74263148950E+01  0.19840442342E+03  0.23688478195E+03  0.12500000000E+03 0.  0.
</event>
<event>
 5    0  0.5778896E-005  0.3096651E+03  0.7546771E-02  0.1080506E+00
         21   -1    0    0  502  501  0.00000000000E+00  0.00000000000E+00  0.71995624923E+03  0.71995624923E+03  0.00000000000E+00 0.  1.
         21   -1    0    0  501  502 -0.00000000000E+00 -0.00000000000E+00 -0.13319211831E+03  0.13319211831E+03  0.00000000000E+00 0.  1.
         25    1    1    2    0    0  0.79057896456E+02  0.19661241555E+03  0.23836485461E+03  0.34256298232E+03  0.12500000000E+03 0.  0.
         25    1    1    2    0    0 -0.82514496969E+02 -0.16515661911E+03  0.13321085878E+03  0.25972193581E+03  0.12500000000E+03 0.  0.
         25    1    1    2    0    0  0.34566005127E+01 -0.31455796440E+02  0.21518841753E+03  0.25086344942E+03  0.12500000000E+03 0.  0.
</event>
<event>
 5    0  0.5778896E-005  0.2456688E+03  0.7546771E-02  0.1116073E+00
         21   -1    0    0  502  501  0.00000000000E+00  0.00000000000E+00  0.29399160348E+03  0.29399160348E+03  0.00000000000E+00 0. -1.
         21   -1    0    0  501  502 -0.00000000000E+00 -0.00000000000E+00 -0.20528878661E+03  0.20528878661E+03  0.00000000000E+00 0. -1.
         25    1    1    2    0    0 -0.22290370660E+02 -0.93178498216E+02  0.50652464507E+02  0.16543810116E+03  0.12500000000E+03 0.  0.
         25    1    1    2    0    0 -0.47264952602E+02  0.11135577295E+03 -0.26314193971E+02  0.17593044284E+03  0.12500000000E+03 0.  0.
         25    1    1    2    0    0  0.69555323262E+02 -0.18177274735E+02  0.64364546333E+02  0.15791184609E+03  0.12500000000E+03 0.  0.
</event>
<event>
 5    0  0.5778896E-005  0.4681023E+03  0.7546771E-02  0.1022457E+00
         21   -1    0    0  502  501  0.00000000000E+00  0.00000000000E+00  0.10338061862E+04  0.10338061862E+04  0.00000000000E+00 0. -1.
         21   -1    0    0  501  502 -0.00000000000E+00 -0.00000000000E+00 -0.21195442396E+03  0.21195442396E+03  0.00000000000E+00 0. -1.
         25    1    1    2    0    0  0.16981466427E+02  0.10499419817E+03  0.78524732067E+03  0.80221599739E+03  0.12500000000E+03 0.  0.
         25    1    1    2    0    0  0.14228933925E+03  0.10536982169E+01 -0.55137278773E+02  0.19726247959E+03  0.12500000000E+03 0.  0.
         25    1    1    2    0    0 -0.15927080568E+03 -0.10604789639E+03  0.91741720359E+02  0.24628213318E+03  0.12500000000E+03 0.  0.
</event>
<event>
 5    0  0.5778896E-005  0.2803223E+03  0.7546771E-02  0.1095513E+00
         21   -1    0    0  502  501  0.00000000000E+00  0.00000000000E+00  0.62281891998E+03  0.62281891998E+03  0.00000000000E+00 0.  1.
         21   -1    0    0  501  502 -0.00000000000E+00 -0.00000000000E+00 -0.12616926108E+03  0.12616926108E+03  0.00000000000E+00 0.  1.
         25    1    1    2    0    0 -0.27827384839E+02 -0.33014442545E+02 -0.41678962378E+02  0.13865948460E+03  0.12500000000E+03 0.  0.
         25    1    1    2    0    0 -0.28105261903E+02  0.69089599649E+02  0.28903785720E+03  0.32362194212E+03  0.12500000000E+03 0.  0.
         25    1    1    2    0    0  0.55932646742E+02 -0.36075157104E+02  0.24929076408E+03  0.28670675434E+03  0.12500000000E+03 0.  0.
</event>
<event>
 5    0  0.5778896E-005  0.3786052E+03  0.7546771E-02  0.1051450E+00
         21   -1    0    0  502  501  0.00000000000E+00  0.00000000000E+00  0.12630276508E+03  0.12630276508E+03  0.00000000000E+00 0. -1.
         21   -1    0    0  501  502 -0.00000000000E+00 -0.00000000000E+00 -0.11349068474E+04  0.11349068474E+04  0.00000000000E+00 0. -1.
         25    1    1    2    0    0  0.58372009583E+02 -0.27333322338E+02 -0.68228102668E+03  0.69662529481E+03  0.12500000000E+03 0.  0.
         25    1    1    2    0    0  0.59740999477E+02 -0.15187029217E+03 -0.19627983873E+03  0.28422587454E+03  0.12500000000E+03 0.  0.
         25    1    1    2    0    0 -0.11811300906E+03  0.17920361451E+03 -0.13004321689E+03  0.28035844311E+03  0.12500000000E+03 0.  0.
</event>
<event>
 5    0  0.5778896E-005  0.2857954E+03  0.7546771E-02  0.1092565E+00
         21   -1    0    0  502  501  0.00000000000E+00  0.00000000000E+00  0.20714449039E+04  0.20714449039E+04  0.00000000000E+00 0. -1.
         21   -1    0    0  501  502 -0.00000000000E+00 -0.00000000000E+00 -0.39430928689E+02  0.39430928689E+02  0.00000000000E+00 0. -1.
         25    1    1    2    0    0 -0.22199843076E+02 -0.13097511418E+03  0.39797715474E+03  0.43778776737E+03  0.12500000000E+03 0.  0.
         25    1    1    2    0    0  0.41884658818E+02  0.17029309907E+02  0.11919716930E+04  0.11993605959E+04  0.12500000000E+03 0.  0.
         25    1    1    2    0    0 -0.19684815742E+02  0.11394580427E+03  0.44206512754E+03  0.47372746940E+03  0.12500000000E+03 0.  0.
</event>
<event>
 5    0  0.5778896E-005  0.3354360E+03  0.7546771E-02  0.1068757E+00
         21   -1    0    0  502  501  0.00000000000E+00  0.00000000000E+00  0.17838560810E+04  0.17838560810E+04  0.00000000000E+00 0. -1.
         21   -1    0    0  501  502 -0.00000000000E+00 -0.00000000000E+00 -0.63075336237E+02  0.63075336237E+02  0.00000000000E+00 0. -1.
         25    1    1    2    0    0 -0.53350541556E+02  0.84406503705E+02  0.64478812277E+03  0.66433986891E+03  0.12500000000E+03 0.  0.
         25    1    1    2    0    0  0.32478223189E+02 -0.19037575972E+03  0.24796046080E+03  0.33824126743E+03  0.12500000000E+03 0.  0.
         25    1    1    2    0    0  0.20872318367E+02  0.10596925602E+03  0.82803216123E+03  0.84435028094E+03  0.12500000000E+03 0.  0.
</event>
<event>
 5    0  0.5778896E-005  0.4401960E+03  0.7546771E-02  0.1030687E+00
         21   -1    0    0  502  501  0.00000000000E+00  0.00000000000E+00  0.40226289929E+03  0.40226289929E+03  0.00000000000E+00 0. -1.
         21   -1    0    0  501  502 -0.00000000000E+00 -0.00000000000E+00 -0.48170615927E+03  0.48170615927E+03  0.00000000000E+00 0. -1.
         25    1    1    2    0    0  0.19999043385E+03 -0.18775474729E+02 -0.29738045012E+03  0.38001161061E+03  0.12500000000E+03 0.  0.
         25    1    1    2    0    0 -0.78915143433E+02  0.13660978825E+03  0.12381816756E+00  0.20128300832E+03  0.12500000000E+03 0.  0.
         25    1    1    2    0    0 -0.12107529042E+03 -0.11783431352E+03  0.21781337197E+03  0.30267443963E+03  0.12500000000E+03 0.  0.
</event>
<event>
 5    0  0.5778896E-005  0.3977744E+03  0.7546771E-02  0.1044553E+00
         21   -1    0    0  502  501  0.00000000000E+00  0.00000000000E+00  0.69038779309E+03  0.69038779309E+03  0.00000000000E+00 0. -1.
         21   -1    0    0  501  502 -0.00000000000E+00 -0.00000000000E+00 -0.22918202722E+03  0.22918202722E+03  0.00000000000E+00 0. -1.
         25    1    1    2    0    0 -0.12415150505E+03 -0.16357680492E+02  0.97860214448E+02  0.20219493438E+03  0.12500000000E+03 0.  0.
         25    1    1    2    0    0  0.17501963213E+03 -0.21447380761E+03  0.32903691302E+03  0.44779590877E+03  0.12500000000E+03 0.  0.
         25    1    1    2    0    0 -0.50868127086E+02  0.23083148811E+03  0.34308638406E+02  0.26957897715E+03  0.12500000000E+03 0.  0.
</event>
<event>
 5    0  0.5778896E-005  0.3944086E+03  0.7546771E-02  0.1045733E+00
         21   -1    0    0  502  501  0.00000000000E+00  0.00000000000E+00  0.20620030395E+03  0.20620030395E+03  0.00000000000E+00 0. -1.
         21   -1    0    0  501  502 -0.00000000000E+00 -0.00000000000E+00 -0.75440314945E+03  0.75440314945E+03  0.00000000000E+00 0. -1.
         25    1    1    2    0    0  0.17500692026E+03 -0.12959482347E+03 -0.44196721396E+03  0.50831315016E+03  0.12500000000E+03 0.  0.
         25    1    1    2    0    0 -0.18334360148E+03  0.34543264549E+02 -0.17095388790E+03  0.28223810004E+03  0.12500000000E+03 0.  0.
         25    1    1    2    0    0  0.83366812174E+01  0.95051558918E+02  0.64718256363E+02  0.17005220320E+03  0.12500000000E+03 0.  0.
</event>
<event>
 5    0  0.5778896E-005  0.2198292E+03  0.7546771E-02  0.1134010E+00
         21   -1    0    0  502  501  0.00000000000E+00  0.00000000000E+00  0.38275743733E+03  0.38275743733E+03  0.00000000000E+00 0.  1.
         21   -1    0    0  501  502 -0.00000000000E+00 -0.00000000000E+00 -0.12625451913E+03  0.12625451913E+03  0.00000000000E+00 0.  1.
         25    1    1    2    0    0  0.22351147498E+02  0.55362660355E+02  0.49156869660E+02  0.14698978125E+03  0.12500000000E+03 0.  0.
         25    1    1    2    0    0  0.30898690485E+02  0.34643202118E+02  0.83492741598E+02  0.15732424615E+03  0.12500000000E+03 0.  0.
         25    1    1    2    0    0 -0.53249837983E+02 -0.90005862473E+02  0.12385330694E+03  0.20469792907E+03  0.12500000000E+03 0.  0.
</event>
<event>
 5    0  0.9309443E-005  0.7249693E+03  0.7546771E-02  0.9675459E-01
         21   -1    0    0  502  501  0.00000000000E+00  0.00000000000E+00  0.18107918191E+04  0.18107918191E+04  0.00000000000E+00 0.  1.
         21   -1    0    0  501  502 -0.00000000000E+00 -0.00000000000E+00 -0.29024894433E+03  0.29024894433E+03  0.00000000000E+00 0.  1.
         25    1    1    2    0    0  0.20035784017E+02  0.37321912613E+02 -0.13021183429E+03  0.18540355873E+03  0.12500000000E+03 0.  0.
         25    1    1    2    0    0 -0.47012060334E+03 -0.10094897883E+03  0.93022032567E+03  0.10545799791E+04  0.12500000000E+03 0.  0.
         25    1    1    2    0    0  0.45008481932E+03  0.63627066216E+02  0.72053438340E+03  0.86105722563E+03  0.12500000000E+03 0.  0.
</event>
<event>
 5    0  0.5778896E-005  0.4348348E+03  0.7546771E-02  0.1032343E+00
         21   -1    0    0  502  501  0.00000000000E+00  0.00000000000E+00  0.62622590417E+03  0.62622590417E+03  0.00000000000E+00 0.  1.
         21   -1    0    0  501  502 -0.00000000000E+00 -0.00000000000E+00 -0.30193790663E+03  0.30193790663E+03  0.00000000000E+00 0.  1.
         25    1    1    2    0    0  0.23761338201E+03 -0.15391226192E+03  0.26342244112E+03  0.40640556857E+03  0.12500000000E+03 0.  0.
         25    1    1    2    0    0 -0.83940146114E+02  0.66314464430E+02 -0.14768022020E+03  0.22108370307E+03  0.12500000000E+03 0.  0.
         25    1    1    2    0    0 -0.15367323589E+03  0.87597797490E+02  0.20854577662E+03  0.30067453917E+03  0.12500000000E+03 0.  0.
</event>
<event>
 5    0  0.5778896E-005  0.2488239E+03  0.7546771E-02  0.1114050E+00
         21   -1    0    0  502  501  0.00000000000E+00  0.00000000000E+00  0.18484337645E+03  0.18484337645E+03  0.00000000000E+00 0.  1.
         21   -1    0    0  501  502 -0.00000000000E+00 -0.00000000000E+00 -0.33495010584E+03  0.33495010584E+03  0.00000000000E+00 0.  1.
         25    1    1    2    0    0 -0.94028867062E+02  0.20318512124E+02 -0.23361101346E+02  0.15945222116E+03  0.12500000000E+03 0.  0.
         25    1    1    2    0    0  0.27192729595E+02 -0.10655197080E+03 -0.94113474239E+02  0.19124621057E+03  0.12500000000E+03 0.  0.
         25    1    1    2    0    0  0.66836137467E+02  0.86233458672E+02 -0.32632153806E+02  0.16909505057E+03  0.12500000000E+03 0.  0.
</event>
<event>
 5    0  0.5778896E-005  0.3511104E+03  0.7546771E-02  0.1062160E+00
         21   -1    0    0  502  501  0.00000000000E+00  0.00000000000E+00  0.95651118331E+03  0.95651118331E+03  0.00000000000E+00 0. -1.
         21   -1    0    0  501  502 -0.00000000000E+00 -0.00000000000E+00 -0.12888352681E+03  0.12888352681E+03  0.00000000000E+00 0. -1.
         25    1    1    2    0    0 -0.10449288988E+03 -0.23347081026E+02  0.45597079334E+03  0.48476614425E+03  0.12500000000E+03 0.  0.
         25    1    1    2    0    0  0.13508544892E+03 -0.14896895636E+03  0.28040445674E+03  0.36700338939E+03  0.12500000000E+03 0.  0.
         25    1    1    2    0    0 -0.30592559036E+02  0.17231603739E+03  0.91252406419E+02  0.23362517648E+03  0.12500000000E+03 0.  0.
</event>
<event>
 5    0  0.5778896E-005  0.3957827E+03  0.7546771E-02  0.1045250E+00
         21   -1    0    0  502  501  0.00000000000E+00  0.00000000000E+00  0.50389238708E+03  0.50389238708E+03  0.00000000000E+00 0. -1.
         21   -1    0    0  501  502 -0.00000000000E+00 -0.00000000000E+00 -0.31086784662E+03  0.31086784662E+03  0.00000000000E+00 0. -1.
         25    1    1    2    0    0  0.42558650082E+02 -0.95360683307E+02  0.86167748178E+02  0.18426822690E+03  0.12500000000E+03 0.  0.
         25    1    1    2    0    0 -0.64292001201E+02  0.24884454807E+02  0.33270160622E+03  0.36203322540E+03  0.12500000000E+03 0.  0.
         25    1    1    2    0    0  0.21733351119E+02  0.70476228500E+02 -0.22584481394E+03  0.26845878141E+03  0.12500000000E+03 0.  0.
</event>
<event>
 5    0  0.5778896E-005  0.2365725E+03  0.7546771E-02  0.1122097E+00
         21   -1    0    0  502  501  0.00000000000E+00  0.00000000000E+00  0.17043927733E+03  0.17043927733E+03  0.00000000000E+00 0.  1.
         21   -1    0    0  501  502 -0.00000000000E+00 -0.00000000000E+00 -0.32836641531E+03  0.32836641531E+03  0.00000000000E+00 0.  1.
         25    1    1    2    0    0 -0.34650876389E+02 -0.99112576666E+02 -0.10504983658E+02  0.16358282541E+03  0.12500000000E+03 0.  0.
         25    1    1    2    0    0  0.58207381037E+02  0.99637167861E+02 -0.58000304742E+02  0.17973508221E+03  0.12500000000E+03 0.  0.
         25    1    1    2    0    0 -0.23556504648E+02 -0.52459119459E+00 -0.89421849577E+02  0.15548778501E+03  0.12500000000E+03 0.  0.
</event>
<event>
 5    0  0.5778896E-005  0.3474988E+03  0.7546771E-02  0.1063646E+00
         21   -1    0    0  502  501  0.00000000000E+00  0.00000000000E+00  0.42411563333E+02  0.42411563333E+02  0.00000000000E+00 0. -1.
         21   -1    0    0  501  502 -0.00000000000E+00 -0.00000000000E+00 -0.28472282467E+04  0.28472282467E+04  0.00000000000E+00 0. -1.
         25    1    1    2    0    0  0.52341013642E+02  0.27019229821E+03 -0.10398638196E+04  0.10829059160E+04  0.12500000000E+03 0.  0.
         25    1    1    2    0    0 -0.21426350975E+02 -0.19502242512E+03 -0.93581041577E+03  0.96429195221E+03  0.12500000000E+03 0.  0.
         25    1    1    2    0    0 -0.30914662667E+02 -0.75169873087E+02 -0.82914244806E+03  0.84244194184E+03  0.12500000000E+03 0.  0.
</event>
<event>
 5    0  0.5778896E-005  0.3155547E+03  0.7546771E-02  0.1077714E+00
         21   -1    0    0  502  501  0.00000000000E+00  0.00000000000E+00  0.19986137783E+03  0.19986137783E+03  0.00000000000E+00 0. -1.
         21   -1    0    0  501  502 -0.00000000000E+00 -0.00000000000E+00 -0.49821919780E+03  0.49821919780E+03  0.00000000000E+00 0. -1.
         25    1    1    2    0    0  0.38561984592E+02 -0.62410969720E+02  0.20685333856E+02  0.14640709967E+03  0.12500000000E+03 0.  0.
         25    1    1    2    0    0 -0.45240868735E+01 -0.24560147191E+02  0.60653705273E+02  0.14116493954E+03  0.12500000000E+03 0.  0.
         25    1    1    2    0    0 -0.34037897718E+02  0.86971116911E+02 -0.37969685910E+03  0.41050853641E+03  0.12500000000E+03 0.  0.
</event>
<event>
 5    0  0.5778896E-005  0.2402420E+03  0.7546771E-02  0.1119632E+00
         21   -1    0    0  502  501  0.00000000000E+00  0.00000000000E+00  0.46730399686E+03  0.46730399686E+03  0.00000000000E+00 0.  1.
         21   -1    0    0  501  502 -0.00000000000E+00 -0.00000000000E+00 -0.12350894559E+03  0.12350894559E+03  0.00000000000E+00 0.  1.
         25    1    1    2    0    0  0.58260026490E+02 -0.26829643727E+01  0.12706280147E+03  0.18754035433E+03  0.12500000000E+03 0.  0.
         25    1    1    2    0    0  0.65091226997E+01  0.32363160632E+02 -0.15367070087E+02  0.13019558244E+03  0.12500000000E+03 0.  0.
         25    1    1    2    0    0 -0.64769149189E+02 -0.29680196259E+02  0.23209931989E+03  0.27307700567E+03  0.12500000000E+03 0.  0.
</event>
<event>
 5    0  0.5778896E-005  0.3322807E+03  0.7546771E-02  0.1070132E+00
         21   -1    0    0  502  501  0.00000000000E+00  0.00000000000E+00  0.66422619795E+02  0.66422619795E+02  0.00000000000E+00 0.  1.
         21   -1    0    0  501  502 -0.00000000000E+00 -0.00000000000E+00 -0.16622423257E+04  0.16622423257E+04  0.00000000000E+00 0.  1.
         25    1    1    2    0    0  0.84487747246E+02  0.16121519670E+03 -0.20786026906E+03  0.30324810063E+03  0.12500000000E+03 0.  0.
         25    1    1    2    0    0 -0.16956780179E+02 -0.32538693777E+02 -0.47425363616E+03  0.49182091293E+03  0.12500000000E+03 0.  0.
         25    1    1    2    0    0 -0.67530967067E+02 -0.12867650292E+03 -0.91370580068E+03  0.93359593192E+03  0.12500000000E+03 0.  0.
</event>
<event>
 5    0  0.5778896E-005  0.3587880E+03  0.7546771E-02  0.1059065E+00
         21   -1    0    0  502  501  0.00000000000E+00  0.00000000000E+00  0.11213048146E+03  0.11213048146E+03  0.00000000000E+00 0. -1.
         21   -1    0    0  501  502 -0.00000000000E+00 -0.00000000000E+00 -0.11480273450E+04  0.11480273450E+04  0.00000000000E+00 0.  1.
         25    1    1    2    0    0  0.12521714339E+03  0.15473735949E+03 -0.19645959691E+03  0.30634026285E+03  0.12500000000E+03 0.  0.
         25    1    1    2    0    0  0.10306470631E+03 -0.68321957331E+02 -0.27711966148E+03  0.32819282490E+03  0.12500000000E+03 0.  0.
         25    1    1    2    0    0 -0.22828184970E+03 -0.86415402164E+02 -0.56231760514E+03  0.62562473871E+03  0.12500000000E+03 0.  0.
</event>
<event>
 5    0  0.5778896E-005  0.3242862E+03  0.7546771E-02  0.1073693E+00
         21   -1    0    0  502  501  0.00000000000E+00  0.00000000000E+00  0.53264130971E+03  0.53264130971E+03  0.00000000000E+00 0. -1.
         21   -1    0    0  501  502 -0.00000000000E+00 -0.00000000000E+00 -0.19743407029E+03  0.19743407029E+03  0.00000000000E+00 0. -1.
         25    1    1    2    0    0 -0.29357758712E+02  0.13415274570E+03  0.19520030701E+02  0.18672136668E+03  0.12500000000E+03 0.  0.
         25    1    1    2    0    0 -0.42914602533E+02  0.57482591659E+02  0.25963211195E+03  0.29695074509E+03  0.12500000000E+03 0.  0.
         25    1    1    2    0    0  0.72272361245E+02 -0.19163533736E+03  0.56055096760E+02  0.24640326823E+03  0.12500000000E+03 0.  0.
</event>
<event>
 5    0  0.5778896E-005  0.3519697E+03  0.7546771E-02  0.1061810E+00
         21   -1    0    0  502  501  0.00000000000E+00  0.00000000000E+00  0.21613135334E+03  0.21613135334E+03  0.00000000000E+00 0.  1.
         21   -1    0    0  501  502 -0.00000000000E+00 -0.00000000000E+00 -0.57318215915E+03  0.57318215915E+03  0.00000000000E+00 0.  1.
         25    1    1    2    0    0  0.16883714655E+03  0.13507672632E+03 -0.22523556652E+03  0.33631497807E+03  0.12500000000E+03 0.  0.
         25    1    1    2    0    0 -0.54946413530E+02  0.19406934759E+02  0.63642910523E+02  0.15189192716E+03  0.12500000000E+03 0.  0.
         25    1    1    2    0    0 -0.11389073302E+03 -0.15448366108E+03 -0.19545814981E+03  0.30110660726E+03  0.12500000000E+03 0.  0.
</event>
<event>
 5    0  0.5778896E-005  0.3496856E+03  0.7546771E-02  0.1062744E+00
         21   -1    0    0  502  501  0.00000000000E+00  0.00000000000E+00  0.12167895930E+04  0.12167895930E+04  0.00000000000E+00 0. -1.
         21   -1    0    0  501  502 -0.00000000000E+00 -0.00000000000E+00 -0.10049394576E+03  0.10049394576E+03  0.00000000000E+00 0. -1.
         25    1    1    2    0    0  0.64480618039E+01 -0.87902875356E+02  0.14392253291E+02  0.15362496526E+03  0.12500000000E+03 0.  0.
         25    1    1    2    0    0  0.12398150272E+03  0.44228181152E+02  0.65395127442E+03  0.67867872690E+03  0.12500000000E+03 0.  0.
         25    1    1    2    0    0 -0.13042956453E+03  0.43674694205E+02  0.44795211954E+03  0.48497984661E+03  0.12500000000E+03 0.  0.
</event>
<event>
 5    0  0.5778896E-005  0.2902191E+03  0.7546771E-02  0.1090235E+00
         21   -1    0    0  502  501  0.00000000000E+00  0.00000000000E+00  0.14144068968E+03  0.14144068968E+03  0.00000000000E+00 0.  1.
         21   -1    0    0  501  502 -0.00000000000E+00 -0.00000000000E+00 -0.59549433897E+03  0.59549433897E+03  0.00000000000E+00 0.  1.
         25    1    1    2    0    0  0.10680960537E+03 -0.25598943966E+02 -0.78031973915E+02  0.18378679681E+03  0.12500000000E+03 0.  0.
         25    1    1    2    0    0  0.13645480156E+02  0.13850532097E+03 -0.11359477911E+03  0.21885770927E+03  0.12500000000E+03 0.  0.
         25    1    1    2    0    0 -0.12045508552E+03 -0.11290637700E+03 -0.26242689627E+03  0.33429052257E+03  0.12500000000E+03 0.  0.
</event>
<event>
 5    0  0.7446390E-005  0.6081840E+03  0.7546771E-02  0.9888571E-01
         21   -1    0    0  502  501  0.00000000000E+00  0.00000000000E+00  0.37767550593E+03  0.37767550593E+03  0.00000000000E+00 0. -1.
         21   -1    0    0  501  502 -0.00000000000E+00 -0.00000000000E+00 -0.97937976403E+03  0.97937976403E+03  0.00000000000E+00 0. -1.
         25    1    1    2    0    0  0.27345552685E+03 -0.37386846562E+03 -0.26891883011E+03  0.54999808357E+03  0.12500000000E+03 0.  0.
         25    1    1    2    0    0 -0.26806252454E+03  0.17508507913E+03  0.60477324865E+02  0.34899113000E+03  0.12500000000E+03 0.  0.
         25    1    1    2    0    0 -0.53930023029E+01  0.19878338649E+03 -0.39326275287E+03  0.45806605638E+03  0.12500000000E+03 0.  0.
</event>
<event>
 5    0  0.5778896E-005  0.3475869E+03  0.7546771E-02  0.1063610E+00
         21   -1    0    0  502  501  0.00000000000E+00  0.00000000000E+00  0.24264331316E+03  0.24264331316E+03  0.00000000000E+00 0. -1.
         21   -1    0    0  501  502 -0.00000000000E+00 -0.00000000000E+00 -0.49791864315E+03  0.49791864315E+03  0.00000000000E+00 0. -1.
         25    1    1    2    0    0  0.96377016255E+02 -0.22985904038E+03 -0.10150897001E+03  0.29673688463E+03  0.12500000000E+03 0.  0.
         25    1    1    2    0    0 -0.31884296762E+02 -0.18986930484E+02 -0.52643777505E+02  0.14061820373E+03  0.12500000000E+03 0.  0.
         25    1    1    2    0    0 -0.64492719493E+02  0.24884597087E+03 -0.10112258248E+03  0.30320686795E+03  0.12500000000E+03 0.  0.
</event>
<event>
 5    0  0.5778896E-005  0.2272428E+03  0.7546771E-02  0.1128596E+00
         21   -1    0    0  502  501  0.00000000000E+00  0.00000000000E+00  0.28825125427E+03  0.28825125427E+03  0.00000000000E+00 0.  1.
         21   -1    0    0  501  502 -0.00000000000E+00 -0.00000000000E+00 -0.17914678601E+03  0.17914678601E+03  0.00000000000E+00 0.  1.
         25    1    1    2    0    0 -0.41877896389E+02  0.47075580285E+01  0.85975248078E+02  0.15745685946E+03  0.12500000000E+03 0.  0.
         25    1    1    2    0    0 -0.11329403960E+02  0.40621055066E+02 -0.59366997784E+02  0.14466466719E+03  0.12500000000E+03 0.  0.
         25    1    1    2    0    0  0.53207300349E+02 -0.45328613095E+02  0.82496217969E+02  0.16527651362E+03  0.12500000000E+03 0.  0.
</event>
<event>
 5    0  0.5778896E-005  0.5586488E+03  0.7546771E-02  0.9995117E-01
         21   -1    0    0  502  501  0.00000000000E+00  0.00000000000E+00  0.81348786676E+03  0.81348786676E+03  0.00000000000E+00 0.  1.
         21   -1    0    0  501  502 -0.00000000000E+00 -0.00000000000E+00 -0.38364244986E+03  0.38364244986E+03  0.00000000000E+00 0.  1.
         25    1    1    2    0    0 -0.38511514977E+02  0.44271999250E+03  0.19733849408E+03  0.50204741787E+03  0.12500000000E+03 0.  0.
         25    1    1    2    0    0 -0.37780384918E+02 -0.37976822924E+03  0.31977824625E+03  0.51335600922E+03  0.12500000000E+03 0.  0.
         25    1    1    2    0    0  0.76291899895E+02 -0.62951763256E+02 -0.87271323429E+02  0.18172688953E+03  0.12500000000E+03 0.  0.
</event>
<event>
 5    0  0.5778896E-005  0.3122736E+03  0.7546771E-02  0.1079261E+00
         21   -1    0    0  502  501  0.00000000000E+00  0.00000000000E+00  0.63598854789E+03  0.63598854789E+03  0.00000000000E+00 0. -1.
         21   -1    0    0  501  502 -0.00000000000E+00 -0.00000000000E+00 -0.15332787922E+03  0.15332787922E+03  0.00000000000E+00 0.  1.
         25    1    1    2    0    0  0.10078695413E+03 -0.11380915149E+03  0.33413750200E+03  0.38779299030E+03  0.12500000000E+03 0.  0.
         25    1    1    2    0    0  0.46972732045E+02  0.26828935789E+02  0.13040352669E+03  0.18856380651E+03  0.12500000000E+03 0.  0.
         25    1    1    2    0    0 -0.14775968618E+03  0.86980215705E+02  0.18119639990E+02  0.21295963030E+03  0.12500000000E+03 0.  0.
</event>
<event>
 5    0  0.1004885E-004  0.4373162E+03  0.7546771E-02  0.1031573E+00
         21   -1    0    0  502  501  0.00000000000E+00  0.00000000000E+00  0.25698030602E+03  0.25698030602E+03  0.00000000000E+00 0. -1.
         21   -1    0    0  501  502 -0.00000000000E+00 -0.00000000000E+00 -0.74420289687E+03  0.74420289687E+03  0.00000000000E+00 0. -1.
         25    1    1    2    0    0 -0.21201863356E+02  0.14542286726E+03  0.89194073675E+02  0.21255096356E+03  0.12500000000E+03 0.  0.
         25    1    1    2    0    0 -0.10700596753E+03  0.60283929269E+02 -0.45972726120E+03  0.49199449580E+03  0.12500000000E+03 0.  0.
         25    1    1    2    0    0  0.12820783088E+03 -0.20570679653E+03 -0.11668940333E+03  0.29663774353E+03  0.12500000000E+03 0.  0.
</event>
<event>
 5    0  0.5778896E-005  0.5740532E+03  0.7546771E-02  0.9960749E-01
         21   -1    0    0  502  501  0.00000000000E+00  0.00000000000E+00  0.13685939025E+04  0.13685939025E+04  0.00000000000E+00 0. -1.
         21   -1    0    0  501  502 -0.00000000000E+00 -0.00000000000E+00 -0.24078511537E+03  0.24078511537E+03  0.00000000000E+00 0. -1.
         25    1    1    2    0    0  0.13749453415E+03 -0.18629065794E+03  0.94377861219E+02  0.27953736216E+03  0.12500000000E+03 0.  0.
         25    1    1    2    0    0  0.17344824498E+03 -0.13030457806E+03  0.67166088463E+02  0.25922935827E+03  0.12500000000E+03 0.  0.
         25    1    1    2    0    0 -0.31094277912E+03  0.31659523600E+03  0.96626483749E+03  0.10706122975E+04  0.12500000000E+03 0.  0.
</event>
<event>
 5    0  0.5778896E-005  0.4086180E+03  0.7546771E-02  0.1040836E+00
         21   -1    0    0  502  501  0.00000000000E+00  0.00000000000E+00  0.10699532203E+03  0.10699532203E+03  0.00000000000E+00 0. -1.
         21   -1    0    0  501  502 -0.00000000000E+00 -0.00000000000E+00 -0.15605227946E+04  0.15605227946E+04  0.00000000000E+00 0. -1.
         25    1    1    2    0    0 -0.31572037613E+02  0.14699758740E+03 -0.93649401468E+03  0.95668757899E+03  0.12500000000E+03 0.  0.
         25    1    1    2    0    0 -0.16250668880E+03 -0.40174462287E+02 -0.34642537634E+03  0.40454660139E+03  0.12500000000E+03 0.  0.
         25    1    1    2    0    0  0.19407872642E+03 -0.10682312512E+03 -0.17060808151E+03  0.30628393621E+03  0.12500000000E+03 0.  0.
</event>
<event>
 5    0  0.5778896E-005  0.2557061E+03  0.7546771E-02  0.1109751E+00
         21   -1    0    0  502  501  0.00000000000E+00  0.00000000000E+00  0.61028550943E+03  0.61028550943E+03  0.00000000000E+00 0. -1.
         21   -1    0    0  501  502 -0.00000000000E+00 -0.00000000000E+00 -0.10713939363E+03  0.10713939363E+03  0.00000000000E+00 0. -1.
         25    1    1    2    0    0  0.83222598682E+02 -0.98251288111E+01  0.10075574234E+03  0.18110564238E+03  0.12500000000E+03 0.  0.
         25    1    1    2    0    0  0.60273107592E+02  0.46152148746E+02  0.99923302336E+02  0.17712293664E+03  0.12500000000E+03 0.  0.
         25    1    1    2    0    0 -0.14349570627E+03 -0.36327019935E+02  0.30246707112E+03  0.35919632404E+03  0.12500000000E+03 0.  0.
</event>
<event>
 5    0  0.5778896E-005  0.2455586E+03  0.7546771E-02  0.1116144E+00
         21   -1    0    0  502  501  0.00000000000E+00  0.00000000000E+00  0.62003931499E+03  0.62003931499E+03  0.00000000000E+00 0.  1.
         21   -1    0    0  501  502 -0.00000000000E+00 -0.00000000000E+00 -0.97250314568E+02  0.97250314568E+02  0.00000000000E+00 0.  1.
         25    1    1    2    0    0  0.32432239332E+02  0.12596496582E+02  0.13806436726E+03  0.18946580531E+03  0.12500000000E+03 0.  0.
         25    1    1    2    0    0 -0.50392384116E+02  0.12949517881E+02  0.37490924110E+03  0.39860885772E+03  0.12500000000E+03 0.  0.
         25    1    1    2    0    0  0.17960144784E+02 -0.25546014463E+02  0.98153920683E+01  0.12921496654E+03  0.12500000000E+03 0.  0.
</event>
<event>
 5    0  0.5778896E-005  0.2151065E+03  0.7546771E-02  0.1137585E+00
         21   -1    0    0  502  501  0.00000000000E+00  0.00000000000E+00  0.25833001998E+03  0.25833001998E+03  0.00000000000E+00 0.  1.
         21   -1    0    0  501  502 -0.00000000000E+00 -0.00000000000E+00 -0.17911514965E+03  0.17911514965E+03  0.00000000000E+00 0.  1.
         25    1    1    2    0    0  0.34919469939E+02 -0.52316285690E+02 -0.26970447788E+02  0.14250883546E+03  0.12500000000E+03 0.  0.
         25    1    1    2    0    0 -0.42310315275E+02 -0.51125407649E+00  0.86058406558E+02  0.15754832115E+03  0.12500000000E+03 0.  0.
         25    1    1    2    0    0  0.73908453357E+01  0.52827539767E+02  0.20126911566E+02  0.13738801302E+03  0.12500000000E+03 0.  0.
</event>
<event>
 5    0  0.5778896E-005  0.4333218E+03  0.7546771E-02  0.1032816E+00
         21   -1    0    0  502  501  0.00000000000E+00  0.00000000000E+00  0.41333503478E+03  0.41333503478E+03  0.00000000000E+00 0.  1.
         21   -1    0    0  501  502 -0.00000000000E+00 -0.00000000000E+00 -0.45427501463E+03  0.45427501463E+03  0.00000000000E+00 0.  1.
         25    1    1    2    0    0  0.47895551048E+02 -0.18078047272E+03  0.27530572637E+02  0.22662412836E+03  0.12500000000E+03 0.  0.
         25    1    1    2    0    0  0.23679615531E+03  0.13060572352E+03  0.54538093754E+02  0.30286907709E+03  0.12500000000E+03 0.  0.
         25    1    1    2    0    0 -0.28469170635E+03  0.50174749193E+02 -0.12300864624E+03  0.33811684397E+03  0.12500000000E+03 0.  0.
</event>
<event>
 5    0  0.5778896E-005  0.3061275E+03  0.7546771E-02  0.1082217E+00
         21   -1    0    0  502  501  0.00000000000E+00  0.00000000000E+00  0.25190643159E+03  0.25190643159E+03  0.00000000000E+00 0.  1.
         21   -1    0    0  501  502 -0.00000000000E+00 -0.00000000000E+00 -0.37201920268E+03  0.37201920268E+03  0.00000000000E+00 0.  1.
         25    1    1    2    0    0  0.44162085029E+02  0.14834430164E+03 -0.31299165245E+02  0.20139751569E+03  0.12500000000E+03 0.  0.
         25    1    1    2    0    0  0.45344981804E+02 -0.14419054758E+03  0.63407377328E+02  0.20613727680E+03  0.12500000000E+03 0.  0.
         25    1    1    2    0    0 -0.89507066833E+02 -0.41537540557E+01 -0.15222098317E+03  0.21639084177E+03  0.12500000000E+03 0.  0.
</event>
<event>
 5    0  0.5778896E-005  0.4183270E+03  0.7546771E-02  0.1037612E+00
         21   -1    0    0  502  501  0.00000000000E+00  0.00000000000E+00  0.18433046464E+04  0.18433046464E+04  0.00000000000E+00 0. -1.
         21   -1    0    0  501  502 -0.00000000000E+00 -0.00000000000E+00 -0.94936811268E+02  0.94936811268E+02  0.00000000000E+00 0. -1.
         25    1    1    2    0    0 -0.39676254976E+02 -0.69473877949E+02  0.29757162207E+02  0.15136483617E+03  0.12500000000E+03 0.  0.
         25    1    1    2    0    0  0.27856204281E+01  0.22635922272E+03  0.12390242970E+04  0.12657221125E+04  0.12500000000E+03 0.  0.
         25    1    1    2    0    0  0.36890634548E+02 -0.15688534477E+03  0.47958637585E+03  0.52115450897E+03  0.12500000000E+03 0.  0.
</event>
<event>
 5    0  0.5778896E-005  0.2885240E+03  0.7546771E-02  0.1091122E+00
         21   -1    0    0  502  501  0.00000000000E+00  0.00000000000E+00  0.35017022092E+02  0.35017022092E+02  0.00000000000E+00 0.  1.
         21   -1    0    0  501  502 -0.00000000000E+00 -0.00000000000E+00 -0.23773043153E+04  0.23773043153E+04  0.00000000000E+00 0.  1.
         25    1    1    2    0    0 -0.15243218796E+03  0.23264047824E+02 -0.15144090449E+04  0.15273626102E+04  0.12500000000E+03 0.  0.
         25    1    1    2    0    0  0.30800286294E+02 -0.46091424242E+02 -0.36925624795E+03  0.39376167116E+03  0.12500000000E+03 0.  0.
         25    1    1    2    0    0  0.12163190167E+03  0.22827376418E+02 -0.45862200042E+03  0.49119705606E+03  0.12500000000E+03 0.  0.
</event>
<event>
 5    0  0.5778896E-005  0.3612577E+03  0.7546771E-02  0.1058087E+00
         21   -1    0    0  502  501  0.00000000000E+00  0.00000000000E+00  0.22669045288E+03  0.22669045288E+03  0.00000000000E+00 0.  1.
         21   -1    0    0  501  502 -0.00000000000E+00 -0.00000000000E+00 -0.57570623350E+03  0.57570623350E+03  0.00000000000E+00 0.  1.
         25    1    1    2    0    0 -0.67558323485E+02  0.71347619211E+02 -0.78659729492E+02  0.17738929754E+03  0.12500000000E+03 0.  0.
         25    1    1    2    0    0 -0.11280781882E+03 -0.21041779019E+03 -0.30145649961E+02  0.27117339587E+03  0.12500000000E+03 0.  0.
         25    1    1    2    0    0  0.18036614231E+03  0.13907017098E+03 -0.24021040117E+03  0.35383399297E+03  0.12500000000E+03 0.  0.
</event>
<event>
 5    0  0.5778896E-005  0.3025533E+03  0.7546771E-02  0.1083971E+00
         21   -1    0    0  502  501  0.00000000000E+00  0.00000000000E+00  0.57577399294E+02  0.57577399294E+02  0.00000000000E+00 0.  1.
         21   -1    0    0  501  502 -0.00000000000E+00 -0.00000000000E+00 -0.15898343464E+04  0.15898343464E+04  0.00000000000E+00 0.  1.
         25    1    1    2    0    0 -0.69066724874E+02  0.15209212928E+03 -0.10280557473E+04  0.10490118435E+04  0.12500000000E+03 0.  0.
         25    1    1    2    0    0  0.77757806834E+02 -0.36405008639E+02 -0.23018869739E+03  0.27565093430E+03  0.12500000000E+03 0.  0.
         25    1    1    2    0    0 -0.86910819597E+01 -0.11568712064E+03 -0.27401250246E+03  0.32274896792E+03  0.12500000000E+03 0.  0.
</event>
<event>
 5    0  0.5778896E-005  0.2958833E+03  0.7546771E-02  0.1087317E+00
         21   -1    0    0  502  501  0.00000000000E+00  0.00000000000E+00  0.46660160657E+03  0.46660160657E+03  0.00000000000E+00 0.  1.
         21   -1    0    0  501  502 -0.00000000000E+00 -0.00000000000E+00 -0.18762672930E+03  0.18762672930E+03  0.00000000000E+00 0.  1.
         25    1    1    2    0    0  0.24627436735E+02  0.69554004958E+02  0.18008511430E+03  0.23130049425E+03  0.12500000000E+03 0.  0.
         25    1    1    2    0    0  0.51427402281E+01  0.71484247623E+02  0.16679041303E+03  0.22040981673E+03  0.12500000000E+03 0.  0.
         25    1    1    2    0    0 -0.29770176963E+02 -0.14103825258E+03 -0.67900650062E+02  0.20251802489E+03  0.12500000000E+03 0.  0.
</event>
<event>
 5    0  0.5778896E-005  0.2420269E+03  0.7546771E-02  0.1118450E+00
         21   -1    0    0  502  501  0.00000000000E+00  0.00000000000E+00  0.22742428733E+03  0.22742428733E+03  0.00000000000E+00 0.  1.
         21   -1    0    0  501  502 -0.00000000000E+00 -0.00000000000E+00 -0.25756717885E+03  0.25756717885E+03  0.00000000000E+00 0.  1.
         25    1    1    2    0    0  0.39994400665E+02 -0.12119708558E+03 -0.68325171131E+02  0.19126320778E+03  0.12500000000E+03 0.  0.
         25    1    1    2    0    0 -0.58093864366E+02  0.67366551803E+02  0.28888840841E+02  0.15611763034E+03  0.12500000000E+03 0.  0.
         25    1    1    2    0    0  0.18099463701E+02  0.53830533782E+02  0.92934387701E+01  0.13761062807E+03  0.12500000000E+03 0.  0.
</event>
<event>
 5    0  0.5778896E-005  0.3401196E+03  0.7546771E-02  0.1066745E+00
         21   -1    0    0  502  501  0.00000000000E+00  0.00000000000E+00  0.21416576690E+03  0.21416576690E+03  0.00000000000E+00 0. -1.
         21   -1    0    0  501  502 -0.00000000000E+00 -0.00000000000E+00 -0.54014854756E+03  0.54014854756E+03  0.00000000000E+00 0. -1.
         25    1    1    2    0    0  0.15685957145E+03  0.14430807635E+03 -0.18968414645E+03  0.31150412753E+03  0.12500000000E+03 0.  0.
         25    1    1    2    0    0 -0.22385398547E+02 -0.15439834104E+03  0.20762014350E+02  0.20098759918E+03  0.12500000000E+03 0.  0.
         25    1    1    2    0    0 -0.13447417290E+03  0.10090264689E+02 -0.15706064856E+03  0.24182258775E+03  0.12500000000E+03 0.  0.
</event>
<event>
 5    0  0.5778896E-005  0.3070198E+03  0.7546771E-02  0.1081783E+00
         21   -1    0    0  502  501  0.00000000000E+00  0.00000000000E+00  0.96171992802E+03  0.96171992802E+03  0.00000000000E+00 0.  1.
         21   -1    0    0  501  502 -0.00000000000E+00 -0.00000000000E+00 -0.98013138253E+02  0.98013138253E+02  0.00000000000E+00 0.  1.
         25    1    1    2    0    0  0.44221289365E+02  0.94322807858E+00  0.74488461108E+02  0.15208531471E+03  0.12500000000E+03 0.  0.
         25    1    1    2    0    0 -0.11826418806E+03  0.14197531583E+03  0.27236695981E+03  0.35206841562E+03  0.12500000000E+03 0.  0.
         25    1    1    2    0    0  0.74042898698E+02 -0.14291854391E+03  0.51685136885E+03  0.55557933594E+03  0.12500000000E+03 0.  0.
</event>
<event>
 5    0  0.5778896E-005  0.3257958E+03  0.7546771E-02  0.1073012E+00
         21   -1    0    0  502  501  0.00000000000E+00  0.00000000000E+00  0.16209975415E+04  0.16209975415E+04  0.00000000000E+00 0.  1.
         21   -1    0    0  501  502 -0.00000000000E+00 -0.00000000000E+00 -0.65480006475E+02  0.65480006475E+02  0.00000000000E+00 0.  1.
         25    1    1    2    0    0  0.19563056810E+02 -0.17976526587E+02  0.87811159987E+02  0.15505376009E+03  0.12500000000E+03 0.  0.
         25    1    1    2    0    0 -0.40152977513E+02 -0.40199577236E+02  0.13243994946E+04  0.13314981371E+04  0.12500000000E+03 0.  0.
         25    1    1    2    0    0  0.20589920703E+02  0.58176103823E+02  0.14330688044E+03  0.19992565086E+03  0.12500000000E+03 0.  0.
</event>
<event>
 5    0  0.5778896E-005  0.2458007E+03  0.7546771E-02  0.1115988E+00
         21   -1    0    0  502  501  0.00000000000E+00  0.00000000000E+00  0.43409237293E+02  0.43409237293E+02  0.00000000000E+00 0.  1.
         21   -1    0    0  501  502 -0.00000000000E+00 -0.00000000000E+00 -0.13918228017E+04  0.13918228017E+04  0.00000000000E+00 0.  1.
         25    1    1    2    0    0  0.46795192079E+02  0.90129372392E+02 -0.40195004039E+03  0.43301492900E+03  0.12500000000E+03 0.  0.
         25    1    1    2    0    0 -0.10215173347E+03 -0.41179449872E+02 -0.34015509374E+03  0.37876273779E+03  0.12500000000E+03 0.  0.
         25    1    1    2    0    0  0.55356541393E+02 -0.48949922520E+02 -0.60630843031E+03  0.62345437223E+03  0.12500000000E+03 0.  0.
</event>
<event>
 5    0  0.5778896E-005  0.2531358E+03  0.7546771E-02  0.1111339E+00
         21   -1    0    0  502  501  0.00000000000E+00  0.00000000000E+00  0.81760143054E+03  0.81760143054E+03  0.00000000000E+00 0. -1.
         21   -1    0    0  501  502 -0.00000000000E+00 -0.00000000000E+00 -0.78372801428E+02  0.78372801428E+02  0.00000000000E+00 0. -1.
         25    1    1    2    0    0 -0.15629496877E+02 -0.44204824384E+01  0.32471896534E+03  0.34832632442E+03  0.12500000000E+03 0.  0.
         25    1    1    2    0    0  0.60573438002E+02 -0.89813725660E+02  0.99510785801E+02  0.19303637792E+03  0.12500000000E+03 0.  0.
         25    1    1    2    0    0 -0.44943941125E+02  0.94234208098E+02  0.31499887797E+03  0.35461152963E+03  0.12500000000E+03 0.  0.
</event>
<event>
 5    0  0.5778896E-005  0.2952981E+03  0.7546771E-02  0.1087615E+00
         21   -1    0    0  502  501  0.00000000000E+00  0.00000000000E+00  0.88915797906E+02  0.88915797906E+02  0.00000000000E+00 0. -1.
         21   -1    0    0  501  502 -0.00000000000E+00 -0.00000000000E+00 -0.98071421626E+03  0.98071421626E+03  0.00000000000E+00 0. -1.
         25    1    1    2    0    0 -0.19615937477E+02  0.14533969499E+03 -0.36903594018E+03  0.41631831222E+03  0.12500000000E+03 0.  0.
         25    1    1    2    0    0 -0.96376511137E+02 -0.90270699579E+02 -0.38995930133E+03  0.43026792559E+03  0.12500000000E+03 0.  0.
         25    1    1    2    0    0  0.11599244861E+03 -0.55068995411E+02 -0.13280317685E+03  0.22304377636E+03  0.12500000000E+03 0.  0.
</event>
<event>
 5    0  0.5778896E-005  0.2874466E+03  0.7546771E-02  0.1091690E+00
         21   -1    0    0  502  501  0.00000000000E+00  0.00000000000E+00  0.26979586769E+03  0.26979586769E+03  0.00000000000E+00 0. -1.
         21   -1    0    0  501  502 -0.00000000000E+00 -0.00000000000E+00 -0.30625214706E+03  0.30625214706E+03  0.00000000000E+00 0. -1.
         25    1    1    2    0    0 -0.65324529710E+02  0.48329883721E+02  0.80340908562E+02  0.16935977513E+03  0.12500000000E+03 0.  0.
         25    1    1    2    0    0  0.38504398731E+02 -0.77483555816E+02 -0.20012929735E+03  0.25132255331E+03  0.12500000000E+03 0.  0.
         25    1    1    2    0    0  0.26820130979E+02  0.29153672095E+02  0.83332109426E+02  0.15536568631E+03  0.12500000000E+03 0.  0.
</event>
<event>
 5    0  0.5778896E-005  0.2627848E+03  0.7546771E-02  0.1105482E+00
         21   -1    0    0  502  501  0.00000000000E+00  0.00000000000E+00  0.51777477573E+02  0.51777477573E+02  0.00000000000E+00 0. -1.
         21   -1    0    0  501  502 -0.00000000000E+00 -0.00000000000E+00 -0.13337040706E+04  0.13337040706E+04  0.00000000000E+00 0. -1.
         25    1    1    2    0    0  0.63494085909E+02 -0.81453045019E+02 -0.48575546419E+03  0.51210298620E+03  0.12500000000E+03 0.  0.
         25    1    1    2    0    0  0.17234658201E+02  0.11579529382E+03 -0.60459155687E+03  0.62838008733E+03  0.12500000000E+03 0.  0.
         25    1    1    2    0    0 -0.80728744109E+02 -0.34342248805E+02 -0.19157957195E+03  0.24499847462E+03  0.12500000000E+03 0.  0.
</event>
<event>
 5    0  0.5778896E-005  0.3132612E+03  0.7546771E-02  0.1078793E+00
         21   -1    0    0  502  501  0.00000000000E+00  0.00000000000E+00  0.40727213910E+03  0.40727213910E+03  0.00000000000E+00 0.  1.
         21   -1    0    0  501  502 -0.00000000000E+00 -0.00000000000E+00 -0.24095084664E+03  0.24095084664E+03  0.00000000000E+00 0.  1.
         25    1    1    2    0    0  0.10641001217E+03 -0.72665386773E+02  0.16999458459E+03  0.24723775585E+03  0.12500000000E+03 0.  0.
         25    1    1    2    0    0  0.54554397151E+02  0.21785660210E+02  0.96279559766E+02  0.16836136988E+03  0.12500000000E+03 0.  0.
         25    1    1    2    0    0 -0.16096440932E+03  0.50879726563E+02 -0.99952851898E+02  0.23262386001E+03  0.12500000000E+03 0.  0.
</event>
<event>
 5    0  0.5778896E-005  0.3352364E+03  0.7546771E-02  0.1068843E+00
         21   -1    0    0  502  501  0.00000000000E+00  0.00000000000E+00  0.12485912150E+03  0.12485912150E+03  0.00000000000E+00 0.  1.
         21   -1    0    0  501  502 -0.00000000000E+00 -0.00000000000E+00 -0.90008198499E+03  0.90008198499E+03  0.00000000000E+00 0.  1.
         25    1    1    2    0    0  0.75650194962E+02 -0.19010123829E+03 -0.26442990922E+03  0.35694482723E+03  0.12500000000E+03 0.  0.
         25    1    1    2    0    0 -0.33696153741E+02  0.24180269257E+02 -0.19753251748E+02  0.13317397326E+03  0.12500000000E+03 0.  0.
         25    1    1    2    0    0 -0.41954041220E+02  0.16592096903E+03 -0.49103970253E+03  0.53482230600E+03  0.12500000000E+03 0.  0.
</event>
<event>
 5    0  0.5778896E-005  0.2803197E+03  0.7546771E-02  0.1095514E+00
         21   -1    0    0  502  501  0.00000000000E+00  0.00000000000E+00  0.47998559665E+03  0.47998559665E+03  0.00000000000E+00 0. -1.
         21   -1    0    0  501  502 -0.00000000000E+00 -0.00000000000E+00 -0.16371146168E+03  0.16371146168E+03  0.00000000000E+00 0. -1.
         25    1    1    2    0    0  0.10274203533E+03 -0.11655432275E+03  0.26953845984E+03  0.33528617226E+03  0.12500000000E+03 0.  0.
         25    1    1    2    0    0 -0.23460396423E+02  0.42863175264E+02 -0.74229124028E+01  0.13441629969E+03  0.12500000000E+03 0.  0.
         25    1    1    2    0    0 -0.79281638903E+02  0.73691147488E+02  0.54158587535E+02  0.17399458638E+03  0.12500000000E+03 0.  0.
</event>
<event>
 5    0  0.5778896E-005  0.3401746E+03  0.7546771E-02  0.1066722E+00
         21   -1    0    0  502  501  0.00000000000E+00  0.00000000000E+00  0.21968501478E+03  0.21968501478E+03  0.00000000000E+00 0. -1.
         21   -1    0    0  501  502 -0.00000000000E+00 -0.00000000000E+00 -0.52674866630E+03  0.52674866630E+03  0.00000000000E+00 0. -1.
         25    1    1    2    0    0  0.22535343176E+03 -0.50718634418E+02 -0.21352465183E+03  0.33848829526E+03  0.12500000000E+03 0.  0.
         25    1    1    2    0    0 -0.65972683101E+02  0.60982289024E+02  0.47287409107E+02  0.16103519351E+03  0.12500000000E+03 0.  0.
         25    1    1    2    0    0 -0.15938074866E+03 -0.10263654606E+02 -0.14082640880E+03  0.24691019231E+03  0.12500000000E+03 0.  0.
</event>
<event>
 5    0  0.5778896E-005  0.4248199E+03  0.7546771E-02  0.1035509E+00
         21   -1    0    0  502  501  0.00000000000E+00  0.00000000000E+00  0.10158399513E+04  0.10158399513E+04  0.00000000000E+00 0.  1.
         21   -1    0    0  501  502 -0.00000000000E+00 -0.00000000000E+00 -0.17765784220E+03  0.17765784220E+03  0.00000000000E+00 0.  1.
         25    1    1    2    0    0  0.11944629566E+03  0.30953117230E+03  0.50167556060E+03  0.61431289444E+03  0.12500000000E+03 0.  0.
         25    1    1    2    0    0  0.46959572951E+02 -0.13836364993E+03  0.83782640554E+02  0.20974802019E+03  0.12500000000E+03 0.  0.
         25    1    1    2    0    0 -0.16640586862E+03 -0.17116752237E+03  0.25272390798E+03  0.36943687890E+03  0.12500000000E+03 0.  0.
</event>
<event>
 5    0  0.5778896E-005  0.3754485E+03  0.7546771E-02  0.1052629E+00
         21   -1    0    0  502  501  0.00000000000E+00  0.00000000000E+00  0.94414768360E+03  0.94414768360E+03  0.00000000000E+00 0. -1.
         21   -1    0    0  501  502 -0.00000000000E+00 -0.00000000000E+00 -0.14930038157E+03  0.14930038157E+03  0.00000000000E+00 0. -1.
         25    1    1    2    0    0 -0.11142550359E+03  0.15328073064E+03  0.90112839705E+01  0.22719337242E+03  0.12500000000E+03 0.  0.
         25    1    1    2    0    0  0.14644820021E+02 -0.54873530678E+02  0.54385773548E+03  0.56092050378E+03  0.12500000000E+03 0.  0.
         25    1    1    2    0    0  0.96780683566E+02 -0.98407199959E+02  0.24197828258E+03  0.30533418897E+03  0.12500000000E+03 0.  0.
</event>
<event>
 5    0  0.5778896E-005  0.3304709E+03  0.7546771E-02  0.1070929E+00
         21   -1    0    0  502  501  0.00000000000E+00  0.00000000000E+00  0.41765723995E+03  0.41765723995E+03  0.00000000000E+00 0. -1.
         21   -1    0    0  501  502 -0.00000000000E+00 -0.00000000000E+00 -0.26148477307E+03  0.26148477307E+03  0.00000000000E+00 0. -1.
         25    1    1    2    0    0  0.11406088472E+03 -0.90261471615E+02  0.91170575143E+02  0.21235369659E+03  0.12500000000E+03 0.  0.
         25    1    1    2    0    0 -0.66884958092E+02 -0.95768921677E+02  0.14491436625E+03  0.22421074355E+03  0.12500000000E+03 0.  0.
         25    1    1    2    0    0 -0.47175926631E+02  0.18603039329E+03 -0.79912474524E+02  0.24257757288E+03  0.12500000000E+03 0.  0.
</event>
<event>
 5    0  0.5778896E-005  0.3299814E+03  0.7546771E-02  0.1071145E+00
         21   -1    0    0  502  501  0.00000000000E+00  0.00000000000E+00  0.15120520881E+04  0.15120520881E+04  0.00000000000E+00 0. -1.
         21   -1    0    0  501  502 -0.00000000000E+00 -0.00000000000E+00 -0.72013191956E+02  0.72013191956E+02  0.00000000000E+00 0. -1.
         25    1    1    2    0    0 -0.40581527257E+02 -0.17955872377E+02  0.48680432346E+03  0.50455200232E+03  0.12500000000E+03 0.  0.
         25    1    1    2    0    0  0.11645131861E+03 -0.17671549625E+03  0.61890358614E+03  0.66592486449E+03  0.12500000000E+03 0.  0.
         25    1    1    2    0    0 -0.75869791355E+02  0.19467136862E+03  0.33433098656E+03  0.41358841325E+03  0.12500000000E+03 0.  0.
</event>
<event>
 5    0  0.5778896E-005  0.2144896E+03  0.7546771E-02  0.1138059E+00
         21   -1    0    0  502  501  0.00000000000E+00  0.00000000000E+00  0.67973693781E+03  0.67973693781E+03  0.00000000000E+00 0. -1.
         21   -1    0    0  501  502 -0.00000000000E+00 -0.00000000000E+00 -0.67681751406E+02  0.67681751406E+02  0.00000000000E+00 0. -1.
         25    1    1    2    0    0  0.28377911106E+02  0.32245204669E+02  0.23268564894E+03  0.26760543770E+03  0.12500000000E+03 0.  0.
         25    1    1    2    0    0  0.23594431197E+02 -0.14993884104E+02  0.80560810867E+02  0.15131608636E+03  0.12500000000E+03 0.  0.
         25    1    1    2    0    0 -0.51972342303E+02 -0.17251320565E+02  0.29880872660E+03  0.32849716516E+03  0.12500000000E+03 0.  0.
</event>
<event>
 5    0  0.5778896E-005  0.1134217E+04  0.7546771E-02  0.9172469E-01
         21   -1    0    0  502  501  0.00000000000E+00  0.00000000000E+00  0.89463374480E+03  0.89463374480E+03  0.00000000000E+00 0.  1.
         21   -1    0    0  501  502 -0.00000000000E+00 -0.00000000000E+00 -0.14379610396E+04  0.14379610396E+04  0.00000000000E+00 0.  1.
         25    1    1    2    0    0 -0.24675011621E+03  0.55393772556E+02  0.24195519844E+03  0.37164688609E+03  0.12500000000E+03 0.  0.
         25    1    1    2    0    0  0.49995512429E+00  0.38669867141E+03  0.45830180406E+03  0.61253706503E+03  0.12500000000E+03 0.  0.
         25    1    1    2    0    0  0.24625016108E+03 -0.44209244397E+03 -0.12435842973E+04  0.13484108333E+04  0.12500000000E+03 0.  0.
</event>
<event>
 5    0  0.5778896E-005  0.3978095E+03  0.7546771E-02  0.1044541E+00
         21   -1    0    0  502  501  0.00000000000E+00  0.00000000000E+00  0.91986809455E+03  0.91986809455E+03  0.00000000000E+00 0.  1.
         21   -1    0    0  501  502 -0.00000000000E+00 -0.00000000000E+00 -0.17203813189E+03  0.17203813189E+03  0.00000000000E+00 0.  1.
         25    1    1    2    0    0 -0.46980357801E+02 -0.24417804746E+01 -0.20620014440E+02  0.13514178224E+03  0.12500000000E+03 0.  0.
         25    1    1    2    0    0  0.13783710662E+03 -0.21314536959E+03  0.52665144276E+03  0.59784342323E+03  0.12500000000E+03 0.  0.
         25    1    1    2    0    0 -0.90856748823E+02  0.21558715006E+03  0.24179853434E+03  0.35892102096E+03  0.12500000000E+03 0.  0.
</event>
<event>
 5    0  0.5778896E-005  0.3262378E+03  0.7546771E-02  0.1072814E+00
         21   -1    0    0  502  501  0.00000000000E+00  0.00000000000E+00  0.51678904086E+03  0.51678904086E+03  0.00000000000E+00 0.  1.
         21   -1    0    0  501  502 -0.00000000000E+00 -0.00000000000E+00 -0.20594685073E+03  0.20594685073E+03  0.00000000000E+00 0.  1.
         25    1    1    2    0    0 -0.10405767554E+03 -0.13657806199E+03  0.14277687274E+03  0.25591366170E+03  0.12500000000E+03 0.  0.
         25    1    1    2    0    0  0.15946919512E+03 -0.31442308257E+02  0.23499067145E+02  0.20638858761E+03  0.12500000000E+03 0.  0.
         25    1    1    2    0    0 -0.55411519580E+02  0.16802037025E+03  0.14456625025E+03  0.26043364228E+03  0.12500000000E+03 0.  0.
</event>
<event>
 5    0  0.5778896E-005  0.3004725E+03  0.7546771E-02  0.1085005E+00
         21   -1    0    0  502  501  0.00000000000E+00  0.00000000000E+00  0.24430862489E+04  0.24430862489E+04  0.00000000000E+00 0. -1.
         21   -1    0    0  501  502 -0.00000000000E+00 -0.00000000000E+00 -0.36954771814E+02  0.36954771814E+02  0.00000000000E+00 0. -1.
         25    1    1    2    0    0  0.45952806243E+02  0.24446015440E+02  0.41212692961E+03  0.43380050044E+03  0.12500000000E+03 0.  0.
         25    1    1    2    0    0  0.25651722557E+02  0.80591606708E+02  0.24211590084E+03  0.28530357057E+03  0.12500000000E+03 0.  0.
         25    1    1    2    0    0 -0.71604528800E+02 -0.10503762215E+03  0.17518886467E+04  0.17609369497E+04  0.12500000000E+03 0.  0.
</event>
<event>
 5    0  0.5778896E-005  0.2897506E+03  0.7546771E-02  0.1090479E+00
         21   -1    0    0  502  501  0.00000000000E+00  0.00000000000E+00  0.19827957769E+03  0.19827957769E+03  0.00000000000E+00 0. -1.
         21   -1    0    0  501  502 -0.00000000000E+00 -0.00000000000E+00 -0.42341940002E+03  0.42341940002E+03  0.00000000000E+00 0. -1.
         25    1    1    2    0    0 -0.12960579984E+03 -0.16575609301E+02 -0.25885670107E+03  0.31575972806E+03  0.12500000000E+03 0.  0.
         25    1    1    2    0    0  0.49611811315E+02 -0.56690104653E+01 -0.37648810315E+02  0.13977089261E+03  0.12500000000E+03 0.  0.
         25    1    1    2    0    0  0.79993988523E+02  0.22244619767E+02  0.71365689054E+02  0.16616835704E+03  0.12500000000E+03 0.  0.
</event>
<event>
 5    0  0.7686318E-005  0.3286655E+03  0.7546771E-02  0.1071729E+00
         21   -1    0    0  502  501  0.00000000000E+00  0.00000000000E+00  0.20821004403E+03  0.20821004403E+03  0.00000000000E+00 0. -1.
         21   -1    0    0  501  502 -0.00000000000E+00 -0.00000000000E+00 -0.51880777097E+03  0.51880777097E+03  0.00000000000E+00 0. -1.
         25    1    1    2    0    0  0.18623537306E+03  0.27413392545E+02 -0.31177743121E+02  0.22810558944E+03  0.12500000000E+03 0.  0.
         25    1    1    2    0    0 -0.15358108347E+03 -0.42690319399E+02 -0.13673839457E+02  0.20303099876E+03  0.12500000000E+03 0.  0.
         25    1    1    2    0    0 -0.32654289585E+02  0.15276926854E+02 -0.26574614437E+03  0.29588122679E+03  0.12500000000E+03 0.  0.
</event>
<event>
 5    0  0.5778896E-005  0.3086456E+03  0.7546771E-02  0.1080997E+00
         21   -1    0    0  502  501  0.00000000000E+00  0.00000000000E+00  0.75483749246E+03  0.75483749246E+03  0.00000000000E+00 0.  1.
         21   -1    0    0  501  502 -0.00000000000E+00 -0.00000000000E+00 -0.12620211734E+03  0.12620211734E+03  0.00000000000E+00 0.  1.
         25    1    1    2    0    0 -0.15079299853E+02 -0.58239706616E+01  0.15462278490E+03  0.19948561233E+03  0.12500000000E+03 0.  0.
         25    1    1    2    0    0  0.26660874882E+02 -0.10900827920E+03 -0.10228226738E+02  0.16829504985E+03  0.12500000000E+03 0.  0.
         25    1    1    2    0    0 -0.11581575030E+02  0.11483224986E+03  0.48424081696E+03  0.51325894761E+03  0.12500000000E+03 0.  0.
</event>
<event>
 5    0  0.5778896E-005  0.2223427E+03  0.7546771E-02  0.1132148E+00
         21   -1    0    0  502  501  0.00000000000E+00  0.00000000000E+00  0.11195506647E+03  0.11195506647E+03  0.00000000000E+00 0. -1.
         21   -1    0    0  501  502 -0.00000000000E+00 -0.00000000000E+00 -0.44157265257E+03  0.44157265257E+03  0.00000000000E+00 0. -1.
         25    1    1    2    0    0  0.30544499012E+02 -0.39129114296E+02 -0.10575876236E+03  0.17109637583E+03  0.12500000000E+03 0.  0.
         25    1    1    2    0    0  0.57558389895E+02  0.22010960763E+02 -0.44921036300E+02  0.14642523739E+03  0.12500000000E+03 0.  0.
         25    1    1    2    0    0 -0.88102888907E+02  0.17118153533E+02 -0.17893778744E+03  0.23600610582E+03  0.12500000000E+03 0.  0.
</event>
<event>
 5    0  0.5778896E-005  0.2460281E+03  0.7546771E-02  0.1115841E+00
         21   -1    0    0  502  501  0.00000000000E+00  0.00000000000E+00  0.59647161049E+03  0.59647161049E+03  0.00000000000E+00 0.  1.
         21   -1    0    0  501  502 -0.00000000000E+00 -0.00000000000E+00 -0.10147977096E+03  0.10147977096E+03  0.00000000000E+00 0.  1.
         25    1    1    2    0    0  0.87222716171E+02  0.94591355330E+02  0.14855372189E+03  0.23291314906E+03  0.12500000000E+03 0.  0.
         25    1    1    2    0    0 -0.75144081515E+02 -0.23046202511E+02  0.96736602251E+02  0.17652402288E+03  0.12500000000E+03 0.  0.
         25    1    1    2    0    0 -0.12078634657E+02 -0.71545152819E+02  0.24970151539E+03  0.28851420952E+03  0.12500000000E+03 0.  0.
</event>
<event>
 5    0  0.5778896E-005  0.4906033E+03  0.7546771E-02  0.1016261E+00
         21   -1    0    0  502  501  0.00000000000E+00  0.00000000000E+00  0.91762506737E+02  0.91762506737E+02  0.00000000000E+00 0.  1.
         21   -1    0    0  501  502 -0.00000000000E+00 -0.00000000000E+00 -0.26229843339E+04  0.26229843339E+04  0.00000000000E+00 0.  1.
         25    1    1    2    0    0  0.11129550284E+03 -0.28569716341E+03 -0.17458890109E+04  0.17770095657E+04  0.12500000000E+03 0.  0.
         25    1    1    2    0    0  0.79572326548E+02  0.47021573683E+01 -0.18984700297E+03  0.24087496751E+03  0.12500000000E+03 0.  0.
         25    1    1    2    0    0 -0.19086782938E+03  0.28099500604E+03 -0.59548581333E+03  0.69686230748E+03  0.12500000000E+03 0.  0.
</event>
<event>
 5    0  0.5788853E-005  0.3203932E+03  0.7546771E-02  0.1075468E+00
         21   -1    0    0  502  501  0.00000000000E+00  0.00000000000E+00  0.75217864411E+03  0.75217864411E+03  0.00000000000E+00 0.  1.
         21   -1    0    0  501  502 -0.00000000000E+00 -0.00000000000E+00 -0.13647265231E+03  0.13647265231E+03  0.00000000000E+00 0.  1.
         25    1    1    2    0    0  0.12388125455E+03  0.90698979810E+02  0.26901318407E+03  0.33401491490E+03  0.12500000000E+03 0.  0.
         25    1    1    2    0    0 -0.66434066328E+02  0.96563037341E+02  0.51430787129E+02  0.17890788472E+03  0.12500000000E+03 0.  0.
         25    1    1    2    0    0 -0.57447188227E+02 -0.18726201715E+03  0.29526202059E+03  0.37572849680E+03  0.12500000000E+03 0.  0.
</event>
<event>
 5    0  0.5778896E-005  0.3253789E+03  0.7546771E-02  0.1073200E+00
         21   -1    0    0  502  501  0.00000000000E+00  0.00000000000E+00  0.34377069175E+03  0.34377069175E+03  0.00000000000E+00 0. -1.
         21   -1    0    0  501  502 -0.00000000000E+00 -0.00000000000E+00 -0.30797100660E+03  0.30797100660E+03  0.00000000000E+00 0. -1.
         25    1    1    2    0    0  0.16784724253E+03 -0.39583052163E+02 -0.44959924185E+02  0.21768304855E+03  0.12500000000E+03 0.  0.
         25    1    1    2    0    0 -0.14392393665E+02  0.13339651002E+03 -0.34437925848E+02  0.18658172637E+03  0.12500000000E+03 0.  0.
         25    1    1    2    0    0 -0.15345484887E+03 -0.93813457853E+02  0.11519753518E+03  0.24747692342E+03  0.12500000000E+03 0.  0.
</event>
<event>
 5    0  0.5778896E-005  0.4818138E+03  0.7546771E-02  0.1018638E+00
         21   -1    0    0  502  501  0.00000000000E+00  0.00000000000E+00  0.17636285655E+03  0.17636285655E+03  0.00000000000E+00 0.  1.
         21   -1    0    0  501  502 -0.00000000000E+00 -0.00000000000E+00 -0.13162893499E+04  0.13162893499E+04  0.00000000000E+00 0.  1.
         25    1    1    2    0    0  0.26240602860E+03 -0.31746159472E+03 -0.43503942759E+03  0.61198291768E+03  0.12500000000E+03 0.  0.
         25    1    1    2    0    0 -0.20754255318E+03  0.86228086871E+02 -0.30433912031E+03  0.39844258620E+03  0.12500000000E+03 0.  0.
         25    1    1    2    0    0 -0.54863475425E+02  0.23123350785E+03 -0.40054794549E+03  0.48222670263E+03  0.12500000000E+03 0.  0.
</event>
<event>
 5    0  0.6078098E-005  0.2808330E+03  0.7546771E-02  0.1095235E+00
         21   -1    0    0  502  501  0.00000000000E+00  0.00000000000E+00  0.12486161711E+03  0.12486161711E+03  0.00000000000E+00 0. -1.
         21   -1    0    0  501  502 -0.00000000000E+00 -0.00000000000E+00 -0.63163659396E+03  0.63163659396E+03  0.00000000000E+00 0.  1.
         25    1    1    2    0    0 -0.70355685884E+02  0.51635504376E+02 -0.32002563697E+03  0.35448209569E+03  0.12500000000E+03 0.  0.
         25    1    1    2    0    0 -0.13819867600E+02  0.85423945755E+02 -0.72054376625E+02  0.16824111400E+03  0.12500000000E+03 0.  0.
         25    1    1    2    0    0  0.84175553483E+02 -0.13705945013E+03 -0.11469496326E+03  0.23377500138E+03  0.12500000000E+03 0.  0.
</event>
<event>
 5    0  0.5778896E-005  0.3055967E+03  0.7546771E-02  0.1082476E+00
         21   -1    0    0  502  501  0.00000000000E+00  0.00000000000E+00  0.34280118231E+04  0.34280118231E+04  0.00000000000E+00 0. -1.
         21   -1    0    0  501  502 -0.00000000000E+00 -0.00000000000E+00 -0.27243000260E+02  0.27243000260E+02  0.00000000000E+00 0. -1.
         25    1    1    2    0    0  0.10169500444E+03 -0.27453263282E+02  0.38767152303E+03  0.42072528491E+03  0.12500000000E+03 0.  0.
         25    1    1    2    0    0 -0.16514010718E+03  0.51301400130E+02  0.20339271865E+04  0.20450887240E+04  0.12500000000E+03 0.  0.
         25    1    1    2    0    0  0.63445102739E+02 -0.23848136848E+02  0.97917011323E+03  0.98944081446E+03  0.12500000000E+03 0.  0.
</event>
<event>
 5    0  0.5778896E-005  0.2743809E+03  0.7546771E-02  0.1098798E+00
         21   -1    0    0  502  501  0.00000000000E+00  0.00000000000E+00  0.48073208109E+03  0.48073208109E+03  0.00000000000E+00 0. -1.
         21   -1    0    0  501  502 -0.00000000000E+00 -0.00000000000E+00 -0.15660465393E+03  0.15660465393E+03  0.00000000000E+00 0. -1.
         25    1    1    2    0    0 -0.50659908470E+02  0.90361450596E+02  0.50563347262E+02  0.17003902542E+03  0.12500000000E+03 0.  0.
         25    1    1    2    0    0 -0.15985923130E+02 -0.86833488032E+02 -0.67680599254E+01  0.15318750281E+03  0.12500000000E+03 0.  0.
         25    1    1    2    0    0  0.66645831600E+02 -0.35279625639E+01  0.28033213983E+03  0.31411020679E+03  0.12500000000E+03 0.  0.
</event>
<event>
 5    0  0.5778896E-005  0.3597840E+03  0.7546771E-02  0.1058669E+00
         21   -1    0    0  502  501  0.00000000000E+00  0.00000000000E+00  0.67621080008E+03  0.67621080008E+03  0.00000000000E+00 0. -1.
         21   -1    0    0  501  502 -0.00000000000E+00 -0.00000000000E+00 -0.19142631462E+03  0.19142631462E+03  0.00000000000E+00 0. -1.
         25    1    1    2    0    0  0.64406130914E+02  0.52184448503E+02  0.21193903024E+03  0.25964306058E+03  0.12500000000E+03 0.  0.
         25    1    1    2    0    0 -0.94470879491E+02  0.16994176026E+03 -0.30671620587E+01  0.23116954046E+03  0.12500000000E+03 0.  0.
         25    1    1    2    0    0  0.30064748577E+02 -0.22212620876E+03  0.27591261728E+03  0.37682451367E+03  0.12500000000E+03 0.  0.
</event>
<event>
 5    0  0.5778896E-005  0.2419859E+03  0.7546771E-02  0.1118477E+00
         21   -1    0    0  502  501  0.00000000000E+00  0.00000000000E+00  0.80666956115E+03  0.80666956115E+03  0.00000000000E+00 0. -1.
         21   -1    0    0  501  502 -0.00000000000E+00 -0.00000000000E+00 -0.72591278956E+02  0.72591278956E+02  0.00000000000E+00 0. -1.
         25    1    1    2    0    0  0.59297935869E+02 -0.39638797215E+02  0.13310776103E+03  0.19603610761E+03  0.12500000000E+03 0.  0.
         25    1    1    2    0    0  0.15879939491E+02  0.10441331500E+03  0.26866571046E+03  0.31458000064E+03  0.12500000000E+03 0.  0.
         25    1    1    2    0    0 -0.75177875360E+02 -0.64774517789E+02  0.33230481071E+03  0.36864473185E+03  0.12500000000E+03 0.  0.
</event>
<event>
 5    0  0.5778896E-005  0.3442325E+03  0.7546771E-02  0.1065007E+00
         21   -1    0    0  502  501  0.00000000000E+00  0.00000000000E+00  0.90691029549E+02  0.90691029549E+02  0.00000000000E+00 0. -1.
         21   -1    0    0  501  502 -0.00000000000E+00 -0.00000000000E+00 -0.13065902636E+04  0.13065902636E+04  0.00000000000E+00 0. -1.
         25    1    1    2    0    0 -0.74231418318E+02  0.13318891440E+02 -0.58340044451E+03  0.60138903797E+03  0.12500000000E+03 0.  0.
         25    1    1    2    0    0  0.55841305348E+02 -0.18909494174E+03 -0.18175958314E+03  0.29586600758E+03  0.12500000000E+03 0.  0.
         25    1    1    2    0    0  0.18390112970E+02  0.17577605030E+03 -0.45073920644E+03  0.50002624765E+03  0.12500000000E+03 0.  0.
</event>
<event>
 5    0  0.5778896E-005  0.2875802E+03  0.7546771E-02  0.1091619E+00
         21   -1    0    0  502  501  0.00000000000E+00  0.00000000000E+00  0.41399714839E+03  0.41399714839E+03  0.00000000000E+00 0.  1.
         21   -1    0    0  501  502 -0.00000000000E+00 -0.00000000000E+00 -0.19976553245E+03  0.19976553245E+03  0.00000000000E+00 0.  1.
         25    1    1    2    0    0 -0.10645531313E+03  0.18428816928E+02  0.24436830730E+03  0.29498004102E+03  0.12500000000E+03 0.  0.
         25    1    1    2    0    0  0.10219456684E+03 -0.21672532229E+02  0.49756479596E+02  0.17033536158E+03  0.12500000000E+03 0.  0.
         25    1    1    2    0    0  0.42607462899E+01  0.32437153009E+01 -0.79893170960E+02  0.14844727823E+03  0.12500000000E+03 0.  0.
</event>
<event>
 5    0  0.5778896E-005  0.3028450E+03  0.7546771E-02  0.1083827E+00
         21   -1    0    0  502  501  0.00000000000E+00  0.00000000000E+00  0.70223175315E+02  0.70223175315E+02  0.00000000000E+00 0. -1.
         21   -1    0    0  501  502 -0.00000000000E+00 -0.00000000000E+00 -0.13060518614E+04  0.13060518614E+04  0.00000000000E+00 0. -1.
         25    1    1    2    0    0  0.16851260100E+03  0.64173912836E+02 -0.21794516739E+03  0.30925698662E+03  0.12500000000E+03 0.  0.
         25    1    1    2    0    0 -0.11384960655E+03 -0.54588159244E+02 -0.47405162688E+03  0.50625245184E+03  0.12500000000E+03 0.  0.
         25    1    1    2    0    0 -0.54662994452E+02 -0.95857535917E+01 -0.54383189181E+03  0.56076559825E+03  0.12500000000E+03 0.  0.
</event>
<event>
 5    0  0.5778896E-005  0.3374637E+03  0.7546771E-02  0.1067881E+00
         21   -1    0    0  502  501  0.00000000000E+00  0.00000000000E+00  0.87935379680E+03  0.87935379680E+03  0.00000000000E+00 0.  1.
         21   -1    0    0  501  502 -0.00000000000E+00 -0.00000000000E+00 -0.12950617456E+03  0.12950617456E+03  0.00000000000E+00 0.  1.
         25    1    1    2    0    0 -0.16302712475E+03 -0.37875813684E+02  0.58557971554E+02  0.21694805069E+03  0.12500000000E+03 0.  0.
         25    1    1    2    0    0  0.15179530687E+03  0.12484469869E+03  0.39389949680E+03  0.45761318551E+03  0.12500000000E+03 0.  0.
         25    1    1    2    0    0  0.11231817888E+02 -0.86968885010E+02  0.29739015389E+03  0.33429873515E+03  0.12500000000E+03 0.  0.
</event>
<event>
 5    0  0.5778896E-005  0.2937750E+03  0.7546771E-02  0.1088394E+00
         21   -1    0    0  502  501  0.00000000000E+00  0.00000000000E+00  0.61583519779E+03  0.61583519779E+03  0.00000000000E+00 0.  1.
         21   -1    0    0  501  502 -0.00000000000E+00 -0.00000000000E+00 -0.14014102548E+03  0.14014102548E+03  0.00000000000E+00 0.  1.
         25    1    1    2    0    0  0.99790570867E+02 -0.33480174093E+02  0.31879017095E+03  0.35823351767E+03  0.12500000000E+03 0.  0.
         25    1    1    2    0    0 -0.18481347021E+02  0.30015515969E+02  0.20355582362E+03  0.24145903320E+03  0.12500000000E+03 0.  0.
         25    1    1    2    0    0 -0.81309223846E+02  0.34646581236E+01 -0.46651822252E+02  0.15628367240E+03  0.12500000000E+03 0.  0.
</event>
<event>
 5    0  0.5778896E-005  0.4376287E+03  0.7546771E-02  0.1031477E+00
         21   -1    0    0  502  501  0.00000000000E+00  0.00000000000E+00  0.18034265922E+04  0.18034265922E+04  0.00000000000E+00 0. -1.
         21   -1    0    0  501  502 -0.00000000000E+00 -0.00000000000E+00 -0.10619719605E+03  0.10619719605E+03  0.00000000000E+00 0. -1.
         25    1    1    2    0    0  0.90904257407E+02  0.26081468509E+03  0.36149419394E+03  0.47179543897E+03  0.12500000000E+03 0.  0.
         25    1    1    2    0    0  0.95941262307E+02 -0.26281207654E+03  0.81113790364E+03  0.86708973705E+03  0.12500000000E+03 0.  0.
         25    1    1    2    0    0 -0.18684551971E+03  0.19973914425E+01  0.52459729853E+03  0.57073861218E+03  0.12500000000E+03 0.  0.
</event>
<event>
 5    0  0.5778896E-005  0.2337206E+03  0.7546771E-02  0.1124048E+00
         21   -1    0    0  502  501  0.00000000000E+00  0.00000000000E+00  0.37578579989E+03  0.37578579989E+03  0.00000000000E+00 0. -1.
         21   -1    0    0  501  502 -0.00000000000E+00 -0.00000000000E+00 -0.14536296613E+03  0.14536296613E+03  0.00000000000E+00 0. -1.
         25    1    1    2    0    0  0.55607702913E+02 -0.11662188201E+02  0.16924799993E+03  0.21794060828E+03  0.12500000000E+03 0.  0.
         25    1    1    2    0    0 -0.73124377657E+02  0.55897887528E+02  0.67585827174E+02  0.16930620920E+03  0.12500000000E+03 0.  0.
         25    1    1    2    0    0  0.17516674743E+02 -0.44235699328E+02 -0.64109933365E+01  0.13390194855E+03  0.12500000000E+03 0.  0.
</event>
<event>
 5    0  0.7478787E-005  0.3820929E+03  0.7546771E-02  0.1050163E+00
         21   -1    0    0  502  501  0.00000000000E+00  0.00000000000E+00  0.27574861023E+03  0.27574861023E+03  0.00000000000E+00 0. -1.
         21   -1    0    0  501  502 -0.00000000000E+00 -0.00000000000E+00 -0.52944945681E+03  0.52944945681E+03  0.00000000000E+00 0.  1.
         25    1    1    2    0    0 -0.41325507064E+01  0.73892505643E+02 -0.28780346719E+03  0.32238643906E+03  0.12500000000E+03 0.  0.
         25    1    1    2    0    0  0.20453632751E+02  0.15688760767E+03  0.78020085317E+02  0.21620408471E+03  0.12500000000E+03 0.  0.
         25    1    1    2    0    0 -0.16321082044E+02 -0.23078011331E+03 -0.43917464714E+02  0.26660754326E+03  0.12500000000E+03 0.  0.
</event>
<event>
 5    0  0.5778896E-005  0.2829932E+03  0.7546771E-02  0.1094065E+00
         21   -1    0    0  502  501  0.00000000000E+00  0.00000000000E+00  0.30826431821E+03  0.30826431821E+03  0.00000000000E+00 0.  1.
         21   -1    0    0  501  502 -0.00000000000E+00 -0.00000000000E+00 -0.25979380751E+03  0.25979380751E+03  0.00000000000E+00 0.  1.
         25    1    1    2    0    0 -0.46738341073E+02 -0.81256456137E+02  0.13752725847E+03  0.20814857918E+03  0.12500000000E+03 0.  0.
         25    1    1    2    0    0 -0.81330199119E+02  0.48997421220E+02 -0.83911376488E+02  0.17799288660E+03  0.12500000000E+03 0.  0.
         25    1    1    2    0    0  0.12806854019E+03  0.32259034917E+02 -0.51453712822E+01  0.18191665995E+03  0.12500000000E+03 0.  0.
</event>
<event>
 5    0  0.5778896E-005  0.2551703E+03  0.7546771E-02  0.1110080E+00
         21   -1    0    0  502  501  0.00000000000E+00  0.00000000000E+00  0.23357589509E+03  0.23357589509E+03  0.00000000000E+00 0.  1.
         21   -1    0    0  501  502 -0.00000000000E+00 -0.00000000000E+00 -0.27876104602E+03  0.27876104602E+03  0.00000000000E+00 0.  1.
         25    1    1    2    0    0  0.54701694901E+02 -0.11644155003E+02 -0.12802395112E+03  0.18746464689E+03  0.12500000000E+03 0.  0.
         25    1    1    2    0    0  0.29693738255E+02 -0.32842813190E+02  0.10084355045E+03  0.16659768947E+03  0.12500000000E+03 0.  0.
         25    1    1    2    0    0 -0.84395433156E+02  0.44486968193E+02 -0.18004750269E+02  0.15827460475E+03  0.12500000000E+03 0.  0.
</event>
<event>
 5    0  0.5778896E-005  0.2712787E+03  0.7546771E-02  0.1100550E+00
         21   -1    0    0  502  501  0.00000000000E+00  0.00000000000E+00  0.65353064525E+02  0.65353064525E+02  0.00000000000E+00 0. -1.
         21   -1    0    0  501  502 -0.00000000000E+00 -0.00000000000E+00 -0.11260699159E+04  0.11260699159E+04  0.00000000000E+00 0. -1.
         25    1    1    2    0    0 -0.15269229607E+02 -0.33652065384E+02 -0.48340974049E+03  0.50067513228E+03  0.12500000000E+03 0.  0.
         25    1    1    2    0    0  0.12966333649E+03 -0.37985710127E+02 -0.37219895155E+03  0.41522590784E+03  0.12500000000E+03 0.  0.
         25    1    1    2    0    0 -0.11439410689E+03  0.71637775512E+02 -0.20510815936E+03  0.27552194034E+03  0.12500000000E+03 0.  0.
</event>
<event>
 5    0  0.5778896E-005  0.3142409E+03  0.7546771E-02  0.1078331E+00
         21   -1    0    0  502  501  0.00000000000E+00  0.00000000000E+00  0.16378550918E+03  0.16378550918E+03  0.00000000000E+00 0.  1.
         21   -1    0    0  501  502 -0.00000000000E+00 -0.00000000000E+00 -0.60290639499E+03  0.60290639499E+03  0.00000000000E+00 0.  1.
         25    1    1    2    0    0 -0.16273089408E+03  0.10581913337E+03 -0.88066738775E+02  0.24710277893E+03  0.12500000000E+03 0.  0.
         25    1    1    2    0    0  0.17812966761E+03  0.12480655356E+01 -0.19257582401E+03  0.29058937376E+03  0.12500000000E+03 0.  0.
         25    1    1    2    0    0 -0.15398773531E+02 -0.10706719891E+03 -0.15847832303E+03  0.22899975148E+03  0.12500000000E+03 0.  0.
</event>
<event>
 5    0  0.5778896E-005  0.4858379E+03  0.7546771E-02  0.1017543E+00
         21   -1    0    0  502  501  0.00000000000E+00  0.00000000000E+00  0.61649745965E+03  0.61649745965E+03  0.00000000000E+00 0.  1.
         21   -1    0    0  501  502 -0.00000000000E+00 -0.00000000000E+00 -0.38287011412E+03  0.38287011412E+03  0.00000000000E+00 0.  1.
         25    1    1    2    0    0  0.58963435576E+01  0.11075507230E+03  0.17991583387E+03  0.24555276456E+03  0.12500000000E+03 0.  0.
         25    1    1    2    0    0  0.29886201078E+03 -0.42796872815E+02  0.20422820983E+03  0.38533652241E+03  0.12500000000E+03 0.  0.
         25    1    1    2    0    0 -0.30475835434E+03 -0.67958199488E+02 -0.15051669816E+03  0.36847828680E+03  0.12500000000E+03 0.  0.
</event>
<event>
 5    0  0.6059975E-005  0.2817878E+03  0.7546771E-02  0.1094716E+00
         21   -1    0    0  502  501  0.00000000000E+00  0.00000000000E+00  0.44397426296E+02  0.44397426296E+02  0.00000000000E+00 0.  1.
         21   -1    0    0  501  502 -0.00000000000E+00 -0.00000000000E+00 -0.17884898826E+04  0.17884898826E+04  0.00000000000E+00 0.  1.
         25    1    1    2    0    0 -0.10887759305E+02 -0.34651865002E+02 -0.23763696352E+03  0.27095317212E+03  0.12500000000E+03 0.  0.
         25    1    1    2    0    0  0.72252392385E+02 -0.34217805642E+02 -0.21536369182E+03  0.26152970421E+03  0.12500000000E+03 0.  0.
         25    1    1    2    0    0 -0.61364633080E+02  0.68869670643E+02 -0.12910918009E+04  0.13004044326E+04  0.12500000000E+03 0.  0.
</event>
<event>
 5    0  0.7014262E-005  0.3724807E+03  0.7546771E-02  0.1053748E+00
         21   -1    0    0  502  501  0.00000000000E+00  0.00000000000E+00  0.19892025625E+03  0.19892025625E+03  0.00000000000E+00 0. -1.
         21   -1    0    0  501  502 -0.00000000000E+00 -0.00000000000E+00 -0.69747475144E+03  0.69747475144E+03  0.00000000000E+00 0. -1.
         25    1    1    2    0    0 -0.18378216619E+03 -0.26738816899E+02 -0.22454138998E+03  0.31707204978E+03  0.12500000000E+03 0.  0.
         25    1    1    2    0    0  0.17840149938E+03  0.95293187965E+02 -0.34576746001E+03  0.41962843452E+03  0.12500000000E+03 0.  0.
         25    1    1    2    0    0  0.53806668127E+01 -0.68554371067E+02  0.71754354793E+02  0.15969452339E+03  0.12500000000E+03 0.  0.
</event>
<event>
 5    0  0.5778896E-005  0.3560220E+03  0.7546771E-02  0.1060170E+00
         21   -1    0    0  502  501  0.00000000000E+00  0.00000000000E+00  0.71301689229E+02  0.71301689229E+02  0.00000000000E+00 0. -1.
         21   -1    0    0  501  502 -0.00000000000E+00 -0.00000000000E+00 -0.17776814009E+04  0.17776814009E+04  0.00000000000E+00 0. -1.
         25    1    1    2    0    0  0.75979410048E+02 -0.71455494084E+01 -0.24442305661E+03  0.28494132770E+03  0.12500000000E+03 0.  0.
         25    1    1    2    0    0  0.18210874016E+03 -0.27624332109E+02 -0.34692177308E+03  0.41219705676E+03  0.12500000000E+03 0.  0.
         25    1    1    2    0    0 -0.25808815021E+03  0.34769881518E+02 -0.11150348820E+04  0.11518447057E+04  0.12500000000E+03 0.  0.
</event>
<event>
 5    0  0.5778896E-005  0.6569418E+03  0.7546771E-02  0.9793840E-01
         21   -1    0    0  502  501  0.00000000000E+00  0.00000000000E+00  0.46682930267E+03  0.46682930267E+03  0.00000000000E+00 0. -1.
         21   -1    0    0  501  502 -0.00000000000E+00 -0.00000000000E+00 -0.92447595853E+03  0.92447595853E+03  0.00000000000E+00 0. -1.
         25    1    1    2    0    0 -0.26421368507E+02  0.18179327139E+03 -0.71414332106E+02  0.23339213583E+03  0.12500000000E+03 0.  0.
         25    1    1    2    0    0 -0.66518204236E+02 -0.61352694805E+03 -0.26538562172E+03  0.68329679913E+03  0.12500000000E+03 0.  0.
         25    1    1    2    0    0  0.92939572743E+02  0.43173367666E+03 -0.12084670203E+03  0.47461632624E+03  0.12500000000E+03 0.  0.
</event>
<event>
 5    0  0.5778896E-005  0.3160234E+03  0.7546771E-02  0.1077494E+00
         21   -1    0    0  502  501  0.00000000000E+00  0.00000000000E+00  0.85236198816E+02  0.85236198816E+02  0.00000000000E+00 0.  1.
         21   -1    0    0  501  502 -0.00000000000E+00 -0.00000000000E+00 -0.11716947019E+04  0.11716947019E+04  0.00000000000E+00 0.  1.
         25    1    1    2    0    0  0.17081186155E+03 -0.64921851837E+02 -0.55949438758E+03  0.60170633088E+03  0.12500000000E+03 0.  0.
         25    1    1    2    0    0  0.29112205501E+02  0.71629794393E+02 -0.26251969884E+03  0.30086531909E+03  0.12500000000E+03 0.  0.
         25    1    1    2    0    0 -0.19992406705E+03 -0.67079425554E+01 -0.26444441666E+03  0.35435925073E+03  0.12500000000E+03 0.  0.
</event>
<event>
 5    0  0.5778896E-005  0.3608727E+03  0.7546771E-02  0.1058239E+00
         21   -1    0    0  502  501  0.00000000000E+00  0.00000000000E+00  0.18027348962E+04  0.18027348962E+04  0.00000000000E+00 0.  1.
         21   -1    0    0  501  502 -0.00000000000E+00 -0.00000000000E+00 -0.72239729343E+02  0.72239729343E+02  0.00000000000E+00 0.  1.
         25    1    1    2    0    0 -0.14239018845E+03  0.42284646422E+02  0.32183573922E+03  0.37585396118E+03  0.12500000000E+03 0.  0.
         25    1    1    2    0    0  0.14658501934E+03  0.13840812681E+03  0.38556543481E+03  0.45269159699E+03  0.12500000000E+03 0.  0.
         25    1    1    2    0    0 -0.41948308926E+01 -0.18069277323E+03  0.10230939928E+04  0.10464290674E+04  0.12500000000E+03 0.  0.
</event>
<event>
 5    0  0.5778896E-005  0.3067980E+03  0.7546771E-02  0.1081891E+00
         21   -1    0    0  502  501  0.00000000000E+00  0.00000000000E+00  0.17645579910E+03  0.17645579910E+03  0.00000000000E+00 0.  1.
         21   -1    0    0  501  502 -0.00000000000E+00 -0.00000000000E+00 -0.53341976841E+03  0.53341976841E+03  0.00000000000E+00 0.  1.
         25    1    1    2    0    0  0.16538274387E+03  0.11151515011E+02 -0.19790639316E+03  0.28682354978E+03  0.12500000000E+03 0.  0.
         25    1    1    2    0    0 -0.36026650598E+01  0.19821863238E+02 -0.17461687224E+03  0.21568944695E+03  0.12500000000E+03 0.  0.
         25    1    1    2    0    0 -0.16178007881E+03 -0.30973378249E+02  0.15559296083E+02  0.20736257077E+03  0.12500000000E+03 0.  0.
</event>
<event>
 5    0  0.7094103E-005  0.2673529E+03  0.7546771E-02  0.1102804E+00
         21   -1    0    0  502  501  0.00000000000E+00  0.00000000000E+00  0.20636786998E+03  0.20636786998E+03  0.00000000000E+00 0.  1.
         21   -1    0    0  501  502 -0.00000000000E+00 -0.00000000000E+00 -0.34635992797E+03  0.34635992797E+03  0.00000000000E+00 0.  1.
         25    1    1    2    0    0  0.91458408224E+02 -0.28111716734E+02  0.10727449650E+02  0.15778145401E+03  0.12500000000E+03 0.  0.
         25    1    1    2    0    0 -0.48665749344E+02 -0.35542102390E+02  0.48999278990E+02  0.14716496031E+03  0.12500000000E+03 0.  0.
         25    1    1    2    0    0 -0.42792658880E+02  0.63653819124E+02 -0.19971878662E+03  0.24778138363E+03  0.12500000000E+03 0.  0.
</event>
<event>
 5    0  0.5778896E-005  0.3320469E+03  0.7546771E-02  0.1070235E+00
         21   -1    0    0  502  501  0.00000000000E+00  0.00000000000E+00  0.53525330238E+03  0.53525330238E+03  0.00000000000E+00 0.  1.
         21   -1    0    0  501  502 -0.00000000000E+00 -0.00000000000E+00 -0.20598683980E+03  0.20598683980E+03  0.00000000000E+00 0.  1.
         25    1    1    2    0    0 -0.35253862616E+02 -0.25446304445E+02  0.18428647030E+03  0.22688510831E+03  0.12500000000E+03 0.  0.
         25    1    1    2    0    0 -0.67274155372E+02 -0.55899857607E+02  0.25889792961E+03  0.30050581362E+03  0.12500000000E+03 0.  0.
         25    1    1    2    0    0  0.10252801799E+03  0.81346162051E+02 -0.11391793734E+03  0.21384922025E+03  0.12500000000E+03 0.  0.
</event>
<event>
 5    0  0.5778896E-005  0.2563424E+03  0.7546771E-02  0.1109361E+00
         21   -1    0    0  502  501  0.00000000000E+00  0.00000000000E+00  0.68294647095E+03  0.68294647095E+03  0.00000000000E+00 0. -1.
         21   -1    0    0  501  502 -0.00000000000E+00 -0.00000000000E+00 -0.96217557371E+02  0.96217557371E+02  0.00000000000E+00 0. -1.
         25    1    1    2    0    0  0.20343358791E+02 -0.41284423743E+02  0.40510346431E+03  0.42644117142E+03  0.12500000000E+03 0.  0.
         25    1    1    2    0    0  0.74426910902E+01 -0.14356247952E+02  0.17136901571E+03  0.21272948797E+03  0.12500000000E+03 0.  0.
         25    1    1    2    0    0 -0.27786049881E+02  0.55640671695E+02  0.10256433560E+02  0.13999336893E+03  0.12500000000E+03 0.  0.
</event>
<event>
 5    0  0.5778896E-005  0.2970341E+03  0.7546771E-02  0.1086733E+00
         21   -1    0    0  502  501  0.00000000000E+00  0.00000000000E+00  0.25100195166E+03  0.25100195166E+03  0.00000000000E+00 0. -1.
         21   -1    0    0  501  502 -0.00000000000E+00 -0.00000000000E+00 -0.35150830977E+03  0.35150830977E+03  0.00000000000E+00 0. -1.
         25    1    1    2    0    0 -0.17501246246E+03 -0.53773408810E+01  0.57823822407E+02  0.22277089632E+03  0.12500000000E+03 0.  0.
         25    1    1    2    0    0  0.76265383920E+02 -0.52062662502E+02 -0.11887981770E+02  0.15586293248E+03  0.12500000000E+03 0.  0.
         25    1    1    2    0    0  0.98747078538E+02  0.57440003383E+02 -0.14644219875E+03  0.22387643262E+03  0.12500000000E+03 0.  0.
</event>
<event>
 5    0  0.5778896E-005  0.4170133E+03  0.7546771E-02  0.1038043E+00
         21   -1    0    0  502  501  0.00000000000E+00  0.00000000000E+00  0.90958927774E+03  0.90958927774E+03  0.00000000000E+00 0. -1.
         21   -1    0    0  501  502 -0.00000000000E+00 -0.00000000000E+00 -0.19118529258E+03  0.19118529258E+03  0.00000000000E+00 0. -1.
         25    1    1    2    0    0 -0.95913060932E+01  0.56793000434E+02  0.37260859511E+02  0.14258614835E+03  0.12500000000E+03 0.  0.
         25    1    1    2    0    0  0.37502533712E+02 -0.24353796775E+03  0.67754196811E+03  0.73171394706E+03  0.12500000000E+03 0.  0.
         25    1    1    2    0    0 -0.27911227618E+02  0.18674496732E+03  0.36011575434E+01  0.22647447490E+03  0.12500000000E+03 0.  0.
</event>
<event>
 5    0  0.5778896E-005  0.2206686E+03  0.7546771E-02  0.1133386E+00
         21   -1    0    0  502  501  0.00000000000E+00  0.00000000000E+00  0.35315914742E+03  0.35315914742E+03  0.00000000000E+00 0. -1.
         21   -1    0    0  501  502 -0.00000000000E+00 -0.00000000000E+00 -0.13788292707E+03  0.13788292707E+03  0.00000000000E+00 0. -1.
         25    1    1    2    0    0  0.44966629189E+02  0.91946740941E+01  0.16883645579E+03  0.21502857618E+03  0.12500000000E+03 0.  0.
         25    1    1    2    0    0  0.22440577376E+02 -0.76752709143E+01  0.21681766957E+01  0.12724853746E+03  0.12500000000E+03 0.  0.
         25    1    1    2    0    0 -0.67407206565E+02 -0.15194031798E+01  0.44271587862E+02  0.14876496084E+03  0.12500000000E+03 0.  0.
</event>
<event>
 5    0  0.5778896E-005  0.2360888E+03  0.7546771E-02  0.1122426E+00
         21   -1    0    0  502  501  0.00000000000E+00  0.00000000000E+00  0.35339456511E+03  0.35339456511E+03  0.00000000000E+00 0. -1.
         21   -1    0    0  501  502 -0.00000000000E+00 -0.00000000000E+00 -0.15772152440E+03  0.15772152440E+03  0.00000000000E+00 0. -1.
         25    1    1    2    0    0  0.50486006514E+02 -0.29795316560E+02  0.14270077738E+03  0.19855757253E+03  0.12500000000E+03 0.  0.
         25    1    1    2    0    0 -0.62569600903E+02  0.42164821366E+02  0.10100221872E+03  0.17753668721E+03  0.12500000000E+03 0.  0.
         25    1    1    2    0    0  0.12083594390E+02 -0.12369504806E+02 -0.48029955383E+02  0.13502182978E+03  0.12500000000E+03 0.  0.
</event>
<event>
 5    0  0.5778896E-005  0.2505513E+03  0.7546771E-02  0.1112957E+00
         21   -1    0    0  502  501  0.00000000000E+00  0.00000000000E+00  0.57549953663E+03  0.57549953663E+03  0.00000000000E+00 0.  1.
         21   -1    0    0  501  502 -0.00000000000E+00 -0.00000000000E+00 -0.10908084409E+03  0.10908084409E+03  0.00000000000E+00 0.  1.
         25    1    1    2    0    0 -0.42968109062E+01  0.85712079743E+02  0.31612970403E+02  0.15488512871E+03  0.12500000000E+03 0.  0.
         25    1    1    2    0    0 -0.17343131231E+02 -0.10643504635E+03  0.17960991018E+03  0.24395475631E+03  0.12500000000E+03 0.  0.
         25    1    1    2    0    0  0.21639942137E+02  0.20722966612E+02  0.25519581195E+03  0.28574049569E+03  0.12500000000E+03 0.  0.
</event>
<event>
 5    0  0.5778896E-005  0.4865400E+03  0.7546771E-02  0.1017353E+00
         21   -1    0    0  502  501  0.00000000000E+00  0.00000000000E+00  0.58337385879E+03  0.58337385879E+03  0.00000000000E+00 0. -1.
         21   -1    0    0  501  502 -0.00000000000E+00 -0.00000000000E+00 -0.40577949239E+03  0.40577949239E+03  0.00000000000E+00 0. -1.
         25    1    1    2    0    0 -0.19870538157E+03 -0.29284941297E+03 -0.10355409440E+03  0.38934953167E+03  0.12500000000E+03 0.  0.
         25    1    1    2    0    0  0.16744263564E+03  0.15515667419E+02  0.18424175852E+03  0.27901218208E+03  0.12500000000E+03 0.  0.
         25    1    1    2    0    0  0.31262745931E+02  0.27733374555E+03  0.96906702271E+02  0.32079163744E+03  0.12500000000E+03 0.  0.
</event>
<event>
 5    0  0.5795799E-005  0.3439015E+03  0.7546771E-02  0.1065146E+00
         21   -1    0    0  502  501  0.00000000000E+00  0.00000000000E+00  0.51174975532E+03  0.51174975532E+03  0.00000000000E+00 0.  1.
         21   -1    0    0  501  502 -0.00000000000E+00 -0.00000000000E+00 -0.23110564276E+03  0.23110564276E+03  0.00000000000E+00 0.  1.
         25    1    1    2    0    0  0.61961505751E+02  0.85421730243E+02  0.50300366088E+02  0.17114679962E+03  0.12500000000E+03 0.  0.
         25    1    1    2    0    0  0.15949170632E+03 -0.64924017202E+02 -0.20692967027E+02  0.21378945549E+03  0.12500000000E+03 0.  0.
         25    1    1    2    0    0 -0.22145321207E+03 -0.20497713041E+02  0.25103671351E+03  0.35791914297E+03  0.12500000000E+03 0.  0.
</event>
<event>
 5    0  0.5778896E-005  0.2405070E+03  0.7546771E-02  0.1119456E+00
         21   -1    0    0  502  501  0.00000000000E+00  0.00000000000E+00  0.13566387795E+03  0.13566387795E+03  0.00000000000E+00 0.  1.
         21   -1    0    0  501  502 -0.00000000000E+00 -0.00000000000E+00 -0.42637439556E+03  0.42637439556E+03  0.00000000000E+00 0.  1.
         25    1    1    2    0    0 -0.92711022255E+02 -0.29139796095E+02 -0.29147503629E+02  0.16099390775E+03  0.12500000000E+03 0.  0.
         25    1    1    2    0    0  0.10382506013E+03  0.11108687177E+02 -0.20602983213E+03  0.26263346658E+03  0.12500000000E+03 0.  0.
         25    1    1    2    0    0 -0.11114037876E+02  0.18031108918E+02 -0.55533181848E+02  0.13841089918E+03  0.12500000000E+03 0.  0.
</event>
<event>
 5    0  0.5778896E-005  0.4311451E+03  0.7546771E-02  0.1033499E+00
         21   -1    0    0  502  501  0.00000000000E+00  0.00000000000E+00  0.48542980479E+03  0.48542980479E+03  0.00000000000E+00 0. -1.
         21   -1    0    0  501  502 -0.00000000000E+00 -0.00000000000E+00 -0.38293092125E+03  0.38293092125E+03  0.00000000000E+00 0. -1.
         25    1    1    2    0    0  0.11382290242E+03  0.25087255009E+03 -0.18096196852E+02  0.30305966714E+03  0.12500000000E+03 0.  0.
         25    1    1    2    0    0 -0.21708987512E+03 -0.28593574651E+03  0.12251707944E+03  0.39940292909E+03  0.12500000000E+03 0.  0.
         25    1    1    2    0    0  0.10326697270E+03  0.35063196416E+02 -0.19219990573E+01  0.16589812981E+03  0.12500000000E+03 0.  0.
</event>
<event>
 5    0  0.5778896E-005  0.2684246E+03  0.7546771E-02  0.1102185E+00
         21   -1    0    0  502  501  0.00000000000E+00  0.00000000000E+00  0.38832017962E+03  0.38832017962E+03  0.00000000000E+00 0. -1.
         21   -1    0    0  501  502 -0.00000000000E+00 -0.00000000000E+00 -0.18554737789E+03  0.18554737789E+03  0.00000000000E+00 0. -1.
         25    1    1    2    0    0  0.13813436555E+02 -0.78532132230E+01  0.11114313210E+03  0.16801868884E+03  0.12500000000E+03 0.  0.
         25    1    1    2    0    0 -0.12814984811E+03 -0.62975404077E+02 -0.20225373825E+02  0.19084640640E+03  0.12500000000E+03 0.  0.
         25    1    1    2    0    0  0.11433641156E+03  0.70828617300E+02  0.11185504345E+03  0.21500246227E+03  0.12500000000E+03 0.  0.
</event>
<event>
 5    0  0.5778896E-005  0.3660336E+03  0.7546771E-02  0.1056220E+00
         21   -1    0    0  502  501  0.00000000000E+00  0.00000000000E+00  0.67021170744E+03  0.67021170744E+03  0.00000000000E+00 0. -1.
         21   -1    0    0  501  502 -0.00000000000E+00 -0.00000000000E+00 -0.19990784558E+03  0.19990784558E+03  0.00000000000E+00 0. -1.
         25    1    1    2    0    0  0.16495119732E+03 -0.11817978831E+03  0.92443613049E+02  0.25562899182E+03  0.12500000000E+03 0.  0.
         25    1    1    2    0    0  0.14428353966E+02 -0.22407545406E+02  0.32500808829E+03  0.34923564100E+03  0.12500000000E+03 0.  0.
         25    1    1    2    0    0 -0.17937955129E+03  0.14058733372E+03  0.52852160519E+02  0.26525492021E+03  0.12500000000E+03 0.  0.
</event>
<event>
 5    0  0.5778896E-005  0.5171783E+03  0.7546771E-02  0.1009390E+00
         21   -1    0    0  502  501  0.00000000000E+00  0.00000000000E+00  0.73437799441E+03  0.73437799441E+03  0.00000000000E+00 0.  1.
         21   -1    0    0  501  502 -0.00000000000E+00 -0.00000000000E+00 -0.36421755996E+03  0.36421755996E+03  0.00000000000E+00 0.  1.
         25    1    1    2    0    0  0.27578597522E+03 -0.60500639494E+02  0.54569889076E+03  0.62700120485E+03  0.12500000000E+03 0.  0.
         25    1    1    2    0    0  0.41753559263E+01  0.80506825046E+01 -0.67240815879E+02  0.14222719292E+03  0.12500000000E+03 0.  0.
         25    1    1    2    0    0 -0.27996133115E+03  0.52449956990E+02 -0.10829764043E+03  0.32936715660E+03  0.12500000000E+03 0.  0.
</event>
<event>
 5    0  0.5778896E-005  0.5427787E+03  0.7546771E-02  0.1003179E+00
         21   -1    0    0  502  501  0.00000000000E+00  0.00000000000E+00  0.14727790817E+03  0.14727790817E+03  0.00000000000E+00 0.  1.
         21   -1    0    0  501  502 -0.00000000000E+00 -0.00000000000E+00 -0.20003592844E+04  0.20003592844E+04  0.00000000000E+00 0.  1.
         25    1    1    2    0    0  0.11712759147E+01 -0.23559246954E+03 -0.75532153926E+02  0.27719179257E+03  0.12500000000E+03 0.  0.
         25    1    1    2    0    0 -0.82552937129E+02 -0.62524485473E+02 -0.11352362784E+04  0.11467827634E+04  0.12500000000E+03 0.  0.
         25    1    1    2    0    0  0.81381661215E+02  0.29811695501E+03 -0.64231294388E+03  0.72366263654E+03  0.12500000000E+03 0.  0.
</event>
<event>
 5    0  0.5778896E-005  0.3855473E+03  0.7546771E-02  0.1048902E+00
         21   -1    0    0  502  501  0.00000000000E+00  0.00000000000E+00  0.81805457295E+03  0.81805457295E+03  0.00000000000E+00 0. -1.
         21   -1    0    0  501  502 -0.00000000000E+00 -0.00000000000E+00 -0.18170754604E+03  0.18170754604E+03  0.00000000000E+00 0. -1.
         25    1    1    2    0    0  0.12656413546E+03 -0.23058926728E+03  0.91682637176E+02  0.30532048167E+03  0.12500000000E+03 0.  0.
         25    1    1    2    0    0 -0.15502199628E+03  0.43226226974E+02  0.25738278036E+03  0.32828527481E+03  0.12500000000E+03 0.  0.
         25    1    1    2    0    0  0.28457860819E+02  0.18736304031E+03  0.28728160938E+03  0.36615636251E+03  0.12500000000E+03 0.  0.
</event>
<event>
 5    0  0.7463328E-005  0.4778057E+03  0.7546771E-02  0.1019740E+00
         21   -1    0    0  502  501  0.00000000000E+00  0.00000000000E+00  0.19227415560E+03  0.19227415560E+03  0.00000000000E+00 0. -1.
         21   -1    0    0  501  502 -0.00000000000E+00 -0.00000000000E+00 -0.11873580072E+04  0.11873580072E+04  0.00000000000E+00 0. -1.
         25    1    1    2    0    0  0.13155784092E+03 -0.10073554370E+03  0.45793122286E+02  0.21254911273E+03  0.12500000000E+03 0.  0.
         25    1    1    2    0    0 -0.26789001960E+03 -0.28182397629E+02 -0.50722839708E+03  0.58776267059E+03  0.12500000000E+03 0.  0.
         25    1    1    2    0    0  0.13633217868E+03  0.12891794132E+03 -0.53364857677E+03  0.57932037944E+03  0.12500000000E+03 0.  0.
</event>
<event>
 5    0  0.5778896E-005  0.3840446E+03  0.7546771E-02  0.1049449E+00
         21   -1    0    0  502  501  0.00000000000E+00  0.00000000000E+00  0.20553757900E+04  0.20553757900E+04  0.00000000000E+00 0.  1.
         21   -1    0    0  501  502 -0.00000000000E+00 -0.00000000000E+00 -0.71758296634E+02  0.71758296634E+02  0.00000000000E+00 0.  1.
         25    1    1    2    0    0 -0.76892128413E+02 -0.42053848673E+02  0.16638807404E+03  0.22581168434E+03  0.12500000000E+03 0.  0.
         25    1    1    2    0    0 -0.17222845216E+03  0.39560581328E+01  0.12519323601E+04  0.12698968165E+04  0.12500000000E+03 0.  0.
         25    1    1    2    0    0  0.24912058057E+03  0.38097790540E+02  0.56529705920E+03  0.63142558583E+03  0.12500000000E+03 0.  0.
</event>
<event>
 5    0  0.5778896E-005  0.3417193E+03  0.7546771E-02  0.1066066E+00
         21   -1    0    0  502  501  0.00000000000E+00  0.00000000000E+00  0.17796928306E+04  0.17796928306E+04  0.00000000000E+00 0. -1.
         21   -1    0    0  501  502 -0.00000000000E+00 -0.00000000000E+00 -0.65613606871E+02  0.65613606871E+02  0.00000000000E+00 0. -1.
         25    1    1    2    0    0 -0.28043155545E+02 -0.19961647576E+03  0.80420887932E+03  0.83845696225E+03  0.12500000000E+03 0.  0.
         25    1    1    2    0    0 -0.39970703895E+02  0.15329691906E+03  0.21033371851E+03  0.29148392015E+03  0.12500000000E+03 0.  0.
         25    1    1    2    0    0  0.68013859440E+02  0.46319556701E+02  0.69953662592E+03  0.71536555509E+03  0.12500000000E+03 0.  0.
</event>
<event>
 5    0  0.5778896E-005  0.2548928E+03  0.7546771E-02  0.1110251E+00
         21   -1    0    0  502  501  0.00000000000E+00  0.00000000000E+00  0.11415227907E+03  0.11415227907E+03  0.00000000000E+00 0. -1.
         21   -1    0    0  501  502 -0.00000000000E+00 -0.00000000000E+00 -0.56915505945E+03  0.56915505945E+03  0.00000000000E+00 0. -1.
         25    1    1    2    0    0 -0.58047528878E+02 -0.55984144276E+02 -0.11978212371E+02  0.14923879385E+03  0.12500000000E+03 0.  0.
         25    1    1    2    0    0  0.76719362178E+02  0.82546501343E+02 -0.27002356101E+03  0.31817842308E+03  0.12500000000E+03 0.  0.
         25    1    1    2    0    0 -0.18671833300E+02 -0.26562357067E+02 -0.17300100701E+03  0.21589012158E+03  0.12500000000E+03 0.  0.
</event>
<event>
 5    0  0.5778896E-005  0.5193083E+03  0.7546771E-02  0.1008859E+00
         21   -1    0    0  502  501  0.00000000000E+00  0.00000000000E+00  0.32785637166E+03  0.32785637166E+03  0.00000000000E+00 0. -1.
         21   -1    0    0  501  502 -0.00000000000E+00 -0.00000000000E+00 -0.82255867866E+03  0.82255867866E+03  0.00000000000E+00 0. -1.
         25    1    1    2    0    0  0.86032730934E+01  0.35953996947E+01 -0.14948671384E+03  0.19508516300E+03  0.12500000000E+03 0.  0.
         25    1    1    2    0    0  0.34125506665E+03  0.14321671367E+03  0.49487887459E+02  0.39375131568E+03  0.12500000000E+03 0.  0.
         25    1    1    2    0    0 -0.34985833975E+03 -0.14681211337E+03 -0.39470348063E+03  0.56157857165E+03  0.12500000000E+03 0.  0.
</event>
<event>
 5    0  0.5778896E-005  0.3533377E+03  0.7546771E-02  0.1061253E+00
         21   -1    0    0  502  501  0.00000000000E+00  0.00000000000E+00  0.28086828301E+03  0.28086828301E+03  0.00000000000E+00 0.  1.
         21   -1    0    0  501  502 -0.00000000000E+00 -0.00000000000E+00 -0.44450573187E+03  0.44450573187E+03  0.00000000000E+00 0.  1.
         25    1    1    2    0    0 -0.15343794305E+03 -0.57696748751E+02  0.15640979170E+03  0.25876850682E+03  0.12500000000E+03 0.  0.
         25    1    1    2    0    0  0.12270669941E+03  0.79597709464E+02 -0.25853377252E+03  0.32226920573E+03  0.12500000000E+03 0.  0.
         25    1    1    2    0    0  0.30731243637E+02 -0.21900960713E+02 -0.61513468047E+02  0.14433630232E+03  0.12500000000E+03 0.  0.
</event>
<event>
 5    0  0.5778896E-005  0.5534382E+03  0.7546771E-02  0.1000701E+00
         21   -1    0    0  502  501  0.00000000000E+00  0.00000000000E+00  0.70844336733E+02  0.70844336733E+02  0.00000000000E+00 0. -1.
         21   -1    0    0  501  502 -0.00000000000E+00 -0.00000000000E+00 -0.43234764923E+04  0.43234764923E+04  0.00000000000E+00 0. -1.
         25    1    1    2    0    0  0.15832824824E+03 -0.32272428035E+03 -0.26467054719E+04  0.26739285051E+04  0.12500000000E+03 0.  0.
         25    1    1    2    0    0 -0.13610939134E+03  0.82779600338E+01 -0.19297659320E+03  0.26731864237E+03  0.12500000000E+03 0.  0.
         25    1    1    2    0    0 -0.22218856896E+02  0.31444632031E+03 -0.14129500904E+04  0.14530736815E+04  0.12500000000E+03 0.  0.
</event>
<event>
 5    0  0.5778896E-005  0.2698326E+03  0.7546771E-02  0.1101375E+00
         21   -1    0    0  502  501  0.00000000000E+00  0.00000000000E+00  0.44131647342E+02  0.44131647342E+02  0.00000000000E+00 0.  1.
         21   -1    0    0  501  502 -0.00000000000E+00 -0.00000000000E+00 -0.16498286238E+04  0.16498286238E+04  0.00000000000E+00 0.  1.
         25    1    1    2    0    0  0.26798664099E+01  0.12070183609E+03 -0.27352779639E+03  0.32406568827E+03  0.12500000000E+03 0.  0.
         25    1    1    2    0    0  0.63350651442E+02 -0.48113028532E+02 -0.45713756787E+03  0.48054960671E+03  0.12500000000E+03 0.  0.
         25    1    1    2    0    0 -0.66030517852E+02 -0.72588807553E+02 -0.87503161224E+03  0.88934497620E+03  0.12500000000E+03 0.  0.
</event>
<event>
 5    0  0.5778896E-005  0.2907614E+03  0.7546771E-02  0.1089952E+00
         21   -1    0    0  502  501  0.00000000000E+00  0.00000000000E+00  0.50223610221E+02  0.50223610221E+02  0.00000000000E+00 0. -1.
         21   -1    0    0  501  502 -0.00000000000E+00 -0.00000000000E+00 -0.16833154205E+04  0.16833154205E+04  0.00000000000E+00 0. -1.
         25    1    1    2    0    0  0.10875798935E+03  0.69764418437E+02 -0.25800973507E+03  0.31446684677E+03  0.12500000000E+03 0.  0.
         25    1    1    2    0    0 -0.12429993724E+03  0.31770091206E+02 -0.55520952590E+03  0.58338874753E+03  0.12500000000E+03 0.  0.
         25    1    1    2    0    0  0.15541947890E+02 -0.10153450964E+03 -0.81987254927E+03  0.83568343638E+03  0.12500000000E+03 0.  0.
</event>
<event>
 5    0  0.5778896E-005  0.2954744E+03  0.7546771E-02  0.1087525E+00
         21   -1    0    0  502  501  0.00000000000E+00  0.00000000000E+00  0.63536843479E+02  0.63536843479E+02  0.00000000000E+00 0. -1.
         21   -1    0    0  501  502 -0.00000000000E+00 -0.00000000000E+00 -0.13740869414E+04  0.13740869414E+04  0.00000000000E+00 0. -1.
         25    1    1    2    0    0 -0.82070097698E+02 -0.10014662786E+03 -0.47634063328E+03  0.50920550559E+03  0.12500000000E+03 0.  0.
         25    1    1    2    0    0  0.63307061723E+02  0.11539353021E+03 -0.75930851447E+03  0.78070344627E+03  0.12500000000E+03 0.  0.
         25    1    1    2    0    0  0.18763035974E+02 -0.15246902351E+02 -0.74900950128E+02  0.14771483297E+03  0.12500000000E+03 0.  0.
</event>
<event>
 5    0  0.5778896E-005  0.2845576E+03  0.7546771E-02  0.1093225E+00
         21   -1    0    0  502  501  0.00000000000E+00  0.00000000000E+00  0.28832662764E+03  0.28832662764E+03  0.00000000000E+00 0. -1.
         21   -1    0    0  501  502 -0.00000000000E+00 -0.00000000000E+00 -0.28083780521E+03  0.28083780521E+03  0.00000000000E+00 0. -1.
         25    1    1    2    0    0  0.11785445379E+03 -0.11774497555E+03  0.32722853104E+02  0.21083011327E+03  0.12500000000E+03 0.  0.
         25    1    1    2    0    0  0.39807212842E+02  0.44525923382E+02 -0.38582986802E+02  0.14380827138E+03  0.12500000000E+03 0.  0.
         25    1    1    2    0    0 -0.15766166663E+03  0.73219052172E+02  0.13348956133E+02  0.21452604820E+03  0.12500000000E+03 0.  0.
</event>
<event>
 5    0  0.5778896E-005  0.2755754E+03  0.7546771E-02  0.1098130E+00
         21   -1    0    0  502  501  0.00000000000E+00  0.00000000000E+00  0.48489049246E+02  0.48489049246E+02  0.00000000000E+00 0.  1.
         21   -1    0    0  501  502 -0.00000000000E+00 -0.00000000000E+00 -0.15661638444E+04  0.15661638444E+04  0.00000000000E+00 0.  1.
         25    1    1    2    0    0 -0.14704175232E+03  0.33270295288E+02 -0.42373617507E+03  0.46680352991E+03  0.12500000000E+03 0.  0.
         25    1    1    2    0    0  0.10713091379E+02 -0.33823026021E+01 -0.21315461649E+03  0.24735824391E+03  0.12500000000E+03 0.  0.
         25    1    1    2    0    0  0.13632866094E+03 -0.29887992686E+02 -0.88078400357E+03  0.90049111981E+03  0.12500000000E+03 0.  0.
</event>
<event>
 5    0  0.5778896E-005  0.3963457E+03  0.7546771E-02  0.1045052E+00
         21   -1    0    0  502  501  0.00000000000E+00  0.00000000000E+00  0.51492418698E+03  0.51492418698E+03  0.00000000000E+00 0.  1.
         21   -1    0    0  501  502 -0.00000000000E+00 -0.00000000000E+00 -0.30507391691E+03  0.30507391691E+03  0.00000000000E+00 0.  1.
         25    1    1    2    0    0 -0.21806793089E+02 -0.38615048583E+02  0.16383660421E+03  0.21079395409E+03  0.12500000000E+03 0.  0.
         25    1    1    2    0    0  0.12597503573E+03  0.77907573221E+02 -0.22106978585E+03  0.29400025477E+03  0.12500000000E+03 0.  0.
         25    1    1    2    0    0 -0.10416824264E+03 -0.39292524638E+02  0.26708345171E+03  0.31520389503E+03  0.12500000000E+03 0.  0.
</event>
<event>
 5    0  0.5778896E-005  0.2471540E+03  0.7546771E-02  0.1115117E+00
         21   -1    0    0  502  501  0.00000000000E+00  0.00000000000E+00  0.23165445574E+03  0.23165445574E+03  0.00000000000E+00 0.  1.
         21   -1    0    0  501  502 -0.00000000000E+00 -0.00000000000E+00 -0.26369054247E+03  0.26369054247E+03  0.00000000000E+00 0.  1.
         25    1    1    2    0    0  0.11050181636E+03  0.46465783322E+02  0.46899503016E+02  0.17942765623E+03  0.12500000000E+03 0.  0.
         25    1    1    2    0    0 -0.97118122290E+02  0.25660487022E+02 -0.51339656694E+02  0.16837799922E+03  0.12500000000E+03 0.  0.
         25    1    1    2    0    0 -0.13383694068E+02 -0.72126270344E+02 -0.27595933054E+02  0.14753934276E+03  0.12500000000E+03 0.  0.
</event>
<event>
 5    0  0.5778896E-005  0.6154565E+03  0.7546771E-02  0.9873848E-01
         21   -1    0    0  502  501  0.00000000000E+00  0.00000000000E+00  0.13083608719E+04  0.13083608719E+04  0.00000000000E+00 0.  1.
         21   -1    0    0  501  502 -0.00000000000E+00 -0.00000000000E+00 -0.28951238954E+03  0.28951238954E+03  0.00000000000E+00 0.  1.
         25    1    1    2    0    0 -0.15405740284E+03 -0.37578738222E+03  0.98542271375E+03  0.10731415400E+04  0.12500000000E+03 0.  0.
         25    1    1    2    0    0  0.13137359061E+03  0.30421513360E+03 -0.48515756940E+02  0.35746978403E+03  0.12500000000E+03 0.  0.
         25    1    1    2    0    0  0.22683812231E+02  0.71572248618E+02  0.81941525561E+02  0.16726193745E+03  0.12500000000E+03 0.  0.
</event>
<event>
 5    0  0.5778896E-005  0.3059872E+03  0.7546771E-02  0.1082285E+00
         21   -1    0    0  502  501  0.00000000000E+00  0.00000000000E+00  0.57268378671E+03  0.57268378671E+03  0.00000000000E+00 0. -1.
         21   -1    0    0  501  502 -0.00000000000E+00 -0.00000000000E+00 -0.16349017798E+03  0.16349017798E+03  0.00000000000E+00 0. -1.
         25    1    1    2    0    0 -0.33457571745E+01 -0.19306157135E+02  0.27661400766E+03  0.30417795947E+03  0.12500000000E+03 0.  0.
         25    1    1    2    0    0  0.40529081957E+02 -0.12256995872E+03 -0.27098964579E+02  0.18172879559E+03  0.12500000000E+03 0.  0.
         25    1    1    2    0    0 -0.37183324782E+02  0.14187611585E+03  0.15967856564E+03  0.25026720963E+03  0.12500000000E+03 0.  0.
</event>
<event>
 5    0  0.5778896E-005  0.3756092E+03  0.7546771E-02  0.1052569E+00
         21   -1    0    0  502  501  0.00000000000E+00  0.00000000000E+00  0.21874704491E+03  0.21874704491E+03  0.00000000000E+00 0. -1.
         21   -1    0    0  501  502 -0.00000000000E+00 -0.00000000000E+00 -0.64495636864E+03  0.64495636864E+03  0.00000000000E+00 0. -1.
         25    1    1    2    0    0  0.95815545809E+02 -0.11840089832E+03 -0.52189336393E+02  0.20383355557E+03  0.12500000000E+03 0.  0.
         25    1    1    2    0    0 -0.50095437897E+02 -0.14180178365E+03 -0.13866523336E+02  0.19604739022E+03  0.12500000000E+03 0.  0.
         25    1    1    2    0    0 -0.45720107912E+02  0.26020268197E+03 -0.36015346400E+03  0.46382246776E+03  0.12500000000E+03 0.  0.
</event>
<event>
 5    0  0.6706853E-005  0.2697664E+03  0.7546771E-02  0.1101413E+00
         21   -1    0    0  502  501  0.00000000000E+00  0.00000000000E+00  0.25948500492E+03  0.25948500492E+03  0.00000000000E+00 0. -1.
         21   -1    0    0  501  502 -0.00000000000E+00 -0.00000000000E+00 -0.28045521620E+03  0.28045521620E+03  0.00000000000E+00 0. -1.
         25    1    1    2    0    0  0.12050249326E+03  0.45574798697E+02  0.75086109814E+02  0.19457861405E+03  0.12500000000E+03 0.  0.
         25    1    1    2    0    0 -0.18490489670E+02  0.23270206485E+02 -0.11034361382E+03  0.16936385042E+03  0.12500000000E+03 0.  0.
         25    1    1    2    0    0 -0.10201200359E+03 -0.68845005182E+02  0.14287292719E+02  0.17599775666E+03  0.12500000000E+03 0.  0.
</event>
<event>
 5    0  0.5778896E-005  0.4902871E+03  0.7546771E-02  0.1016346E+00
         21   -1    0    0  502  501  0.00000000000E+00  0.00000000000E+00  0.12193572098E+03  0.12193572098E+03  0.00000000000E+00 0. -1.
         21   -1    0    0  501  502 -0.00000000000E+00 -0.00000000000E+00 -0.19713785257E+04  0.19713785257E+04  0.00000000000E+00 0. -1.
         25    1    1    2    0    0  0.16191562560E+03  0.54673455502E+02 -0.96248292286E+03  0.98549694740E+03  0.12500000000E+03 0.  0.
         25    1    1    2    0    0 -0.74261364632E+02 -0.30878552511E+03 -0.31912518909E+03  0.46725703537E+03  0.12500000000E+03 0.  0.
         25    1    1    2    0    0 -0.87654260963E+02  0.25411206961E+03 -0.56783469279E+03  0.64056026393E+03  0.12500000000E+03 0.  0.
</event>
<event>
 5    0  0.5778896E-005  0.6975344E+03  0.7546771E-02  0.9721458E-01
         21   -1    0    0  502  501  0.00000000000E+00  0.00000000000E+00  0.79626165963E+03  0.79626165963E+03  0.00000000000E+00 0.  1.
         21   -1    0    0  501  502 -0.00000000000E+00 -0.00000000000E+00 -0.61104812208E+03  0.61104812208E+03  0.00000000000E+00 0.  1.
         25    1    1    2    0    0  0.23749784141E+02  0.44199225150E+02 -0.20437159817E+02  0.13623619656E+03  0.12500000000E+03 0.  0.
         25    1    1    2    0    0  0.95580483844E+02 -0.29606133123E+03 -0.44213578793E+03  0.55488466883E+03  0.12500000000E+03 0.  0.
         25    1    1    2    0    0 -0.11933026799E+03  0.25186210608E+03  0.64778648530E+03  0.71618891633E+03  0.12500000000E+03 0.  0.
</event>
<event>
 5    0  0.5778896E-005  0.3549052E+03  0.7546771E-02  0.1060620E+00
         21   -1    0    0  502  501  0.00000000000E+00  0.00000000000E+00  0.46935155352E+03  0.46935155352E+03  0.00000000000E+00 0.  1.
         21   -1    0    0  501  502 -0.00000000000E+00 -0.00000000000E+00 -0.26836529690E+03  0.26836529690E+03  0.00000000000E+00 0.  1.
         25    1    1    2    0    0  0.25833602578E+01 -0.18189488600E+03 -0.20401190213E+02  0.22166107431E+03  0.12500000000E+03 0.  0.
         25    1    1    2    0    0  0.15805493688E+03  0.21650699150E+02  0.13267568659E+03  0.24223532702E+03  0.12500000000E+03 0.  0.
         25    1    1    2    0    0 -0.16063829714E+03  0.16024418685E+03  0.88711760250E+02  0.27382044908E+03  0.12500000000E+03 0.  0.
</event>
<event>
 5    0  0.5951974E-005  0.3539696E+03  0.7546771E-02  0.1060997E+00
         21   -1    0    0  502  501  0.00000000000E+00  0.00000000000E+00  0.14974591463E+03  0.14974591463E+03  0.00000000000E+00 0. -1.
         21   -1    0    0  501  502 -0.00000000000E+00 -0.00000000000E+00 -0.83671381535E+03  0.83671381535E+03  0.00000000000E+00 0. -1.
         25    1    1    2    0    0  0.74740344498E+01  0.14399678234E+03 -0.56336535812E+03  0.59480791962E+03  0.12500000000E+03 0.  0.
         25    1    1    2    0    0  0.10682965525E+03 -0.66655819643E+02 -0.10078641648E+03  0.20405507903E+03  0.12500000000E+03 0.  0.
         25    1    1    2    0    0 -0.11430368970E+03 -0.77340962692E+02 -0.22816126122E+02  0.18759673132E+03  0.12500000000E+03 0.  0.
</event>
<event>
 5    0  0.5778896E-005  0.3207629E+03  0.7546771E-02  0.1075299E+00
         21   -1    0    0  502  501  0.00000000000E+00  0.00000000000E+00  0.28049876666E+04  0.28049876666E+04  0.00000000000E+00 0. -1.
         21   -1    0    0  501  502 -0.00000000000E+00 -0.00000000000E+00 -0.36680681254E+02  0.36680681254E+02  0.00000000000E+00 0. -1.
         25    1    1    2    0    0 -0.67961172418E+01  0.97804554947E+02  0.10449949926E+04  0.10570011603E+04  0.12500000000E+03 0.  0.
         25    1    1    2    0    0 -0.24665784900E+02 -0.87578152191E+02  0.15950975305E+04  0.16025727645E+04  0.12500000000E+03 0.  0.
         25    1    1    2    0    0  0.31461902142E+02 -0.10226402755E+02  0.12821446220E+03  0.18209442308E+03  0.12500000000E+03 0.  0.
</event>
<event>
 5    0  0.5778896E-005  0.4884407E+03  0.7546771E-02  0.1016841E+00
         21   -1    0    0  502  501  0.00000000000E+00  0.00000000000E+00  0.11072601382E+04  0.11072601382E+04  0.00000000000E+00 0.  1.
         21   -1    0    0  501  502 -0.00000000000E+00 -0.00000000000E+00 -0.21546366967E+03  0.21546366967E+03  0.00000000000E+00 0.  1.
         25    1    1    2    0    0 -0.46616026518E+02  0.10320874964E+03  0.15485820640E+03  0.22897852305E+03  0.12500000000E+03 0.  0.
         25    1    1    2    0    0  0.25987839431E+03  0.22645029106E+03  0.20235976991E+03  0.41879707571E+03  0.12500000000E+03 0.  0.
         25    1    1    2    0    0 -0.21326236779E+03 -0.32965904069E+03  0.53457849219E+03  0.67494820908E+03  0.12500000000E+03 0.  0.
</event>
<event>
 5    0  0.5778896E-005  0.4228056E+03  0.7546771E-02  0.1036157E+00
         21   -1    0    0  502  501  0.00000000000E+00  0.00000000000E+00  0.13502433739E+03  0.13502433739E+03  0.00000000000E+00 0.  1.
         21   -1    0    0  501  502 -0.00000000000E+00 -0.00000000000E+00 -0.13239435714E+04  0.13239435714E+04  0.00000000000E+00 0.  1.
         25    1    1    2    0    0  0.12239366998E+03  0.82090629971E+02 -0.12508162856E+03  0.23019447383E+03  0.12500000000E+03 0.  0.
         25    1    1    2    0    0 -0.14193804683E+03  0.11308973442E+03 -0.93955788233E+03  0.96505425310E+03  0.12500000000E+03 0.  0.
         25    1    1    2    0    0  0.19544376853E+02 -0.19518036440E+03 -0.12427972314E+03  0.26371918189E+03  0.12500000000E+03 0.  0.
</event>
<event>
 5    0  0.5778896E-005  0.3504931E+03  0.7546771E-02  0.1062413E+00
         21   -1    0    0  502  501  0.00000000000E+00  0.00000000000E+00  0.57424253693E+03  0.57424253693E+03  0.00000000000E+00 0. -1.
         21   -1    0    0  501  502 -0.00000000000E+00 -0.00000000000E+00 -0.21392597743E+03  0.21392597743E+03  0.00000000000E+00 0. -1.
         25    1    1    2    0    0 -0.12497556212E+03 -0.96324528788E+02  0.49189024398E+02  0.20722419283E+03  0.12500000000E+03 0.  0.
         25    1    1    2    0    0  0.15214996947E+03  0.21692974106E+03  0.27425611482E+03  0.40130978343E+03  0.12500000000E+03 0.  0.
         25    1    1    2    0    0 -0.27174407353E+02 -0.12060521227E+03  0.36871420281E+02  0.17963453809E+03  0.12500000000E+03 0.  0.
</event>
<event>
 5    0  0.5778896E-005  0.2108548E+03  0.7546771E-02  0.1140891E+00
         21   -1    0    0  502  501  0.00000000000E+00  0.00000000000E+00  0.10655438259E+04  0.10655438259E+04  0.00000000000E+00 0. -1.
         21   -1    0    0  501  502 -0.00000000000E+00 -0.00000000000E+00 -0.41724950460E+02  0.41724950460E+02  0.00000000000E+00 0. -1.
         25    1    1    2    0    0  0.34368274643E+02 -0.15649786987E+02  0.15757904066E+03  0.20465152868E+03  0.12500000000E+03 0.  0.
         25    1    1    2    0    0 -0.17088011964E+02  0.13968450779E+02  0.40514214146E+03  0.42456127068E+03  0.12500000000E+03 0.  0.
         25    1    1    2    0    0 -0.17280262678E+02  0.16813362078E+01  0.46109769335E+03  0.47805597704E+03  0.12500000000E+03 0.  0.
</event>
<event>
 5    0  0.5778896E-005  0.2878692E+03  0.7546771E-02  0.1091467E+00
         21   -1    0    0  502  501  0.00000000000E+00  0.00000000000E+00  0.15239736807E+03  0.15239736807E+03  0.00000000000E+00 0.  1.
         21   -1    0    0  501  502 -0.00000000000E+00 -0.00000000000E+00 -0.54376703798E+03  0.54376703798E+03  0.00000000000E+00 0.  1.
         25    1    1    2    0    0 -0.16118818600E+03  0.75209902911E+02 -0.29377651565E+02  0.21937686116E+03  0.12500000000E+03 0.  0.
         25    1    1    2    0    0  0.83259390821E+02 -0.55878360031E+02 -0.16446170154E+03  0.22962397208E+03  0.12500000000E+03 0.  0.
         25    1    1    2    0    0  0.77928795183E+02 -0.19331542880E+02 -0.19753031680E+03  0.24716357281E+03  0.12500000000E+03 0.  0.
</event>
<event>
 5    0  0.5778896E-005  0.2573934E+03  0.7546771E-02  0.1108719E+00
         21   -1    0    0  502  501  0.00000000000E+00  0.00000000000E+00  0.45874320314E+02  0.45874320314E+02  0.00000000000E+00 0. -1.
         21   -1    0    0  501  502 -0.00000000000E+00 -0.00000000000E+00 -0.14441932329E+04  0.14441932329E+04  0.00000000000E+00 0. -1.
         25    1    1    2    0    0 -0.12466144280E+02  0.13325257228E+03 -0.46752390933E+03  0.50211080307E+03  0.12500000000E+03 0.  0.
         25    1    1    2    0    0  0.26486314319E+02 -0.18701018469E+02 -0.62328847158E+03  0.63652554681E+03  0.12500000000E+03 0.  0.
         25    1    1    2    0    0 -0.14020170039E+02 -0.11455155381E+03 -0.30750653170E+03  0.35143120335E+03  0.12500000000E+03 0.  0.
</event>
<event>
 5    0  0.6441712E-005  0.2477377E+03  0.7546771E-02  0.1114743E+00
         21   -1    0    0  502  501  0.00000000000E+00  0.00000000000E+00  0.19111327461E+03  0.19111327461E+03  0.00000000000E+00 0. -1.
         21   -1    0    0  501  502 -0.00000000000E+00 -0.00000000000E+00 -0.32113913749E+03  0.32113913749E+03  0.00000000000E+00 0. -1.
         25    1    1    2    0    0 -0.12106585577E+03  0.38453088278E+02  0.16607918531E+02  0.17898716264E+03  0.12500000000E+03 0.  0.
         25    1    1    2    0    0  0.47674142443E+02 -0.40351724065E+02 -0.20743506267E+02  0.14126704692E+03  0.12500000000E+03 0.  0.
         25    1    1    2    0    0  0.73391713325E+02  0.18986357877E+01 -0.12589027515E+03  0.19199820254E+03  0.12500000000E+03 0.  0.
</event>
<event>
 5    0  0.5778896E-005  0.2801719E+03  0.7546771E-02  0.1095595E+00
         21   -1    0    0  502  501  0.00000000000E+00  0.00000000000E+00  0.10648418949E+03  0.10648418949E+03  0.00000000000E+00 0. -1.
         21   -1    0    0  501  502 -0.00000000000E+00 -0.00000000000E+00 -0.73716391995E+03  0.73716391995E+03  0.00000000000E+00 0. -1.
         25    1    1    2    0    0 -0.61541205278E+02 -0.93183640885E+02 -0.43621539491E+03  0.46731079769E+03  0.12500000000E+03 0.  0.
         25    1    1    2    0    0 -0.30975825844E+02 -0.18815559565E+02 -0.69419579414E+02  0.14750459340E+03  0.12500000000E+03 0.  0.
         25    1    1    2    0    0  0.92517031122E+02  0.11199920045E+03 -0.12504475613E+03  0.22883271834E+03  0.12500000000E+03 0.  0.
</event>
<event>
 5    0  0.5778896E-005  0.3408285E+03  0.7546771E-02  0.1066444E+00
         21   -1    0    0  502  501  0.00000000000E+00  0.00000000000E+00  0.97975838771E+02  0.97975838771E+02  0.00000000000E+00 0.  1.
         21   -1    0    0  501  502 -0.00000000000E+00 -0.00000000000E+00 -0.11856402451E+04  0.11856402451E+04  0.00000000000E+00 0.  1.
         25    1    1    2    0    0  0.13176900470E+02 -0.44880442138E+02 -0.54351001566E+03  0.55965705741E+03  0.12500000000E+03 0.  0.
         25    1    1    2    0    0 -0.17183972519E+03  0.72678069728E+02 -0.12302535969E+03  0.25606880345E+03  0.12500000000E+03 0.  0.
         25    1    1    2    0    0  0.15866282472E+03 -0.27797627591E+02 -0.42112903098E+03  0.46789022301E+03  0.12500000000E+03 0.  0.
</event>
<event>
 5    0  0.5778896E-005  0.3202465E+03  0.7546771E-02  0.1075536E+00
         21   -1    0    0  502  501  0.00000000000E+00  0.00000000000E+00  0.63011591232E+03  0.63011591232E+03  0.00000000000E+00 0. -1.
         21   -1    0    0  501  502 -0.00000000000E+00 -0.00000000000E+00 -0.16276020816E+03  0.16276020816E+03  0.00000000000E+00 0. -1.
         25    1    1    2    0    0  0.21120083633E+03 -0.18081326542E+02  0.66328923912E+02  0.25486712967E+03  0.12500000000E+03 0.  0.
         25    1    1    2    0    0 -0.68653701915E+02  0.64175731125E+02  0.23243211797E+03  0.28014557772E+03  0.12500000000E+03 0.  0.
         25    1    1    2    0    0 -0.14254713442E+03 -0.46094404584E+02  0.16859466228E+03  0.25786341309E+03  0.12500000000E+03 0.  0.
</event>
<event>
 5    0  0.5778896E-005  0.3989958E+03  0.7546771E-02  0.1044128E+00
         21   -1    0    0  502  501  0.00000000000E+00  0.00000000000E+00  0.10483974516E+04  0.10483974516E+04  0.00000000000E+00 0.  1.
         21   -1    0    0  501  502 -0.00000000000E+00 -0.00000000000E+00 -0.15184856442E+03  0.15184856442E+03  0.00000000000E+00 0.  1.
         25    1    1    2    0    0 -0.85088030701E+02  0.84481721869E+02  0.77333672425E+03  0.79249720717E+03  0.12500000000E+03 0.  0.
         25    1    1    2    0    0 -0.47249160210E+02  0.57092482423E+02  0.99076502693E+02  0.17587833316E+03  0.12500000000E+03 0.  0.
         25    1    1    2    0    0  0.13233719091E+03 -0.14157420429E+03  0.24135660285E+02  0.23187047573E+03  0.12500000000E+03 0.  0.
</event>
<event>
 5    0  0.5778896E-005  0.3908480E+03  0.7546771E-02  0.1046996E+00
         21   -1    0    0  502  501  0.00000000000E+00  0.00000000000E+00  0.16027736615E+04  0.16027736615E+04  0.00000000000E+00 0.  1.
         21   -1    0    0  501  502 -0.00000000000E+00 -0.00000000000E+00 -0.95311119558E+02  0.95311119558E+02  0.00000000000E+00 0.  1.
         25    1    1    2    0    0  0.98166982540E+02  0.10718707884E+03  0.27232220517E+03  0.33303184496E+03  0.12500000000E+03 0.  0.
         25    1    1    2    0    0 -0.77434824094E+02 -0.14606811174E+03  0.12131192701E+04  0.12306971231E+04  0.12500000000E+03 0.  0.
         25    1    1    2    0    0 -0.20732158446E+02  0.38881032896E+02  0.22021066663E+02  0.13435581301E+03  0.12500000000E+03 0.  0.
</event>
<event>
 5    0  0.5778896E-005  0.3284324E+03  0.7546771E-02  0.1071833E+00
         21   -1    0    0  502  501  0.00000000000E+00  0.00000000000E+00  0.15920870627E+03  0.15920870627E+03  0.00000000000E+00 0. -1.
         21   -1    0    0  501  502 -0.00000000000E+00 -0.00000000000E+00 -0.67752475981E+03  0.67752475981E+03  0.00000000000E+00 0. -1.
         25    1    1    2    0    0 -0.49713463764E+02 -0.87938777421E+00  0.73402807306E+02  0.15324873221E+03  0.12500000000E+03 0.  0.
         25    1    1    2    0    0 -0.47787473744E+02  0.24144329434E+02 -0.10719131132E+03  0.17315186546E+03  0.12500000000E+03 0.  0.
         25    1    1    2    0    0  0.97500937508E+02 -0.23264941660E+02 -0.48452754953E+03  0.51033286841E+03  0.12500000000E+03 0.  0.
</event>
<event>
 5    0  0.5778896E-005  0.2985590E+03  0.7546771E-02  0.1085963E+00
         21   -1    0    0  502  501  0.00000000000E+00  0.00000000000E+00  0.38780595951E+03  0.38780595951E+03  0.00000000000E+00 0. -1.
         21   -1    0    0  501  502 -0.00000000000E+00 -0.00000000000E+00 -0.22985078023E+03  0.22985078023E+03  0.00000000000E+00 0. -1.
         25    1    1    2    0    0  0.17463795252E+02 -0.12668282636E+03 -0.66892773584E+01  0.17895046541E+03  0.12500000000E+03 0.  0.
         25    1    1    2    0    0 -0.11475959763E+03  0.12152257956E+03 -0.20073878176E+01  0.20872597394E+03  0.12500000000E+03 0.  0.
         25    1    1    2    0    0  0.97295802382E+02  0.51602468026E+01  0.16665184445E+03  0.22998030039E+03  0.12500000000E+03 0.  0.
</event>
<event>
 5    0  0.5778896E-005  0.2063574E+03  0.7546771E-02  0.1144483E+00
         21   -1    0    0  502  501  0.00000000000E+00  0.00000000000E+00  0.16386877588E+03  0.16386877588E+03  0.00000000000E+00 0.  1.
         21   -1    0    0  501  502 -0.00000000000E+00 -0.00000000000E+00 -0.25986278384E+03  0.25986278384E+03  0.00000000000E+00 0.  1.
         25    1    1    2    0    0  0.13295255158E+02  0.34207473356E+02 -0.38745693557E+02  0.13591594392E+03  0.12500000000E+03 0.  0.
         25    1    1    2    0    0 -0.53152909120E+02 -0.15815313391E+02  0.13869117648E+02  0.13745074867E+03  0.12500000000E+03 0.  0.
         25    1    1    2    0    0  0.39857653963E+02 -0.18392159965E+02 -0.71117432051E+02  0.15036486714E+03  0.12500000000E+03 0.  0.
</event>
<event>
 5    0  0.5778896E-005  0.3486396E+03  0.7546771E-02  0.1063175E+00
         21   -1    0    0  502  501  0.00000000000E+00  0.00000000000E+00  0.19191336939E+04  0.19191336939E+04  0.00000000000E+00 0.  1.
         21   -1    0    0  501  502 -0.00000000000E+00 -0.00000000000E+00 -0.63335661832E+02  0.63335661832E+02  0.00000000000E+00 0.  1.
         25    1    1    2    0    0 -0.41091083784E+02 -0.42508759806E+02  0.11955909571E+03  0.18279728990E+03  0.12500000000E+03 0.  0.
         25    1    1    2    0    0  0.78718559061E+02  0.21272280243E+03  0.96849636101E+03  0.10025257121E+04  0.12500000000E+03 0.  0.
         25    1    1    2    0    0 -0.37627475277E+02 -0.17021404263E+03  0.76774257532E+03  0.79714635367E+03  0.12500000000E+03 0.  0.
</event>
<event>
 5    0  0.5778896E-005  0.3329842E+03  0.7546771E-02  0.1069824E+00
         21   -1    0    0  502  501  0.00000000000E+00  0.00000000000E+00  0.51948113477E+03  0.51948113477E+03  0.00000000000E+00 0. -1.
         21   -1    0    0  501  502 -0.00000000000E+00 -0.00000000000E+00 -0.21344080122E+03  0.21344080122E+03  0.00000000000E+00 0. -1.
         25    1    1    2    0    0  0.19023854729E+03  0.10074047680E+03  0.39321450436E+02  0.25201294611E+03  0.12500000000E+03 0.  0.
         25    1    1    2    0    0 -0.12164548238E+03  0.22282186200E+02  0.29935743560E+02  0.17836834906E+03  0.12500000000E+03 0.  0.
         25    1    1    2    0    0 -0.68593064908E+02 -0.12302266300E+03  0.23678313956E+03  0.30254064081E+03  0.12500000000E+03 0.  0.
</event>
<event>
 5    0  0.5778896E-005  0.4870135E+03  0.7546771E-02  0.1017225E+00
         21   -1    0    0  502  501  0.00000000000E+00  0.00000000000E+00  0.44635512462E+03  0.44635512462E+03  0.00000000000E+00 0.  1.
         21   -1    0    0  501  502 -0.00000000000E+00 -0.00000000000E+00 -0.53137551480E+03  0.53137551480E+03  0.00000000000E+00 0.  1.
         25    1    1    2    0    0  0.26206553910E+03  0.24597298724E+03 -0.65400177203E+02  0.38611298918E+03  0.12500000000E+03 0.  0.
         25    1    1    2    0    0 -0.11581866371E+03  0.84107441215E+02 -0.77449089293E+02  0.20521058930E+03  0.12500000000E+03 0.  0.
         25    1    1    2    0    0 -0.14624687539E+03 -0.33008042845E+03  0.57828876307E+02  0.38640706094E+03  0.12500000000E+03 0.  0.
</event>
<event>
 5    0  0.9564275E-005  0.3866176E+03  0.7546771E-02  0.1048515E+00
         21   -1    0    0  502  501  0.00000000000E+00  0.00000000000E+00  0.37122245425E+03  0.37122245425E+03  0.00000000000E+00 0.  1.
         21   -1    0    0  501  502 -0.00000000000E+00 -0.00000000000E+00 -0.40265116690E+03  0.40265116690E+03  0.00000000000E+00 0.  1.
         25    1    1    2    0    0  0.20464756978E+03  0.17510330354E+02  0.12300727978E+03  0.27007967411E+03  0.12500000000E+03 0.  0.
         25    1    1    2    0    0 -0.22076134025E+03 -0.15538171509E+02  0.54343639031E+02  0.25991389964E+03  0.12500000000E+03 0.  0.
         25    1    1    2    0    0  0.16113770469E+02 -0.19721588452E+01 -0.20877963146E+03  0.24388004740E+03  0.12500000000E+03 0.  0.
</event>
<event>
 5    0  0.5778896E-005  0.2929850E+03  0.7546771E-02  0.1088801E+00
         21   -1    0    0  502  501  0.00000000000E+00  0.00000000000E+00  0.13880855947E+03  0.13880855947E+03  0.00000000000E+00 0.  1.
         21   -1    0    0  501  502 -0.00000000000E+00 -0.00000000000E+00 -0.61840715449E+03  0.61840715449E+03  0.00000000000E+00 0.  1.
         25    1    1    2    0    0  0.40444818290E+02 -0.44473726119E+02  0.37883828569E+02  0.14378414415E+03  0.12500000000E+03 0.  0.
         25    1    1    2    0    0 -0.16900007038E+02 -0.64446506213E+02 -0.34539966953E+03  0.37331607803E+03  0.12500000000E+03 0.  0.
         25    1    1    2    0    0 -0.23544811252E+02  0.10892023233E+03 -0.17208275406E+03  0.24011549178E+03  0.12500000000E+03 0.  0.
</event>
<event>
 5    0  0.5778896E-005  0.2704176E+03  0.7546771E-02  0.1101041E+00
         21   -1    0    0  502  501  0.00000000000E+00  0.00000000000E+00  0.19444369885E+03  0.19444369885E+03  0.00000000000E+00 0.  1.
         21   -1    0    0  501  502 -0.00000000000E+00 -0.00000000000E+00 -0.37607646094E+03  0.37607646094E+03  0.00000000000E+00 0.  1.
         25    1    1    2    0    0 -0.23844877529E+02  0.92844497726E+02 -0.16573646400E+03  0.22865313127E+03  0.12500000000E+03 0.  0.
         25    1    1    2    0    0  0.45960091038E+02 -0.10434299507E+03  0.75251615517E+02  0.18516910170E+03  0.12500000000E+03 0.  0.
         25    1    1    2    0    0 -0.22115213509E+02  0.11498497343E+02 -0.91147913610E+02  0.15669792681E+03  0.12500000000E+03 0.  0.
</event>
<event>
 5    0  0.5778896E-005  0.2536785E+03  0.7546771E-02  0.1111002E+00
         21   -1    0    0  502  501  0.00000000000E+00  0.00000000000E+00  0.10488350500E+04  0.10488350500E+04  0.00000000000E+00 0.  1.
         21   -1    0    0  501  502 -0.00000000000E+00 -0.00000000000E+00 -0.61356446224E+02  0.61356446224E+02  0.00000000000E+00 0.  1.
         25    1    1    2    0    0  0.18680054199E+02  0.10053694301E+03  0.18112841908E+03  0.24267081722E+03  0.12500000000E+03 0.  0.
         25    1    1    2    0    0  0.29338619326E+02  0.25285003656E+02  0.41577992452E+03  0.43588763647E+03  0.12500000000E+03 0.  0.
         25    1    1    2    0    0 -0.48018673525E+02 -0.12582194666E+03  0.39057026021E+03  0.43163304256E+03  0.12500000000E+03 0.  0.
</event>
<event>
 5    0  0.5778896E-005  0.3655214E+03  0.7546771E-02  0.1056419E+00
         21   -1    0    0  502  501  0.00000000000E+00  0.00000000000E+00  0.22861788935E+03  0.22861788935E+03  0.00000000000E+00 0. -1.
         21   -1    0    0  501  502 -0.00000000000E+00 -0.00000000000E+00 -0.58440709313E+03  0.58440709313E+03  0.00000000000E+00 0. -1.
         25    1    1    2    0    0 -0.91802048623E+02 -0.51004701759E+02 -0.20172004984E+03  0.25950929510E+03  0.12500000000E+03 0.  0.
         25    1    1    2    0    0 -0.17160338602E+03 -0.58079898696E+02 -0.55669813368E+02  0.22703551450E+03  0.12500000000E+03 0.  0.
         25    1    1    2    0    0  0.26340543464E+03  0.10908460046E+03 -0.98399340571E+02  0.32648017288E+03  0.12500000000E+03 0.  0.
</event>
<event>
 5    0  0.5778896E-005  0.3917135E+03  0.7546771E-02  0.1046687E+00
         21   -1    0    0  502  501  0.00000000000E+00  0.00000000000E+00  0.58936149008E+03  0.58936149008E+03  0.00000000000E+00 0.  1.
         21   -1    0    0  501  502 -0.00000000000E+00 -0.00000000000E+00 -0.26034860608E+03  0.26034860608E+03  0.00000000000E+00 0.  1.
         25    1    1    2    0    0  0.47059057238E+02  0.91290783281E+02  0.22284659834E+03  0.27538004353E+03  0.12500000000E+03 0.  0.
         25    1    1    2    0    0  0.18693049561E+03  0.31843312107E+02  0.15884743332E+03  0.27715431403E+03  0.12500000000E+03 0.  0.
         25    1    1    2    0    0 -0.23398955285E+03 -0.12313409539E+03 -0.52681147659E+02  0.29717573859E+03  0.12500000000E+03 0.  0.
</event>
<event>
 5    0  0.5798677E-005  0.3730642E+03  0.7546771E-02  0.1053527E+00
         21   -1    0    0  502  501  0.00000000000E+00  0.00000000000E+00  0.71290218336E+03  0.71290218336E+03  0.00000000000E+00 0.  1.
         21   -1    0    0  501  502 -0.00000000000E+00 -0.00000000000E+00 -0.19522577889E+03  0.19522577889E+03  0.00000000000E+00 0.  1.
         25    1    1    2    0    0  0.32683706813E+02  0.24333448938E+03  0.33023996559E+03  0.43007363705E+03  0.12500000000E+03 0.  0.
         25    1    1    2    0    0  0.82730893222E+02 -0.11463623289E+03  0.18564825004E+03  0.26471898180E+03  0.12500000000E+03 0.  0.
         25    1    1    2    0    0 -0.11541460003E+03 -0.12869825649E+03  0.17881888392E+01  0.21333534340E+03  0.12500000000E+03 0.  0.
</event>
<event>
 5    0  0.5778896E-005  0.3686040E+03  0.7546771E-02  0.1055228E+00
         21   -1    0    0  502  501  0.00000000000E+00  0.00000000000E+00  0.40502616261E+03  0.40502616261E+03  0.00000000000E+00 0.  1.
         21   -1    0    0  501  502 -0.00000000000E+00 -0.00000000000E+00 -0.33545703128E+03  0.33545703128E+03  0.00000000000E+00 0.  1.
         25    1    1    2    0    0 -0.16642431741E+03  0.71451948750E+02 -0.19428222670E+03  0.29355241102E+03  0.12500000000E+03 0.  0.
         25    1    1    2    0    0  0.17619557354E+03 -0.86767060824E+02  0.15050984628E+03  0.27722124162E+03  0.12500000000E+03 0.  0.
         25    1    1    2    0    0 -0.97712561340E+01  0.15315112074E+02  0.11334151175E+03  0.16970954125E+03  0.12500000000E+03 0.  0.
</event>
<event>
 5    0  0.5778896E-005  0.3265220E+03  0.7546771E-02  0.1072686E+00
         21   -1    0    0  502  501  0.00000000000E+00  0.00000000000E+00  0.18595573697E+04  0.18595573697E+04  0.00000000000E+00 0.  1.
         21   -1    0    0  501  502 -0.00000000000E+00 -0.00000000000E+00 -0.57334422997E+02  0.57334422997E+02  0.00000000000E+00 0.  1.
         25    1    1    2    0    0 -0.51667189458E+02 -0.47966105073E+02  0.54252645747E+03  0.56118642425E+03  0.12500000000E+03 0.  0.
         25    1    1    2    0    0  0.17405212024E+03  0.17771438813E+03  0.79920075108E+03  0.84629981971E+03  0.12500000000E+03 0.  0.
         25    1    1    2    0    0 -0.12238493078E+03 -0.12974828306E+03  0.46049573818E+03  0.50940554878E+03  0.12500000000E+03 0.  0.
</event>
<event>
 5    0  0.6375804E-005  0.2805517E+03  0.7546771E-02  0.1095388E+00
         21   -1    0    0  502  501  0.00000000000E+00  0.00000000000E+00  0.21324580722E+03  0.21324580722E+03  0.00000000000E+00 0.  1.
         21   -1    0    0  501  502 -0.00000000000E+00 -0.00000000000E+00 -0.36910094218E+03  0.36910094218E+03  0.00000000000E+00 0.  1.
         25    1    1    2    0    0 -0.82346905381E+02 -0.12435839245E+03 -0.97246727411E+02  0.21754987610E+03  0.12500000000E+03 0.  0.
         25    1    1    2    0    0 -0.21195298262E+02  0.95921933375E+02 -0.10867074652E+03  0.19257359404E+03  0.12500000000E+03 0.  0.
         25    1    1    2    0    0  0.10354220364E+03  0.28436459072E+02  0.50062338973E+02  0.17222327927E+03  0.12500000000E+03 0.  0.
</event>
<event>
 5    0  0.5778896E-005  0.2790699E+03  0.7546771E-02  0.1096198E+00
         21   -1    0    0  502  501  0.00000000000E+00  0.00000000000E+00  0.12569217935E+04  0.12569217935E+04  0.00000000000E+00 0. -1.
         21   -1    0    0  501  502 -0.00000000000E+00 -0.00000000000E+00 -0.61960918846E+02  0.61960918846E+02  0.00000000000E+00 0. -1.
         25    1    1    2    0    0  0.19118725296E+03  0.14414392296E+02  0.47835920606E+03  0.53029507863E+03  0.12500000000E+03 0.  0.
         25    1    1    2    0    0 -0.13666300260E+03 -0.41766504303E+02  0.42779795194E+03  0.46803558075E+03  0.12500000000E+03 0.  0.
         25    1    1    2    0    0 -0.54524250360E+02  0.27352112007E+02  0.28880371666E+03  0.32055205297E+03  0.12500000000E+03 0.  0.
</event>
<event>
 5    0  0.5778896E-005  0.3305877E+03  0.7546771E-02  0.1070877E+00
         21   -1    0    0  502  501  0.00000000000E+00  0.00000000000E+00  0.28567919812E+03  0.28567919812E+03  0.00000000000E+00 0.  1.
         21   -1    0    0  501  502 -0.00000000000E+00 -0.00000000000E+00 -0.38255588055E+03  0.38255588055E+03  0.00000000000E+00 0.  1.
         25    1    1    2    0    0 -0.13465724706E+03  0.61028244031E+02 -0.47328374757E+02  0.19930377772E+03  0.12500000000E+03 0.  0.
         25    1    1    2    0    0  0.19408964636E+03  0.10107520791E+03 -0.10533372503E+02  0.25223588249E+03  0.12500000000E+03 0.  0.
         25    1    1    2    0    0 -0.59432399297E+02 -0.16210345194E+03 -0.39014935169E+02  0.21669541847E+03  0.12500000000E+03 0.  0.
</event>
<event>
 5    0  0.5778896E-005  0.2099225E+03  0.7546771E-02  0.1141627E+00
         21   -1    0    0  502  501  0.00000000000E+00  0.00000000000E+00  0.48819020814E+03  0.48819020814E+03  0.00000000000E+00 0. -1.
         21   -1    0    0  501  502 -0.00000000000E+00 -0.00000000000E+00 -0.90266982741E+02  0.90266982741E+02  0.00000000000E+00 0. -1.
         25    1    1    2    0    0 -0.31652571938E+02  0.29982322714E+02  0.16125151004E+03  0.20863334938E+03  0.12500000000E+03 0.  0.
         25    1    1    2    0    0 -0.11322070723E+02 -0.63295960078E+02  0.16168088863E+03  0.21424350070E+03  0.12500000000E+03 0.  0.
         25    1    1    2    0    0  0.42974642661E+02  0.33313637363E+02  0.74990826733E+02  0.15558034079E+03  0.12500000000E+03 0.  0.
</event>
<event>
 5    0  0.5778896E-005  0.3794501E+03  0.7546771E-02  0.1051137E+00
         21   -1    0    0  502  501  0.00000000000E+00  0.00000000000E+00  0.12483246482E+04  0.12483246482E+04  0.00000000000E+00 0.  1.
         21   -1    0    0  501  502 -0.00000000000E+00 -0.00000000000E+00 -0.11534047731E+03  0.11534047731E+03  0.00000000000E+00 0.  1.
         25    1    1    2    0    0 -0.49538754136E+02 -0.11562996594E+03  0.86723906732E+02  0.19740925303E+03  0.12500000000E+03 0.  0.
         25    1    1    2    0    0  0.85371952890E+02  0.25084161651E+03  0.82881874318E+03  0.87907644489E+03  0.12500000000E+03 0.  0.
         25    1    1    2    0    0 -0.35833198754E+02 -0.13521165057E+03  0.21744152096E+03  0.28717942757E+03  0.12500000000E+03 0.  0.
</event>
<event>
 5    0  0.5778896E-005  0.2740928E+03  0.7546771E-02  0.1098960E+00
         21   -1    0    0  502  501  0.00000000000E+00  0.00000000000E+00  0.30063027899E+03  0.30063027899E+03  0.00000000000E+00 0.  1.
         21   -1    0    0  501  502 -0.00000000000E+00 -0.00000000000E+00 -0.24989778355E+03  0.24989778355E+03  0.00000000000E+00 0.  1.
         25    1    1    2    0    0 -0.82734731402E+02 -0.12059507376E+03 -0.43159766331E+02  0.19716990903E+03  0.12500000000E+03 0.  0.
         25    1    1    2    0    0  0.93454565633E+02  0.94277327265E+02 -0.17973840132E+02  0.18322125751E+03  0.12500000000E+03 0.  0.
         25    1    1    2    0    0 -0.10719834232E+02  0.26317746497E+02  0.11186610190E+03  0.17013689600E+03  0.12500000000E+03 0.  0.
</event>
<event>
 5    0  0.6979167E-005  0.4797149E+03  0.7546771E-02  0.1019214E+00
         21   -1    0    0  502  501  0.00000000000E+00  0.00000000000E+00  0.24552302381E+03  0.24552302381E+03  0.00000000000E+00 0.  1.
         21   -1    0    0  501  502 -0.00000000000E+00 -0.00000000000E+00 -0.93729038160E+03  0.93729038160E+03  0.00000000000E+00 0.  1.
         25    1    1    2    0    0  0.13761654163E+03 -0.15935050589E+03 -0.11524785085E+03  0.27062513442E+03  0.12500000000E+03 0.  0.
         25    1    1    2    0    0 -0.17429281010E+03  0.12435753875E+03  0.65271914156E+02  0.25637512335E+03  0.12500000000E+03 0.  0.
         25    1    1    2    0    0  0.36676268467E+02  0.34992967140E+02 -0.64179142110E+03  0.65581314764E+03  0.12500000000E+03 0.  0.
</event>
<event>
 5    0  0.5778896E-005  0.3350968E+03  0.7546771E-02  0.1068904E+00
         21   -1    0    0  502  501  0.00000000000E+00  0.00000000000E+00  0.52637871175E+03  0.52637871175E+03  0.00000000000E+00 0. -1.
         21   -1    0    0  501  502 -0.00000000000E+00 -0.00000000000E+00 -0.21332525719E+03  0.21332525719E+03  0.00000000000E+00 0. -1.
         25    1    1    2    0    0  0.22741985110E+03  0.63423639339E+02  0.47704545738E+02  0.27137256749E+03  0.12500000000E+03 0.  0.
         25    1    1    2    0    0 -0.20479506172E+03  0.18794220903E+01  0.13694830430E+03  0.27626868730E+03  0.12500000000E+03 0.  0.
         25    1    1    2    0    0 -0.22624789376E+02 -0.65303061429E+02  0.12840060452E+03  0.19206271415E+03  0.12500000000E+03 0.  0.
</event>
<event>
 5    0  0.5778896E-005  0.3101580E+03  0.7546771E-02  0.1080270E+00
         21   -1    0    0  502  501  0.00000000000E+00  0.00000000000E+00  0.42821066267E+03  0.42821066267E+03  0.00000000000E+00 0. -1.
         21   -1    0    0  501  502 -0.00000000000E+00 -0.00000000000E+00 -0.22465110583E+03  0.22465110583E+03  0.00000000000E+00 0. -1.
         25    1    1    2    0    0 -0.86867184039E+02  0.65346923145E+02  0.15162880035E+03  0.22457163918E+03  0.12500000000E+03 0.  0.
         25    1    1    2    0    0  0.13740288452E+03 -0.11235268796E+03 -0.82443348096E+02  0.23221667643E+03  0.12500000000E+03 0.  0.
         25    1    1    2    0    0 -0.50535700482E+02  0.47005764816E+02  0.13437410458E+03  0.19607345290E+03  0.12500000000E+03 0.  0.
</event>
<event>
 5    0  0.6720232E-005  0.2774506E+03  0.7546771E-02  0.1097090E+00
         21   -1    0    0  502  501  0.00000000000E+00  0.00000000000E+00  0.18185170217E+03  0.18185170217E+03  0.00000000000E+00 0.  1.
         21   -1    0    0  501  502 -0.00000000000E+00 -0.00000000000E+00 -0.42330552282E+03  0.42330552282E+03  0.00000000000E+00 0.  1.
         25    1    1    2    0    0  0.68400897584E+02  0.12029383598E+03 -0.11046543942E+03  0.21674155825E+03  0.12500000000E+03 0.  0.
         25    1    1    2    0    0 -0.93971863590E+02 -0.13095141517E+03  0.17697134941E+01  0.20397822474E+03  0.12500000000E+03 0.  0.
         25    1    1    2    0    0  0.25570966005E+02  0.10657579189E+02 -0.13275809472E+03  0.18443744200E+03  0.12500000000E+03 0.  0.
</event>
<event>
 5    0  0.5813425E-005  0.3204055E+03  0.7546771E-02  0.1075463E+00
         21   -1    0    0  502  501  0.00000000000E+00  0.00000000000E+00  0.14258116178E+03  0.14258116178E+03  0.00000000000E+00 0.  1.
         21   -1    0    0  501  502 -0.00000000000E+00 -0.00000000000E+00 -0.72000896663E+03  0.72000896663E+03  0.00000000000E+00 0.  1.
         25    1    1    2    0    0  0.60565208232E+02  0.92473211565E+02 -0.30230983094E+03  0.34530518848E+03  0.12500000000E+03 0.  0.
         25    1    1    2    0    0  0.10861659315E+03 -0.11883909671E+03 -0.53785218692E+02  0.21080356962E+03  0.12500000000E+03 0.  0.
         25    1    1    2    0    0 -0.16918180138E+03  0.26365885143E+02 -0.22133275521E+03  0.30648137031E+03  0.12500000000E+03 0.  0.
</event>
<event>
 5    0  0.5778896E-005  0.3133887E+03  0.7546771E-02  0.1078733E+00
         21   -1    0    0  502  501  0.00000000000E+00  0.00000000000E+00  0.52047626571E+02  0.52047626571E+02  0.00000000000E+00 0. -1.
         21   -1    0    0  501  502 -0.00000000000E+00 -0.00000000000E+00 -0.18869733512E+04  0.18869733512E+04  0.00000000000E+00 0. -1.
         25    1    1    2    0    0  0.95748677667E+02 -0.47896016025E+02 -0.51290123368E+03  0.53865992345E+03  0.12500000000E+03 0.  0.
         25    1    1    2    0    0  0.13610024778E+03 -0.16502958189E+02 -0.43764944261E+03  0.47535003912E+03  0.12500000000E+03 0.  0.
         25    1    1    2    0    0 -0.23184892545E+03  0.64398974214E+02 -0.88437504838E+03  0.92501101524E+03  0.12500000000E+03 0.  0.
</event>
<event>
 5    0  0.5778896E-005  0.2142610E+03  0.7546771E-02  0.1138235E+00
         21   -1    0    0  502  501  0.00000000000E+00  0.00000000000E+00  0.55363381827E+03  0.55363381827E+03  0.00000000000E+00 0.  1.
         21   -1    0    0  501  502 -0.00000000000E+00 -0.00000000000E+00 -0.82920825377E+02  0.82920825377E+02  0.00000000000E+00 0.  1.
         25    1    1    2    0    0 -0.27119306048E+02 -0.74638921720E+02  0.17635649471E+03  0.23028903278E+03  0.12500000000E+03 0.  0.
         25    1    1    2    0    0  0.82057635538E+01  0.87692652466E+02  0.15982136040E+03  0.22119042270E+03  0.12500000000E+03 0.  0.
         25    1    1    2    0    0  0.18913542494E+02 -0.13053730746E+02  0.13453513779E+03  0.18507518817E+03  0.12500000000E+03 0.  0.
</event>
<event>
 5    0  0.5778896E-005  0.4422557E+03  0.7546771E-02  0.1030057E+00
         21   -1    0    0  502  501  0.00000000000E+00  0.00000000000E+00  0.26452235978E+03  0.26452235978E+03  0.00000000000E+00 0.  1.
         21   -1    0    0  501  502 -0.00000000000E+00 -0.00000000000E+00 -0.73940845990E+03  0.73940845990E+03  0.00000000000E+00 0.  1.
         25    1    1    2    0    0 -0.71107541615E+02  0.21325190445E+02 -0.46879690367E+02  0.15275389223E+03  0.12500000000E+03 0.  0.
         25    1    1    2    0    0  0.33020309539E+03  0.15784838098E+03 -0.29779324157E+03  0.48811475117E+03  0.12500000000E+03 0.  0.
         25    1    1    2    0    0 -0.25909555378E+03 -0.17917357142E+03 -0.13021316818E+03  0.36306217629E+03  0.12500000000E+03 0.  0.
</event>
<event>
 5    0  0.5778896E-005  0.4049148E+03  0.7546771E-02  0.1042091E+00
         21   -1    0    0  502  501  0.00000000000E+00  0.00000000000E+00  0.95897781610E+03  0.95897781610E+03  0.00000000000E+00 0.  1.
         21   -1    0    0  501  502 -0.00000000000E+00 -0.00000000000E+00 -0.17096950762E+03  0.17096950762E+03  0.00000000000E+00 0. -1.
         25    1    1    2    0    0  0.14371118900E+03  0.30749936274E+03  0.27787773895E+03  0.45612476553E+03  0.12500000000E+03 0.  0.
         25    1    1    2    0    0 -0.33280802953E+02 -0.68157268510E+02  0.13878783865E+03  0.20159387206E+03  0.12500000000E+03 0.  0.
         25    1    1    2    0    0 -0.11043038605E+03 -0.23934209423E+03  0.37134273088E+03  0.47222868613E+03  0.12500000000E+03 0.  0.
</event>
<event>
 5    0  0.5778896E-005  0.2398286E+03  0.7546771E-02  0.1119907E+00
         21   -1    0    0  502  501  0.00000000000E+00  0.00000000000E+00  0.59881168466E+03  0.59881168466E+03  0.00000000000E+00 0.  1.
         21   -1    0    0  501  502 -0.00000000000E+00 -0.00000000000E+00 -0.96053155101E+02  0.96053155101E+02  0.00000000000E+00 0.  1.
         25    1    1    2    0    0  0.11470906230E+03 -0.33101996283E+02  0.29285234704E+03  0.34006088911E+03  0.12500000000E+03 0.  0.
         25    1    1    2    0    0 -0.41720694789E+02  0.40840573842E+02  0.12859200349E+03  0.18859870680E+03  0.12500000000E+03 0.  0.
         25    1    1    2    0    0 -0.72988367506E+02 -0.77385775585E+01  0.81314179026E+02  0.16620524385E+03  0.12500000000E+03 0.  0.
</event>
<event>
 5    0  0.7783086E-005  0.4459030E+03  0.7546771E-02  0.1028951E+00
         21   -1    0    0  502  501  0.00000000000E+00  0.00000000000E+00  0.18361306898E+03  0.18361306898E+03  0.00000000000E+00 0. -1.
         21   -1    0    0  501  502 -0.00000000000E+00 -0.00000000000E+00 -0.10828722788E+04  0.10828722788E+04  0.00000000000E+00 0. -1.
         25    1    1    2    0    0 -0.74684265430E+02  0.96215441268E+02 -0.44349954115E+03  0.47660465130E+03  0.12500000000E+03 0.  0.
         25    1    1    2    0    0  0.29221145526E+03  0.44796230656E+01 -0.40496880441E+03  0.51481291179E+03  0.12500000000E+03 0.  0.
         25    1    1    2    0    0 -0.21752718983E+03 -0.10069506433E+03 -0.50790864294E+02  0.27506778472E+03  0.12500000000E+03 0.  0.
</event>
<event>
 5    0  0.5778896E-005  0.4627813E+03  0.7546771E-02  0.1023978E+00
         21   -1    0    0  502  501  0.00000000000E+00  0.00000000000E+00  0.10685925571E+04  0.10685925571E+04  0.00000000000E+00 0.  1.
         21   -1    0    0  501  502 -0.00000000000E+00 -0.00000000000E+00 -0.20041928075E+03  0.20041928075E+03  0.00000000000E+00 0.  1.
         25    1    1    2    0    0  0.21272563068E+03 -0.55859601766E+02  0.68548491785E+03  0.73067575685E+03  0.12500000000E+03 0.  0.
         25    1    1    2    0    0 -0.74952715657E+02  0.10573796540E+03 -0.92508275286E+02  0.20243815823E+03  0.12500000000E+03 0.  0.
         25    1    1    2    0    0 -0.13777291502E+03 -0.49878363632E+02  0.27519663384E+03  0.33589792281E+03  0.12500000000E+03 0.  0.
</event>
<event>
 5    0  0.5778896E-005  0.2550835E+03  0.7546771E-02  0.1110134E+00
         21   -1    0    0  502  501  0.00000000000E+00  0.00000000000E+00  0.45945467238E+03  0.45945467238E+03  0.00000000000E+00 0. -1.
         21   -1    0    0  501  502 -0.00000000000E+00 -0.00000000000E+00 -0.14161915098E+03  0.14161915098E+03  0.00000000000E+00 0. -1.
         25    1    1    2    0    0 -0.79544345031E+02  0.31081120115E+02  0.31294101917E+02  0.15458867898E+03  0.12500000000E+03 0.  0.
         25    1    1    2    0    0  0.87036950168E+02 -0.79083477722E+02  0.25720067919E+03  0.30920351957E+03  0.12500000000E+03 0.  0.
         25    1    1    2    0    0 -0.74926051369E+01  0.48002357607E+02  0.29340740302E+02  0.13728162480E+03  0.12500000000E+03 0.  0.
</event>
<event>
 5    0  0.5778896E-005  0.4669555E+03  0.7546771E-02  0.1022783E+00
         21   -1    0    0  502  501  0.00000000000E+00  0.00000000000E+00  0.18027027482E+04  0.18027027482E+04  0.00000000000E+00 0. -1.
         21   -1    0    0  501  502 -0.00000000000E+00 -0.00000000000E+00 -0.12095586533E+03  0.12095586533E+03  0.00000000000E+00 0. -1.
         25    1    1    2    0    0 -0.12233578848E+03  0.49694865834E+02  0.39162986354E+03  0.43178070227E+03  0.12500000000E+03 0.  0.
         25    1    1    2    0    0 -0.14599458990E+03  0.15848423021E+03  0.13911276531E+03  0.28532268220E+03  0.12500000000E+03 0.  0.
         25    1    1    2    0    0  0.26833037838E+03 -0.20817909605E+03  0.11510042540E+04  0.12065552291E+04  0.12500000000E+03 0.  0.
</event>
<event>
 5    0  0.5778896E-005  0.9933090E+03  0.7546771E-02  0.9315914E-01
         21   -1    0    0  502  501  0.00000000000E+00  0.00000000000E+00  0.14262051940E+04  0.14262051940E+04  0.00000000000E+00 0.  1.
         21   -1    0    0  501  502 -0.00000000000E+00 -0.00000000000E+00 -0.69180988505E+03  0.69180988505E+03  0.00000000000E+00 0.  1.
         25    1    1    2    0    0  0.34003349256E+01  0.30262969434E+02  0.10358807875E+03  0.16517536032E+03  0.12500000000E+03 0.  0.
         25    1    1    2    0    0  0.18664019986E+03  0.81751029800E+03 -0.39005074894E+02  0.84870728016E+03  0.12500000000E+03 0.  0.
         25    1    1    2    0    0 -0.19004053478E+03 -0.84777326743E+03  0.66981230508E+03  0.11041324386E+04  0.12500000000E+03 0.  0.
</event>
<event>
 5    0  0.5778896E-005  0.2354188E+03  0.7546771E-02  0.1122883E+00
         21   -1    0    0  502  501  0.00000000000E+00  0.00000000000E+00  0.53957195925E+02  0.53957195925E+02  0.00000000000E+00 0. -1.
         21   -1    0    0  501  502 -0.00000000000E+00 -0.00000000000E+00 -0.10271475712E+04  0.10271475712E+04  0.00000000000E+00 0. -1.
         25    1    1    2    0    0  0.17440036517E+00 -0.89469699953E+02 -0.33816370344E+03  0.37146271408E+03  0.12500000000E+03 0.  0.
         25    1    1    2    0    0  0.25644911481E+02  0.47441338184E+02 -0.13443423943E+03  0.19132670170E+03  0.12500000000E+03 0.  0.
         25    1    1    2    0    0 -0.25819311846E+02  0.42028361769E+02 -0.50059243242E+03  0.51831535135E+03  0.12500000000E+03 0.  0.
</event>
<event>
 5    0  0.5778896E-005  0.2978416E+03  0.7546771E-02  0.1086325E+00
         21   -1    0    0  502  501  0.00000000000E+00  0.00000000000E+00  0.11464121194E+04  0.11464121194E+04  0.00000000000E+00 0. -1.
         21   -1    0    0  501  502 -0.00000000000E+00 -0.00000000000E+00 -0.77380212724E+02  0.77380212724E+02  0.00000000000E+00 0. -1.
         25    1    1    2    0    0 -0.11551576305E+03  0.49895451302E+02  0.52496071416E+03  0.55411388630E+03  0.12500000000E+03 0.  0.
         25    1    1    2    0    0 -0.10266230189E+02 -0.17216082759E+02  0.44763794481E+03  0.46519514037E+03  0.12500000000E+03 0.  0.
         25    1    1    2    0    0  0.12578199324E+03 -0.32679368542E+02  0.96433247717E+02  0.20448330547E+03  0.12500000000E+03 0.  0.
</event>
<event>
 5    0  0.5778896E-005  0.5974232E+03  0.7546771E-02  0.9910766E-01
         21   -1    0    0  502  501  0.00000000000E+00  0.00000000000E+00  0.12668754067E+04  0.12668754067E+04  0.00000000000E+00 0.  1.
         21   -1    0    0  501  502 -0.00000000000E+00 -0.00000000000E+00 -0.28172820654E+03  0.28172820654E+03  0.00000000000E+00 0.  1.
         25    1    1    2    0    0 -0.31841477722E+03 -0.28375828698E+03  0.55194342179E+03  0.70864185357E+03  0.12500000000E+03 0.  0.
         25    1    1    2    0    0  0.36936168847E+03  0.38680329911E+03  0.31654981885E+03  0.63393504157E+03  0.12500000000E+03 0.  0.
         25    1    1    2    0    0 -0.50946911256E+02 -0.10304501214E+03  0.11665395949E+03  0.20602671807E+03  0.12500000000E+03 0.  0.
</event>
<event>
 5    0  0.5778896E-005  0.3549256E+03  0.7546771E-02  0.1060611E+00
         21   -1    0    0  502  501  0.00000000000E+00  0.00000000000E+00  0.15072974869E+03  0.15072974869E+03  0.00000000000E+00 0.  1.
         21   -1    0    0  501  502 -0.00000000000E+00 -0.00000000000E+00 -0.83574853119E+03  0.83574853119E+03  0.00000000000E+00 0.  1.
         25    1    1    2    0    0  0.18678231191E+00 -0.12976509338E+03 -0.13489619557E+03  0.22507998118E+03  0.12500000000E+03 0.  0.
         25    1    1    2    0    0 -0.73011023833E+02  0.41595679925E+02 -0.57115466612E+03  0.59068050825E+03  0.12500000000E+03 0.  0.
         25    1    1    2    0    0  0.72824241522E+02  0.88169413455E+02  0.21032079185E+02  0.17071779045E+03  0.12500000000E+03 0.  0.
</event>
<event>
 5    0  0.6169428E-005  0.3095841E+03  0.7546771E-02  0.1080545E+00
         21   -1    0    0  502  501  0.00000000000E+00  0.00000000000E+00  0.33994273712E+03  0.33994273712E+03  0.00000000000E+00 0.  1.
         21   -1    0    0  501  502 -0.00000000000E+00 -0.00000000000E+00 -0.28193673521E+03  0.28193673521E+03  0.00000000000E+00 0.  1.
         25    1    1    2    0    0  0.93258682396E+02  0.13671011774E+02 -0.10673713651E+03  0.18947795311E+03  0.12500000000E+03 0.  0.
         25    1    1    2    0    0 -0.13366695562E+03  0.10673347916E+03  0.13637945236E+03  0.25195881732E+03  0.12500000000E+03 0.  0.
         25    1    1    2    0    0  0.40408273223E+02 -0.12040449093E+03  0.28363686059E+02  0.18044270190E+03  0.12500000000E+03 0.  0.
</event>
<event>
 5    0  0.6799888E-005  0.4390647E+03  0.7546771E-02  0.1031034E+00
         21   -1    0    0  502  501  0.00000000000E+00  0.00000000000E+00  0.45626829135E+03  0.45626829135E+03  0.00000000000E+00 0.  1.
         21   -1    0    0  501  502 -0.00000000000E+00 -0.00000000000E+00 -0.42250969185E+03  0.42250969185E+03  0.00000000000E+00 0.  1.
         25    1    1    2    0    0  0.13039203528E+03 -0.99968480451E+02  0.27411276758E+03  0.34315971398E+03  0.12500000000E+03 0.  0.
         25    1    1    2    0    0 -0.15642946398E+03 -0.11146595764E+03 -0.14300085698E+03  0.27012789936E+03  0.12500000000E+03 0.  0.
         25    1    1    2    0    0  0.26037428706E+02  0.21143443810E+03 -0.97353311095E+02  0.26549036986E+03  0.12500000000E+03 0.  0.
</event>
<event>
 5    0  0.6259532E-005  0.2585734E+03  0.7546771E-02  0.1108003E+00
         21   -1    0    0  502  501  0.00000000000E+00  0.00000000000E+00  0.55630058168E+03  0.55630058168E+03  0.00000000000E+00 0.  1.
         21   -1    0    0  501  502 -0.00000000000E+00 -0.00000000000E+00 -0.12018716840E+03  0.12018716840E+03  0.00000000000E+00 0.  1.
         25    1    1    2    0    0  0.29693261088E+02 -0.79389090321E+02 -0.10188723445E+02  0.15137082778E+03  0.12500000000E+03 0.  0.
         25    1    1    2    0    0  0.97180759464E+01  0.62186782043E+02  0.18187421081E+03  0.22948826858E+03  0.12500000000E+03 0.  0.
         25    1    1    2    0    0 -0.39411337035E+02  0.17202308279E+02  0.26442792592E+03  0.29562865372E+03  0.12500000000E+03 0.  0.
</event>
<event>
 5    0  0.5778896E-005  0.3296412E+03  0.7546771E-02  0.1071296E+00
         21   -1    0    0  502  501  0.00000000000E+00  0.00000000000E+00  0.41610280006E+03  0.41610280006E+03  0.00000000000E+00 0. -1.
         21   -1    0    0  501  502 -0.00000000000E+00 -0.00000000000E+00 -0.26114545135E+03  0.26114545135E+03  0.00000000000E+00 0. -1.
         25    1    1    2    0    0 -0.62159688486E+02 -0.14189234018E+03  0.19152950820E+03  0.27623507305E+03  0.12500000000E+03 0.  0.
         25    1    1    2    0    0 -0.51508375560E+02  0.17614223863E+03  0.10557679588E+02  0.22229634630E+03  0.12500000000E+03 0.  0.
         25    1    1    2    0    0  0.11366806405E+03 -0.34249898448E+02 -0.47129839081E+02  0.17871683205E+03  0.12500000000E+03 0.  0.
</event>
<event>
 5    0  0.5778896E-005  0.2213472E+03  0.7546771E-02  0.1132883E+00
         21   -1    0    0  502  501  0.00000000000E+00  0.00000000000E+00  0.10115269603E+03  0.10115269603E+03  0.00000000000E+00 0. -1.
         21   -1    0    0  501  502 -0.00000000000E+00 -0.00000000000E+00 -0.48436249050E+03  0.48436249050E+03  0.00000000000E+00 0. -1.
         25    1    1    2    0    0 -0.81724120497E+02  0.20321616509E+02 -0.17263358138E+03  0.22917057706E+03  0.12500000000E+03 0.  0.
         25    1    1    2    0    0  0.23921844812E+01  0.23235405906E+02 -0.13154724864E+03  0.18296252419E+03  0.12500000000E+03 0.  0.
         25    1    1    2    0    0  0.79331936016E+02 -0.43557022415E+02 -0.79028964444E+02  0.17338208528E+03  0.12500000000E+03 0.  0.
</event>
<event>
 5    0  0.5778896E-005  0.2391112E+03  0.7546771E-02  0.1120386E+00
         21   -1    0    0  502  501  0.00000000000E+00  0.00000000000E+00  0.42981648531E+02  0.42981648531E+02  0.00000000000E+00 0. -1.
         21   -1    0    0  501  502 -0.00000000000E+00 -0.00000000000E+00 -0.13301989538E+04  0.13301989538E+04  0.00000000000E+00 0. -1.
         25    1    1    2    0    0 -0.30710825609E+01  0.10857512775E+03 -0.44900847707E+03  0.47857246306E+03  0.12500000000E+03 0.  0.
         25    1    1    2    0    0  0.45250291642E+02 -0.94944982395E+02 -0.31487278581E+03  0.35472807870E+03  0.12500000000E+03 0.  0.
         25    1    1    2    0    0 -0.42179209081E+02 -0.13630145355E+02 -0.52333604238E+03  0.53988006056E+03  0.12500000000E+03 0.  0.
</event>
<event>
 5    0  0.5778896E-005  0.4057573E+03  0.7546771E-02  0.1041804E+00
         21   -1    0    0  502  501  0.00000000000E+00  0.00000000000E+00  0.78382192544E+03  0.78382192544E+03  0.00000000000E+00 0.  1.
         21   -1    0    0  501  502 -0.00000000000E+00 -0.00000000000E+00 -0.21004644925E+03  0.21004644925E+03  0.00000000000E+00 0.  1.
         25    1    1    2    0    0 -0.21164748489E+03  0.40854181462E+02  0.47961270932E+03  0.54047855919E+03  0.12500000000E+03 0.  0.
         25    1    1    2    0    0  0.23169733473E+02  0.11284079344E+03  0.32017870425E+02  0.17297405944E+03  0.12500000000E+03 0.  0.
         25    1    1    2    0    0  0.18847775142E+03 -0.15369497490E+03  0.62144896437E+02  0.28041575605E+03  0.12500000000E+03 0.  0.
</event>
<event>
 5    0  0.5778896E-005  0.3208224E+03  0.7546771E-02  0.1075271E+00
         21   -1    0    0  502  501  0.00000000000E+00  0.00000000000E+00  0.18263371546E+04  0.18263371546E+04  0.00000000000E+00 0. -1.
         21   -1    0    0  501  502 -0.00000000000E+00 -0.00000000000E+00 -0.56357067730E+02  0.56357067730E+02  0.00000000000E+00 0. -1.
         25    1    1    2    0    0 -0.13651986510E+03 -0.43773238287E+02  0.62975798866E+03  0.65785552688E+03  0.12500000000E+03 0.  0.
         25    1    1    2    0    0  0.18131879086E+03  0.13568594151E+03  0.48122027900E+03  0.54633793165E+03  0.12500000000E+03 0.  0.
         25    1    1    2    0    0 -0.44798925767E+02 -0.91912703218E+02  0.65900181924E+03  0.67850076383E+03  0.12500000000E+03 0.  0.
</event>
<event>
 5    0  0.5778896E-005  0.3095495E+03  0.7546771E-02  0.1080562E+00
         21   -1    0    0  502  501  0.00000000000E+00  0.00000000000E+00  0.12166358018E+03  0.12166358018E+03  0.00000000000E+00 0.  1.
         21   -1    0    0  501  502 -0.00000000000E+00 -0.00000000000E+00 -0.78758897824E+03  0.78758897824E+03  0.00000000000E+00 0. -1.
         25    1    1    2    0    0  0.42539756620E+02 -0.16886983953E+03 -0.75755145401E+02  0.22735543902E+03  0.12500000000E+03 0.  0.
         25    1    1    2    0    0  0.54563222120E+02  0.63879568015E+02 -0.23478661181E+03  0.27893995322E+03  0.12500000000E+03 0.  0.
         25    1    1    2    0    0 -0.97102978740E+02  0.10499027152E+03 -0.35538364084E+03  0.40295716618E+03  0.12500000000E+03 0.  0.
</event>
<event>
 5    0  0.5778896E-005  0.3638710E+03  0.7546771E-02  0.1057062E+00
         21   -1    0    0  502  501  0.00000000000E+00  0.00000000000E+00  0.30543814759E+03  0.30543814759E+03  0.00000000000E+00 0.  1.
         21   -1    0    0  501  502 -0.00000000000E+00 -0.00000000000E+00 -0.43348250391E+03  0.43348250391E+03  0.00000000000E+00 0.  1.
         25    1    1    2    0    0  0.78892146447E+02 -0.27372835704E+02 -0.69717637681E+02  0.16570694587E+03  0.12500000000E+03 0.  0.
         25    1    1    2    0    0  0.84573421450E+02  0.17188796728E+03  0.12626412451E+03  0.26127718242E+03  0.12500000000E+03 0.  0.
         25    1    1    2    0    0 -0.16346556790E+03 -0.14451513158E+03 -0.18459084315E+03  0.31193652322E+03  0.12500000000E+03 0.  0.
</event>
<event>
 5    0  0.5778896E-005  0.3004876E+03  0.7546771E-02  0.1084997E+00
         21   -1    0    0  502  501  0.00000000000E+00  0.00000000000E+00  0.60377903657E+02  0.60377903657E+02  0.00000000000E+00 0.  1.
         21   -1    0    0  501  502 -0.00000000000E+00 -0.00000000000E+00 -0.14954612773E+04  0.14954612773E+04  0.00000000000E+00 0.  1.
         25    1    1    2    0    0 -0.10464929367E+03  0.76028968189E+02 -0.92969352321E+03  0.94693554467E+03  0.12500000000E+03 0.  0.
         25    1    1    2    0    0  0.43436204937E+02  0.38618682214E+02 -0.11744296342E+03  0.18109653827E+03  0.12500000000E+03 0.  0.
         25    1    1    2    0    0  0.61213088732E+02 -0.11464765040E+03 -0.38794688706E+03  0.42780709806E+03  0.12500000000E+03 0.  0.
</event>
<event>
 5    0  0.5778896E-005  0.3638412E+03  0.7546771E-02  0.1057073E+00
         21   -1    0    0  502  501  0.00000000000E+00  0.00000000000E+00  0.10704366164E+04  0.10704366164E+04  0.00000000000E+00 0.  1.
         21   -1    0    0  501  502 -0.00000000000E+00 -0.00000000000E+00 -0.12366958634E+03  0.12366958634E+03  0.00000000000E+00 0.  1.
         25    1    1    2    0    0 -0.28248221463E+02 -0.87163866130E+02  0.19001858856E+03  0.24520922815E+03  0.12500000000E+03 0.  0.
         25    1    1    2    0    0 -0.61063198746E+02 -0.17476037177E+03  0.51297529642E+03  0.55949848661E+03  0.12500000000E+03 0.  0.
         25    1    1    2    0    0  0.89311420209E+02  0.26192423790E+03  0.24377314512E+03  0.38939848801E+03  0.12500000000E+03 0.  0.
</event>
<event>
 5    0  0.5778896E-005  0.5384782E+03  0.7546771E-02  0.1004197E+00
         21   -1    0    0  502  501  0.00000000000E+00  0.00000000000E+00  0.24644002451E+03  0.24644002451E+03  0.00000000000E+00 0. -1.
         21   -1    0    0  501  502 -0.00000000000E+00 -0.00000000000E+00 -0.11765895957E+04  0.11765895957E+04  0.00000000000E+00 0. -1.
         25    1    1    2    0    0  0.29695600250E+03 -0.32164221842E+03 -0.18828051277E+03  0.49265721915E+03  0.12500000000E+03 0.  0.
         25    1    1    2    0    0 -0.13067399001E+03  0.32168539791E+02 -0.14033003474E+03  0.23114503081E+03  0.12500000000E+03 0.  0.
         25    1    1    2    0    0 -0.16628201248E+03  0.28947367863E+03 -0.60153902367E+03  0.69922737024E+03  0.12500000000E+03 0.  0.
</event>
<event>
 5    0  0.5778896E-005  0.3811284E+03  0.7546771E-02  0.1050517E+00
         21   -1    0    0  502  501  0.00000000000E+00  0.00000000000E+00  0.56297066923E+03  0.56297066923E+03  0.00000000000E+00 0.  1.
         21   -1    0    0  501  502 -0.00000000000E+00 -0.00000000000E+00 -0.25802200550E+03  0.25802200550E+03  0.00000000000E+00 0.  1.
         25    1    1    2    0    0 -0.41078777535E+02 -0.23678630320E+03  0.27369632637E+03  0.38508427444E+03  0.12500000000E+03 0.  0.
         25    1    1    2    0    0 -0.42568457936E+02  0.19409908892E+02 -0.72559505270E+02  0.15191675345E+03  0.12500000000E+03 0.  0.
         25    1    1    2    0    0  0.83647235471E+02  0.21737639431E+03  0.10381184263E+03  0.28399164684E+03  0.12500000000E+03 0.  0.
</event>
<event>
 5    0  0.5778896E-005  0.2580598E+03  0.7546771E-02  0.1108315E+00
         21   -1    0    0  502  501  0.00000000000E+00  0.00000000000E+00  0.68228050375E+02  0.68228050375E+02  0.00000000000E+00 0. -1.
         21   -1    0    0  501  502 -0.00000000000E+00 -0.00000000000E+00 -0.97606292223E+03  0.97606292223E+03  0.00000000000E+00 0. -1.
         25    1    1    2    0    0  0.56192370053E+01 -0.79640514904E+02 -0.10899069728E+03  0.18406020627E+03  0.12500000000E+03 0.  0.
         25    1    1    2    0    0 -0.23523431988E+02  0.35207724749E+02 -0.63540978755E+03  0.64897113484E+03  0.12500000000E+03 0.  0.
         25    1    1    2    0    0  0.17904194983E+02  0.44432790154E+02 -0.16343438702E+03  0.21125963150E+03  0.12500000000E+03 0.  0.
</event>
<event>
 5    0  0.5778896E-005  0.2796351E+03  0.7546771E-02  0.1095888E+00
         21   -1    0    0  502  501  0.00000000000E+00  0.00000000000E+00  0.20149102608E+03  0.20149102608E+03  0.00000000000E+00 0. -1.
         21   -1    0    0  501  502 -0.00000000000E+00 -0.00000000000E+00 -0.38808572808E+03  0.38808572808E+03  0.00000000000E+00 0. -1.
         25    1    1    2    0    0  0.33882010698E+02  0.44081195721E+02  0.33015134276E+02  0.14073429417E+03  0.12500000000E+03 0.  0.
         25    1    1    2    0    0  0.17360514911E+02 -0.15257683878E+03 -0.45413152726E+02  0.20314633556E+03  0.12500000000E+03 0.  0.
         25    1    1    2    0    0 -0.51242525609E+02  0.10849564306E+03 -0.17419668355E+03  0.24569612442E+03  0.12500000000E+03 0.  0.
</event>
<event>
 5    0  0.5778896E-005  0.2857982E+03  0.7546771E-02  0.1092564E+00
         21   -1    0    0  502  501  0.00000000000E+00  0.00000000000E+00  0.13611769730E+03  0.13611769730E+03  0.00000000000E+00 0.  1.
         21   -1    0    0  501  502 -0.00000000000E+00 -0.00000000000E+00 -0.60007348451E+03  0.60007348451E+03  0.00000000000E+00 0.  1.
         25    1    1    2    0    0  0.38685411836E+02  0.15556867808E+03 -0.75519614676E+02  0.21685568217E+03  0.12500000000E+03 0.  0.
         25    1    1    2    0    0  0.42162726105E+01 -0.36527251240E+02 -0.55006400903E+02  0.14143097673E+03  0.12500000000E+03 0.  0.
         25    1    1    2    0    0 -0.42901684446E+02 -0.11904142684E+03 -0.33342977163E+03  0.37790452292E+03  0.12500000000E+03 0.  0.
</event>
<event>
 5    0  0.5778896E-005  0.2764230E+03  0.7546771E-02  0.1097659E+00
         21   -1    0    0  502  501  0.00000000000E+00  0.00000000000E+00  0.61645641091E+02  0.61645641091E+02  0.00000000000E+00 0. -1.
         21   -1    0    0  501  502 -0.00000000000E+00 -0.00000000000E+00 -0.12394983237E+04  0.12394983237E+04  0.00000000000E+00 0. -1.
         25    1    1    2    0    0  0.10499222681E+03  0.11035110947E+03 -0.39701352890E+03  0.44322170206E+03  0.12500000000E+03 0.  0.
         25    1    1    2    0    0 -0.91252565275E+02 -0.11161019257E+03 -0.26236179328E+03  0.32441112239E+03  0.12500000000E+03 0.  0.
         25    1    1    2    0    0 -0.13739661536E+02  0.12590830986E+01 -0.51847736040E+03  0.53351114031E+03  0.12500000000E+03 0.  0.
</event>
<event>
 5    0  0.5778896E-005  0.2567772E+03  0.7546771E-02  0.1109095E+00
         21   -1    0    0  502  501  0.00000000000E+00  0.00000000000E+00  0.66181281342E+03  0.66181281342E+03  0.00000000000E+00 0.  1.
         21   -1    0    0  501  502 -0.00000000000E+00 -0.00000000000E+00 -0.99627192231E+02  0.99627192231E+02  0.00000000000E+00 0.  1.
         25    1    1    2    0    0 -0.18403066717E+02 -0.60044421390E+02  0.23972145361E+03  0.27755248283E+03  0.12500000000E+03 0.  0.
         25    1    1    2    0    0 -0.14734597473E+02 -0.10236944423E+02 -0.33994502683E+01  0.12632679706E+03  0.12500000000E+03 0.  0.
         25    1    1    2    0    0  0.33137664190E+02  0.70281365813E+02  0.32586361785E+03  0.35756072576E+03  0.12500000000E+03 0.  0.
</event>
<event>
 5    0  0.5778896E-005  0.2269694E+03  0.7546771E-02  0.1128791E+00
         21   -1    0    0  502  501  0.00000000000E+00  0.00000000000E+00  0.67252801460E+02  0.67252801460E+02  0.00000000000E+00 0.  1.
         21   -1    0    0  501  502 -0.00000000000E+00 -0.00000000000E+00 -0.76599219019E+03  0.76599219019E+03  0.00000000000E+00 0.  1.
         25    1    1    2    0    0  0.21877739835E+02  0.95271504466E+01 -0.18997488175E+03  0.22865882400E+03  0.12500000000E+03 0.  0.
         25    1    1    2    0    0 -0.83311098735E+02 -0.64704647849E+02 -0.34980853812E+03  0.38615857361E+03  0.12500000000E+03 0.  0.
         25    1    1    2    0    0  0.61433358901E+02  0.55177497403E+02 -0.15895596886E+03  0.21842759404E+03  0.12500000000E+03 0.  0.
</event>
<event>
 5    0  0.6939951E-005  0.3664329E+03  0.7546771E-02  0.1056065E+00
         21   -1    0    0  502  501  0.00000000000E+00  0.00000000000E+00  0.37918194859E+03  0.37918194859E+03  0.00000000000E+00 0.  1.
         21   -1    0    0  501  502 -0.00000000000E+00 -0.00000000000E+00 -0.35411253611E+03  0.35411253611E+03  0.00000000000E+00 0.  1.
         25    1    1    2    0    0  0.95123134000E+02  0.15610800059E+02 -0.10926409944E+03  0.19197851736E+03  0.12500000000E+03 0.  0.
         25    1    1    2    0    0  0.13297180921E+03  0.34463408764E+02  0.19530224373E+03  0.26951288465E+03  0.12500000000E+03 0.  0.
         25    1    1    2    0    0 -0.22809494321E+03 -0.50074208823E+02 -0.60968731810E+02  0.27180308270E+03  0.12500000000E+03 0.  0.
</event>
<event>
 5    0  0.5778896E-005  0.2451445E+03  0.7546771E-02  0.1116412E+00
         21   -1    0    0  502  501  0.00000000000E+00  0.00000000000E+00  0.29720043213E+03  0.29720043213E+03  0.00000000000E+00 0.  1.
         21   -1    0    0  501  502 -0.00000000000E+00 -0.00000000000E+00 -0.20220638584E+03  0.20220638584E+03  0.00000000000E+00 0.  1.
         25    1    1    2    0    0 -0.36883138475E+02  0.45387034952E+02  0.62078820601E+02  0.15132458099E+03  0.12500000000E+03 0.  0.
         25    1    1    2    0    0  0.31725083886E+02 -0.13625555115E+03 -0.91703651860E+01  0.18783277607E+03  0.12500000000E+03 0.  0.
         25    1    1    2    0    0  0.51580545891E+01  0.90868516203E+02  0.42085590873E+02  0.16024946091E+03  0.12500000000E+03 0.  0.
</event>
<event>
 5    0  0.5778896E-005  0.2650559E+03  0.7546771E-02  0.1104143E+00
         21   -1    0    0  502  501  0.00000000000E+00  0.00000000000E+00  0.34817719978E+03  0.34817719978E+03  0.00000000000E+00 0.  1.
         21   -1    0    0  501  502 -0.00000000000E+00 -0.00000000000E+00 -0.20177833253E+03  0.20177833253E+03  0.00000000000E+00 0.  1.
         25    1    1    2    0    0  0.75484409138E+02 -0.11945384057E+03  0.39046464344E+02  0.19265705911E+03  0.12500000000E+03 0.  0.
         25    1    1    2    0    0  0.63920517535E+01  0.13830772515E+03  0.33366525397E+02  0.18949461781E+03  0.12500000000E+03 0.  0.
         25    1    1    2    0    0 -0.81876460891E+02 -0.18853884587E+02  0.73985877506E+02  0.16780385539E+03  0.12500000000E+03 0.  0.
</event>
<event>
 5    0  0.5778896E-005  0.2469720E+03  0.7546771E-02  0.1115234E+00
         21   -1    0    0  502  501  0.00000000000E+00  0.00000000000E+00  0.65870875240E+02  0.65870875240E+02  0.00000000000E+00 0.  1.
         21   -1    0    0  501  502 -0.00000000000E+00 -0.00000000000E+00 -0.92598113339E+03  0.92598113339E+03  0.00000000000E+00 0.  1.
         25    1    1    2    0    0 -0.68995119106E+02  0.16238742581E+02 -0.50889557325E+03  0.52879459877E+03  0.12500000000E+03 0.  0.
         25    1    1    2    0    0  0.48594099739E+02 -0.80158342991E+02 -0.21981159057E+03  0.26968292832E+03  0.12500000000E+03 0.  0.
         25    1    1    2    0    0  0.20401019367E+02  0.63919600410E+02 -0.13140309434E+03  0.19337448153E+03  0.12500000000E+03 0.  0.
</event>
<event>
 5    0  0.5778896E-005  0.3930132E+03  0.7546771E-02  0.1046226E+00
         21   -1    0    0  502  501  0.00000000000E+00  0.00000000000E+00  0.33627529096E+03  0.33627529096E+03  0.00000000000E+00 0.  1.
         21   -1    0    0  501  502 -0.00000000000E+00 -0.00000000000E+00 -0.45932424887E+03  0.45932424887E+03  0.00000000000E+00 0.  1.
         25    1    1    2    0    0 -0.39362371874E+02  0.18506499139E+02 -0.15140806145E+03  0.20110019369E+03  0.12500000000E+03 0.  0.
         25    1    1    2    0    0 -0.29162014053E+02 -0.23285098506E+03 -0.12612558196E+03  0.29428331032E+03  0.12500000000E+03 0.  0.
         25    1    1    2    0    0  0.68524385927E+02  0.21434448592E+03  0.15448468551E+03  0.30021603583E+03  0.12500000000E+03 0.  0.
</event>
<event>
 5    0  0.5778896E-005  0.2627805E+03  0.7546771E-02  0.1105484E+00
         21   -1    0    0  502  501  0.00000000000E+00  0.00000000000E+00  0.10431171872E+03  0.10431171872E+03  0.00000000000E+00 0. -1.
         21   -1    0    0  501  502 -0.00000000000E+00 -0.00000000000E+00 -0.66199282179E+03  0.66199282179E+03  0.00000000000E+00 0. -1.
         25    1    1    2    0    0 -0.85523210432E+02 -0.73241904174E+02 -0.45623166681E+02  0.17431313602E+03  0.12500000000E+03 0.  0.
         25    1    1    2    0    0  0.48376296643E+02  0.14260775431E+02 -0.14477960593E+03  0.19781246191E+03  0.12500000000E+03 0.  0.
         25    1    1    2    0    0  0.37146913789E+02  0.58981128743E+02 -0.36727833045E+03  0.39417894258E+03  0.12500000000E+03 0.  0.
</event>
<event>
 5    0  0.5778896E-005  0.4157583E+03  0.7546771E-02  0.1038456E+00
         21   -1    0    0  502  501  0.00000000000E+00  0.00000000000E+00  0.39279797817E+03  0.39279797817E+03  0.00000000000E+00 0.  1.
         21   -1    0    0  501  502 -0.00000000000E+00 -0.00000000000E+00 -0.44006077642E+03  0.44006077642E+03  0.00000000000E+00 0.  1.
         25    1    1    2    0    0  0.23271965824E+02 -0.23412530261E+03  0.49751384010E+02  0.27102848914E+03  0.12500000000E+03 0.  0.
         25    1    1    2    0    0 -0.11059435450E+02  0.34915063199E+03 -0.11348484995E+02  0.37119033264E+03  0.12500000000E+03 0.  0.
         25    1    1    2    0    0 -0.12212530375E+02 -0.11502532938E+03 -0.85665697258E+02  0.19063993282E+03  0.12500000000E+03 0.  0.
</event>
<event>
 5    0  0.5778896E-005  0.3222998E+03  0.7546771E-02  0.1074596E+00
         21   -1    0    0  502  501  0.00000000000E+00  0.00000000000E+00  0.55371180135E+03  0.55371180135E+03  0.00000000000E+00 0. -1.
         21   -1    0    0  501  502 -0.00000000000E+00 -0.00000000000E+00 -0.18760145764E+03  0.18760145764E+03  0.00000000000E+00 0. -1.
         25    1    1    2    0    0 -0.41085523480E+02  0.18425586746E+03  0.17986040175E+03  0.28915914139E+03  0.12500000000E+03 0.  0.
         25    1    1    2    0    0 -0.26139877191E+02 -0.86710241099E+02 -0.47781061853E+02  0.16158585632E+03  0.12500000000E+03 0.  0.
         25    1    1    2    0    0  0.67225400671E+02 -0.97545626366E+02  0.23403100381E+03  0.29056826128E+03  0.12500000000E+03 0.  0.
</event>
<event>
 5    0  0.5778896E-005  0.3871005E+03  0.7546771E-02  0.1048340E+00
         21   -1    0    0  502  501  0.00000000000E+00  0.00000000000E+00  0.22359611467E+03  0.22359611467E+03  0.00000000000E+00 0. -1.
         21   -1    0    0  501  502 -0.00000000000E+00 -0.00000000000E+00 -0.67016712484E+03  0.67016712484E+03  0.00000000000E+00 0. -1.
         25    1    1    2    0    0  0.53068969499E+02  0.12114884530E+03 -0.55649817656E+03  0.58549857280E+03  0.12500000000E+03 0.  0.
         25    1    1    2    0    0 -0.51623500159E+02 -0.66155366510E+02  0.45636759447E+02  0.15731888666E+03  0.12500000000E+03 0.  0.
         25    1    1    2    0    0 -0.14454693398E+01 -0.54993478790E+02  0.64290406936E+02  0.15094578005E+03  0.12500000000E+03 0.  0.
</event>
<event>
 5    0  0.5778896E-005  0.4518138E+03  0.7546771E-02  0.1027183E+00
         21   -1    0    0  502  501  0.00000000000E+00  0.00000000000E+00  0.26131503550E+04  0.26131503550E+04  0.00000000000E+00 0. -1.
         21   -1    0    0  501  502 -0.00000000000E+00 -0.00000000000E+00 -0.78118611783E+02  0.78118611783E+02  0.00000000000E+00 0. -1.
         25    1    1    2    0    0 -0.67610928497E+02 -0.12290827234E+02  0.12563572771E+04  0.12644290845E+04  0.12500000000E+03 0.  0.
         25    1    1    2    0    0 -0.14425575097E+03  0.18729262024E+03  0.29633582488E+03  0.39915932708E+03  0.12500000000E+03 0.  0.
         25    1    1    2    0    0  0.21186667946E+03 -0.17500179301E+03  0.98233864125E+03  0.10276805552E+04  0.12500000000E+03 0.  0.
</event>
<event>
 5    0  0.6393071E-005  0.3667805E+03  0.7546771E-02  0.1055931E+00
         21   -1    0    0  502  501  0.00000000000E+00  0.00000000000E+00  0.19078436885E+03  0.19078436885E+03  0.00000000000E+00 0.  1.
         21   -1    0    0  501  502 -0.00000000000E+00 -0.00000000000E+00 -0.70513068395E+03  0.70513068395E+03  0.00000000000E+00 0.  1.
         25    1    1    2    0    0  0.84424187532E+01  0.13941357169E+03 -0.28166060137E+03  0.33832693178E+03  0.12500000000E+03 0.  0.
         25    1    1    2    0    0 -0.15653378296E+03  0.77081609376E+00  0.29741536066E+02  0.20251661249E+03  0.12500000000E+03 0.  0.
         25    1    1    2    0    0  0.14809136421E+03 -0.14018438778E+03 -0.26242724981E+03  0.35507150853E+03  0.12500000000E+03 0.  0.
</event>
<event>
 5    0  0.5778896E-005  0.2358207E+03  0.7546771E-02  0.1122609E+00
         21   -1    0    0  502  501  0.00000000000E+00  0.00000000000E+00  0.13113220958E+04  0.13113220958E+04  0.00000000000E+00 0.  1.
         21   -1    0    0  501  502 -0.00000000000E+00 -0.00000000000E+00 -0.42408663183E+02  0.42408663183E+02  0.00000000000E+00 0.  1.
         25    1    1    2    0    0  0.68222970895E+02  0.69371152995E+02  0.34180777072E+03  0.37672839387E+03  0.12500000000E+03 0.  0.
         25    1    1    2    0    0  0.71174587759E+01 -0.98612473983E+02  0.47523502098E+03  0.50124684878E+03  0.12500000000E+03 0.  0.
         25    1    1    2    0    0 -0.75340429670E+02  0.29241320988E+02  0.45187064089E+03  0.47575551631E+03  0.12500000000E+03 0.  0.
</event>
<event>
 5    0  0.5778896E-005  0.2371223E+03  0.7546771E-02  0.1121725E+00
         21   -1    0    0  502  501  0.00000000000E+00  0.00000000000E+00  0.76844298083E+02  0.76844298083E+02  0.00000000000E+00 0. -1.
         21   -1    0    0  501  502 -0.00000000000E+00 -0.00000000000E+00 -0.73169997088E+03  0.73169997088E+03  0.00000000000E+00 0. -1.
         25    1    1    2    0    0  0.72318519212E+02  0.76047667727E+02 -0.21386740760E+03  0.26903063770E+03  0.12500000000E+03 0.  0.
         25    1    1    2    0    0  0.22466220360E+02 -0.63765869311E+02 -0.28221411566E+03  0.31597567031E+03  0.12500000000E+03 0.  0.
         25    1    1    2    0    0 -0.94784739572E+02 -0.12281798416E+02 -0.15877414953E+03  0.22353796095E+03  0.12500000000E+03 0.  0.
</event>
<event>
 5    0  0.5778896E-005  0.3205738E+03  0.7546771E-02  0.1075386E+00
         21   -1    0    0  502  501  0.00000000000E+00  0.00000000000E+00  0.11075759699E+04  0.11075759699E+04  0.00000000000E+00 0. -1.
         21   -1    0    0  501  502 -0.00000000000E+00 -0.00000000000E+00 -0.92785989219E+02  0.92785989219E+02  0.00000000000E+00 0. -1.
         25    1    1    2    0    0  0.12666875141E+03  0.88180407682E+02  0.13425024785E+03  0.23972669007E+03  0.12500000000E+03 0.  0.
         25    1    1    2    0    0 -0.15205362794E+03 -0.83857863588E+02  0.31444771366E+03  0.38033513075E+03  0.12500000000E+03 0.  0.
         25    1    1    2    0    0  0.25384876533E+02 -0.43225440941E+01  0.56609201916E+03  0.58030013829E+03  0.12500000000E+03 0.  0.
</event>
<event>
 5    0  0.7160190E-005  0.3204444E+03  0.7546771E-02  0.1075445E+00
         21   -1    0    0  502  501  0.00000000000E+00  0.00000000000E+00  0.27900403803E+03  0.27900403803E+03  0.00000000000E+00 0.  1.
         21   -1    0    0  501  502 -0.00000000000E+00 -0.00000000000E+00 -0.36803988176E+03  0.36803988176E+03  0.00000000000E+00 0.  1.
         25    1    1    2    0    0  0.30560596706E+01 -0.93512192404E+02 -0.20134705912E+03  0.25479306868E+03  0.12500000000E+03 0.  0.
         25    1    1    2    0    0  0.86292105728E+02  0.12383443528E+03 -0.58510068914E+01  0.19606256438E+03  0.12500000000E+03 0.  0.
         25    1    1    2    0    0 -0.89348165399E+02 -0.30322242874E+02  0.11816222229E+03  0.19618828673E+03  0.12500000000E+03 0.  0.
</event>
<event>
 5    0  0.5778896E-005  0.2768797E+03  0.7546771E-02  0.1097406E+00
         21   -1    0    0  502  501  0.00000000000E+00  0.00000000000E+00  0.70220266247E+03  0.70220266247E+03  0.00000000000E+00 0.  1.
         21   -1    0    0  501  502 -0.00000000000E+00 -0.00000000000E+00 -0.10917411372E+03  0.10917411372E+03  0.00000000000E+00 0.  1.
         25    1    1    2    0    0 -0.12612063113E+02 -0.13900914361E+03  0.38629671610E+03  0.42933991081E+03  0.12500000000E+03 0.  0.
         25    1    1    2    0    0  0.32680970070E+02  0.82817402077E+02  0.18734237721E+03  0.24217542028E+03  0.12500000000E+03 0.  0.
         25    1    1    2    0    0 -0.20068906957E+02  0.56191741529E+02  0.19389455432E+02  0.13986144510E+03  0.12500000000E+03 0.  0.
</event>
<event>
 5    0  0.7536021E-005  0.2667395E+03  0.7546771E-02  0.1103160E+00
         21   -1    0    0  502  501  0.00000000000E+00  0.00000000000E+00  0.26033925303E+03  0.26033925303E+03  0.00000000000E+00 0. -1.
         21   -1    0    0  501  502 -0.00000000000E+00 -0.00000000000E+00 -0.27329710494E+03  0.27329710494E+03  0.00000000000E+00 0. -1.
         25    1    1    2    0    0  0.45535820758E+02  0.86751527977E+02 -0.34110783499E+02  0.16244347980E+03  0.12500000000E+03 0.  0.
         25    1    1    2    0    0 -0.62927600092E+02 -0.61334855293E+02  0.13153325976E+03  0.20161310907E+03  0.12500000000E+03 0.  0.
         25    1    1    2    0    0  0.17391779335E+02 -0.25416672684E+02 -0.11038032817E+03  0.16957976909E+03  0.12500000000E+03 0.  0.
</event>
<event>
 5    0  0.5778896E-005  0.3306014E+03  0.7546771E-02  0.1070871E+00
         21   -1    0    0  502  501  0.00000000000E+00  0.00000000000E+00  0.20117692581E+03  0.20117692581E+03  0.00000000000E+00 0. -1.
         21   -1    0    0  501  502 -0.00000000000E+00 -0.00000000000E+00 -0.54328922727E+03  0.54328922727E+03  0.00000000000E+00 0. -1.
         25    1    1    2    0    0  0.48244363873E+02 -0.12924866751E+03 -0.82453555979E+02  0.20360826504E+03  0.12500000000E+03 0.  0.
         25    1    1    2    0    0 -0.11167246603E+03  0.24134978872E+03 -0.17908136379E+03  0.34411567102E+03  0.12500000000E+03 0.  0.
         25    1    1    2    0    0  0.63428102152E+02 -0.11210112121E+03 -0.80577381682E+02  0.19674221702E+03  0.12500000000E+03 0.  0.
</event>
<event>
 5    0  0.5778896E-005  0.3323647E+03  0.7546771E-02  0.1070095E+00
         21   -1    0    0  502  501  0.00000000000E+00  0.00000000000E+00  0.22947136525E+04  0.22947136525E+04  0.00000000000E+00 0. -1.
         21   -1    0    0  501  502 -0.00000000000E+00 -0.00000000000E+00 -0.48139457449E+02  0.48139457449E+02  0.00000000000E+00 0. -1.
         25    1    1    2    0    0 -0.78919386147E+02  0.30923047691E+02  0.11629164713E+04  0.11726824906E+04  0.12500000000E+03 0.  0.
         25    1    1    2    0    0  0.13249274458E+03  0.12809184527E+03  0.67956579187E+03  0.71511992957E+03  0.12500000000E+03 0.  0.
         25    1    1    2    0    0 -0.53573358429E+02 -0.15901489296E+03  0.40409193191E+03  0.45505068987E+03  0.12500000000E+03 0.  0.
</event>
<event>
 5    0  0.5778896E-005  0.2777109E+03  0.7546771E-02  0.1096946E+00
         21   -1    0    0  502  501  0.00000000000E+00  0.00000000000E+00  0.36036593329E+03  0.36036593329E+03  0.00000000000E+00 0.  1.
         21   -1    0    0  501  502 -0.00000000000E+00 -0.00000000000E+00 -0.21401398753E+03  0.21401398753E+03  0.00000000000E+00 0.  1.
         25    1    1    2    0    0  0.84207735649E+02 -0.17520798691E+01  0.21102622624E+02  0.15219833510E+03  0.12500000000E+03 0.  0.
         25    1    1    2    0    0 -0.16765719789E+03 -0.82029451495E+02  0.10798960362E+03  0.24924791154E+03  0.12500000000E+03 0.  0.
         25    1    1    2    0    0  0.83449462241E+02  0.83781531364E+02  0.17259719516E+02  0.17293367418E+03  0.12500000000E+03 0.  0.
</event>
<event>
 5    0  0.6051775E-005  0.4867816E+03  0.7546771E-02  0.1017288E+00
         21   -1    0    0  502  501  0.00000000000E+00  0.00000000000E+00  0.10796602719E+04  0.10796602719E+04  0.00000000000E+00 0. -1.
         21   -1    0    0  501  502 -0.00000000000E+00 -0.00000000000E+00 -0.21947300285E+03  0.21947300285E+03  0.00000000000E+00 0. -1.
         25    1    1    2    0    0  0.18502691558E+03  0.10497626102E+03  0.45750971680E+03  0.51980295866E+03  0.12500000000E+03 0.  0.
         25    1    1    2    0    0 -0.14237625584E+03 -0.18487924578E+03  0.52129277773E+03  0.58465587644E+03  0.12500000000E+03 0.  0.
         25    1    1    2    0    0 -0.42650659742E+02  0.79902984757E+02 -0.11861522546E+03  0.19467443967E+03  0.12500000000E+03 0.  0.
</event>
<event>
 5    0  0.5778896E-005  0.3434944E+03  0.7546771E-02  0.1065317E+00
         21   -1    0    0  502  501  0.00000000000E+00  0.00000000000E+00  0.15490330817E+03  0.15490330817E+03  0.00000000000E+00 0. -1.
         21   -1    0    0  501  502 -0.00000000000E+00 -0.00000000000E+00 -0.76169080025E+03  0.76169080025E+03  0.00000000000E+00 0. -1.
         25    1    1    2    0    0  0.72819949942E+02 -0.17713047104E+02 -0.15481552718E+03  0.21262489178E+03  0.12500000000E+03 0.  0.
         25    1    1    2    0    0 -0.21985435265E+03 -0.62984495807E+02 -0.41720069798E+03  0.49191910461E+03  0.12500000000E+03 0.  0.
         25    1    1    2    0    0  0.14703440270E+03  0.80697542910E+02 -0.34771266919E+02  0.21205011203E+03  0.12500000000E+03 0.  0.
</event>
<event>
 5    0  0.5778896E-005  0.4872159E+03  0.7546771E-02  0.1017171E+00
         21   -1    0    0  502  501  0.00000000000E+00  0.00000000000E+00  0.28702551569E+03  0.28702551569E+03  0.00000000000E+00 0. -1.
         21   -1    0    0  501  502 -0.00000000000E+00 -0.00000000000E+00 -0.82703202972E+03  0.82703202972E+03  0.00000000000E+00 0. -1.
         25    1    1    2    0    0  0.10433929520E+03  0.80783976165E+02 -0.61379004632E+00  0.18176390199E+03  0.12500000000E+03 0.  0.
         25    1    1    2    0    0 -0.34459481637E+02 -0.15805118189E+02  0.16506508372E+03  0.21049641208E+03  0.12500000000E+03 0.  0.
         25    1    1    2    0    0 -0.69879813562E+02 -0.64978857976E+02 -0.70445780771E+03  0.72179723134E+03  0.12500000000E+03 0.  0.
</event>
<event>
 5    0  0.5778896E-005  0.2328714E+03  0.7546771E-02  0.1124635E+00
         21   -1    0    0  502  501  0.00000000000E+00  0.00000000000E+00  0.24807754452E+03  0.24807754452E+03  0.00000000000E+00 0. -1.
         21   -1    0    0  501  502 -0.00000000000E+00 -0.00000000000E+00 -0.21859735638E+03  0.21859735638E+03  0.00000000000E+00 0. -1.
         25    1    1    2    0    0  0.46582647232E+02  0.60437318634E+02  0.67547271752E+02  0.16127692466E+03  0.12500000000E+03 0.  0.
         25    1    1    2    0    0 -0.84517324463E+01  0.17550953444E+02  0.42172467015E+02  0.13335285795E+03  0.12500000000E+03 0.  0.
         25    1    1    2    0    0 -0.38130914785E+02 -0.77988272078E+02 -0.80239550624E+02  0.17204511829E+03  0.12500000000E+03 0.  0.
</event>
<event>
 5    0  0.5778896E-005  0.3067043E+03  0.7546771E-02  0.1081936E+00
         21   -1    0    0  502  501  0.00000000000E+00  0.00000000000E+00  0.94294901417E+02  0.94294901417E+02  0.00000000000E+00 0. -1.
         21   -1    0    0  501  502 -0.00000000000E+00 -0.00000000000E+00 -0.99758879753E+03  0.99758879753E+03  0.00000000000E+00 0. -1.
         25    1    1    2    0    0  0.49996222923E+02 -0.16725520507E+03 -0.30813181099E+03  0.37555843603E+03  0.12500000000E+03 0.  0.
         25    1    1    2    0    0 -0.13696383370E+02 -0.19008391927E+02 -0.72472457543E+02  0.14637679797E+03  0.12500000000E+03 0.  0.
         25    1    1    2    0    0 -0.36299839552E+02  0.18626359700E+03 -0.52268962758E+03  0.56994846495E+03  0.12500000000E+03 0.  0.
</event>
<event>
 5    0  0.5778896E-005  0.4311310E+03  0.7546771E-02  0.1033503E+00
         21   -1    0    0  502  501  0.00000000000E+00  0.00000000000E+00  0.11690061212E+04  0.11690061212E+04  0.00000000000E+00 0. -1.
         21   -1    0    0  501  502 -0.00000000000E+00 -0.00000000000E+00 -0.15900168394E+03  0.15900168394E+03  0.00000000000E+00 0. -1.
         25    1    1    2    0    0 -0.25585953288E+02  0.23524037340E+03  0.51291710700E+02  0.27248580490E+03  0.12500000000E+03 0.  0.
         25    1    1    2    0    0  0.13221893062E+03 -0.20488214543E+03  0.61932131126E+03  0.67723144176E+03  0.12500000000E+03 0.  0.
         25    1    1    2    0    0 -0.10663297733E+03 -0.30358227975E+02  0.33939141526E+03  0.37829055845E+03  0.12500000000E+03 0.  0.
</event>
<event>
 5    0  0.5778896E-005  0.2413730E+03  0.7546771E-02  0.1118882E+00
         21   -1    0    0  502  501  0.00000000000E+00  0.00000000000E+00  0.17209991655E+03  0.17209991655E+03  0.00000000000E+00 0. -1.
         21   -1    0    0  501  502 -0.00000000000E+00 -0.00000000000E+00 -0.33852963740E+03  0.33852963740E+03  0.00000000000E+00 0. -1.
         25    1    1    2    0    0 -0.19573972862E+02 -0.40980736426E+02 -0.53988123543E+02  0.14353493880E+03  0.12500000000E+03 0.  0.
         25    1    1    2    0    0 -0.57931025493E+02 -0.40193360911E+02  0.30264976447E+02  0.14667132908E+03  0.12500000000E+03 0.  0.
         25    1    1    2    0    0  0.77504998355E+02  0.81174097338E+02 -0.14270657376E+03  0.22042328607E+03  0.12500000000E+03 0.  0.
</event>
<event>
 5    0  0.5778896E-005  0.4571012E+03  0.7546771E-02  0.1025625E+00
         21   -1    0    0  502  501  0.00000000000E+00  0.00000000000E+00  0.23707389512E+03  0.23707389512E+03  0.00000000000E+00 0. -1.
         21   -1    0    0  501  502 -0.00000000000E+00 -0.00000000000E+00 -0.88133475949E+03  0.88133475949E+03  0.00000000000E+00 0. -1.
         25    1    1    2    0    0  0.31453214107E+03 -0.13301977262E+03 -0.33339888259E+02  0.36518663149E+03  0.12500000000E+03 0.  0.
         25    1    1    2    0    0 -0.12050527697E+03  0.32050083543E+02 -0.16827003494E+03  0.24390271481E+03  0.12500000000E+03 0.  0.
         25    1    1    2    0    0 -0.19402686410E+03  0.10096968908E+03 -0.44265094116E+03  0.50931930831E+03  0.12500000000E+03 0.  0.
</event>
<event>
 5    0  0.5778896E-005  0.7001227E+03  0.7546771E-02  0.9717022E-01
         21   -1    0    0  502  501  0.00000000000E+00  0.00000000000E+00  0.51157261887E+03  0.51157261887E+03  0.00000000000E+00 0. -1.
         21   -1    0    0  501  502 -0.00000000000E+00 -0.00000000000E+00 -0.95816652328E+03  0.95816652328E+03  0.00000000000E+00 0. -1.
         25    1    1    2    0    0  0.40024075682E+01  0.14564909784E+03 -0.21812925770E+03  0.29057710170E+03  0.12500000000E+03 0.  0.
         25    1    1    2    0    0 -0.27975415686E+03  0.34797547202E+03 -0.35799338099E+03  0.58577604785E+03  0.12500000000E+03 0.  0.
         25    1    1    2    0    0  0.27575174929E+03 -0.49362456985E+03  0.12952873429E+03  0.59338599259E+03  0.12500000000E+03 0.  0.
</event>
<event>
 5    0  0.5778896E-005  0.2086998E+03  0.7546771E-02  0.1142600E+00
         21   -1    0    0  502  501  0.00000000000E+00  0.00000000000E+00  0.25854807073E+03  0.25854807073E+03  0.00000000000E+00 0. -1.
         21   -1    0    0  501  502 -0.00000000000E+00 -0.00000000000E+00 -0.16846223691E+03  0.16846223691E+03  0.00000000000E+00 0. -1.
         25    1    1    2    0    0 -0.25772403850E+02 -0.38265846700E+02  0.84980884913E+02  0.15803557392E+03  0.12500000000E+03 0.  0.
         25    1    1    2    0    0  0.60122617678E+01  0.59137351043E+02 -0.14702861134E+02  0.13919248437E+03  0.12500000000E+03 0.  0.
         25    1    1    2    0    0  0.19760142083E+02 -0.20871504342E+02  0.19807810045E+02  0.12978224935E+03  0.12500000000E+03 0.  0.
</event>
<event>
 5    0  0.5778896E-005  0.4522878E+03  0.7546771E-02  0.1027042E+00
         21   -1    0    0  502  501  0.00000000000E+00  0.00000000000E+00  0.58092173358E+03  0.58092173358E+03  0.00000000000E+00 0.  1.
         21   -1    0    0  501  502 -0.00000000000E+00 -0.00000000000E+00 -0.35213731457E+03  0.35213731457E+03  0.00000000000E+00 0.  1.
         25    1    1    2    0    0 -0.20558041911E+03  0.47577403958E+02 -0.15543926120E+03  0.29036749476E+03  0.12500000000E+03 0.  0.
         25    1    1    2    0    0  0.31180419285E+03 -0.82700218220E+02  0.23552709382E+03  0.41852024168E+03  0.12500000000E+03 0.  0.
         25    1    1    2    0    0 -0.10622377374E+03  0.35122814262E+02  0.14869658640E+03  0.22417131171E+03  0.12500000000E+03 0.  0.
</event>
<event>
 5    0  0.5778896E-005  0.2349692E+03  0.7546771E-02  0.1123190E+00
         21   -1    0    0  502  501  0.00000000000E+00  0.00000000000E+00  0.28819493200E+03  0.28819493200E+03  0.00000000000E+00 0. -1.
         21   -1    0    0  501  502 -0.00000000000E+00 -0.00000000000E+00 -0.19157348737E+03  0.19157348737E+03  0.00000000000E+00 0. -1.
         25    1    1    2    0    0  0.99502747259E+02  0.28586741378E+02  0.33315250321E+02  0.16568918009E+03  0.12500000000E+03 0.  0.
         25    1    1    2    0    0 -0.65635270750E+02 -0.74645923718E+02 -0.66633138003E+01  0.15984180443E+03  0.12500000000E+03 0.  0.
         25    1    1    2    0    0 -0.33867476509E+02  0.46059182340E+02  0.69969508104E+02  0.15423743484E+03  0.12500000000E+03 0.  0.
</event>
<event>
 5    0  0.5778896E-005  0.3319412E+03  0.7546771E-02  0.1070281E+00
         21   -1    0    0  502  501  0.00000000000E+00  0.00000000000E+00  0.34771590100E+03  0.34771590100E+03  0.00000000000E+00 0.  1.
         21   -1    0    0  501  502 -0.00000000000E+00 -0.00000000000E+00 -0.31688217837E+03  0.31688217837E+03  0.00000000000E+00 0.  1.
         25    1    1    2    0    0  0.11721901690E+03  0.94056845978E+02 -0.49101805265E+02  0.20155142142E+03  0.12500000000E+03 0.  0.
         25    1    1    2    0    0 -0.20249208315E+03 -0.14347662184E+03 -0.13980930895E+02  0.27822482129E+03  0.12500000000E+03 0.  0.
         25    1    1    2    0    0  0.85273066254E+02  0.49419775866E+02  0.93916458786E+02  0.18482183666E+03  0.12500000000E+03 0.  0.
</event>
<event>
 5    0  0.5778896E-005  0.4091950E+03  0.7546771E-02  0.1040641E+00
         21   -1    0    0  502  501  0.00000000000E+00  0.00000000000E+00  0.40545849045E+03  0.40545849045E+03  0.00000000000E+00 0. -1.
         21   -1    0    0  501  502 -0.00000000000E+00 -0.00000000000E+00 -0.41296600065E+03  0.41296600065E+03  0.00000000000E+00 0. -1.
         25    1    1    2    0    0  0.91365266209E+02 -0.28397513530E+03  0.68710949317E+02  0.33065946818E+03  0.12500000000E+03 0.  0.
         25    1    1    2    0    0 -0.16361831241E+03  0.21651897554E+03  0.23602415077E+02  0.29972235973E+03  0.12500000000E+03 0.  0.
         25    1    1    2    0    0  0.72253046199E+02  0.67456159760E+02 -0.99820874594E+02  0.18804266319E+03  0.12500000000E+03 0.  0.
</event>
<event>
 5    0  0.5778896E-005  0.2246305E+03  0.7546771E-02  0.1130477E+00
         21   -1    0    0  502  501  0.00000000000E+00  0.00000000000E+00  0.19113571248E+04  0.19113571248E+04  0.00000000000E+00 0. -1.
         21   -1    0    0  501  502 -0.00000000000E+00 -0.00000000000E+00 -0.26399486767E+02  0.26399486767E+02  0.00000000000E+00 0. -1.
         25    1    1    2    0    0 -0.21147605672E+02 -0.66594964260E+02  0.40031297908E+03  0.42515596163E+03  0.12500000000E+03 0.  0.
         25    1    1    2    0    0 -0.19864087649E+02 -0.21723907320E+02  0.76649026096E+03  0.77717361655E+03  0.12500000000E+03 0.  0.
         25    1    1    2    0    0  0.41011693320E+02  0.88318871580E+02  0.71815439802E+03  0.73542703340E+03  0.12500000000E+03 0.  0.
</event>
<event>
 5    0  0.5778896E-005  0.4567899E+03  0.7546771E-02  0.1025716E+00
         21   -1    0    0  502  501  0.00000000000E+00  0.00000000000E+00  0.94453473604E+03  0.94453473604E+03  0.00000000000E+00 0.  1.
         21   -1    0    0  501  502 -0.00000000000E+00 -0.00000000000E+00 -0.22090981730E+03  0.22090981730E+03  0.00000000000E+00 0.  1.
         25    1    1    2    0    0  0.66047637532E+02 -0.10017519726E+02  0.18322608328E+03  0.23164507057E+03  0.12500000000E+03 0.  0.
         25    1    1    2    0    0  0.67719895858E+02 -0.14382488441E+03  0.64265138399E+03  0.67371906832E+03  0.12500000000E+03 0.  0.
         25    1    1    2    0    0 -0.13376753339E+03  0.15384240414E+03 -0.10225254853E+03  0.26008041445E+03  0.12500000000E+03 0.  0.
</event>
<event>
 5    0  0.5778896E-005  0.6378479E+03  0.7546771E-02  0.9829853E-01
         21   -1    0    0  502  501  0.00000000000E+00  0.00000000000E+00  0.39102697661E+04  0.39102697661E+04  0.00000000000E+00 0.  1.
         21   -1    0    0  501  502 -0.00000000000E+00 -0.00000000000E+00 -0.10404650246E+03  0.10404650246E+03  0.00000000000E+00 0.  1.
         25    1    1    2    0    0 -0.89160067736E+02 -0.17614252875E+02  0.98860762355E+03  0.10006147175E+04  0.12500000000E+03 0.  0.
         25    1    1    2    0    0 -0.57228439759E+02 -0.46774544949E+03  0.86977962709E+03  0.99709703617E+03  0.12500000000E+03 0.  0.
         25    1    1    2    0    0  0.14638850749E+03  0.48535970237E+03  0.19478360130E+04  0.20166045148E+04  0.12500000000E+03 0.  0.
</event>
<event>
 5    0  0.5778896E-005  0.3022870E+03  0.7546771E-02  0.1084103E+00
         21   -1    0    0  502  501  0.00000000000E+00  0.00000000000E+00  0.15004700413E+03  0.15004700413E+03  0.00000000000E+00 0.  1.
         21   -1    0    0  501  502 -0.00000000000E+00 -0.00000000000E+00 -0.60899215035E+03  0.60899215035E+03  0.00000000000E+00 0.  1.
         25    1    1    2    0    0 -0.23698924208E+02 -0.28534935526E+02  0.61071392483E+02  0.14398123674E+03  0.12500000000E+03 0.  0.
         25    1    1    2    0    0 -0.58935815227E+02  0.88254365751E+02 -0.21948227663E+03  0.27397031435E+03  0.12500000000E+03 0.  0.
         25    1    1    2    0    0  0.82634739435E+02 -0.59719430224E+02 -0.30053426207E+03  0.34108760339E+03  0.12500000000E+03 0.  0.
</event>
<event>
 5    0  0.5778896E-005  0.3204047E+03  0.7546771E-02  0.1075463E+00
         21   -1    0    0  502  501  0.00000000000E+00  0.00000000000E+00  0.15384013417E+03  0.15384013417E+03  0.00000000000E+00 0. -1.
         21   -1    0    0  501  502 -0.00000000000E+00 -0.00000000000E+00 -0.66731074414E+03  0.66731074414E+03  0.00000000000E+00 0. -1.
         25    1    1    2    0    0 -0.20430748194E+02  0.57676434300E+02 -0.29850570984E+03  0.32935489271E+03  0.12500000000E+03 0.  0.
         25    1    1    2    0    0 -0.10779540341E+03 -0.13436788568E+03 -0.20689504787E+03  0.29682509755E+03  0.12500000000E+03 0.  0.
         25    1    1    2    0    0  0.12822615161E+03  0.76691451380E+02 -0.80698522559E+01  0.19497088805E+03  0.12500000000E+03 0.  0.
</event>
<event>
 5    0  0.5778896E-005  0.2814019E+03  0.7546771E-02  0.1094926E+00
         21   -1    0    0  502  501  0.00000000000E+00  0.00000000000E+00  0.27511126586E+03  0.27511126586E+03  0.00000000000E+00 0.  1.
         21   -1    0    0  501  502 -0.00000000000E+00 -0.00000000000E+00 -0.28783641861E+03  0.28783641861E+03  0.00000000000E+00 0.  1.
         25    1    1    2    0    0  0.11803318058E+03  0.31699150396E+02 -0.15902856033E+02  0.17554078923E+03  0.12500000000E+03 0.  0.
         25    1    1    2    0    0 -0.12554561348E+03 -0.11090225835E+03 -0.72243780264E+02  0.22114514636E+03  0.12500000000E+03 0.  0.
         25    1    1    2    0    0  0.75124328932E+01  0.79203107959E+02  0.75421483544E+02  0.16626174887E+03  0.12500000000E+03 0.  0.
</event>
<event>
 5    0  0.5778896E-005  0.4271486E+03  0.7546771E-02  0.1034765E+00
         21   -1    0    0  502  501  0.00000000000E+00  0.00000000000E+00  0.37638879599E+03  0.37638879599E+03  0.00000000000E+00 0. -1.
         21   -1    0    0  501  502 -0.00000000000E+00 -0.00000000000E+00 -0.48475379286E+03  0.48475379286E+03  0.00000000000E+00 0. -1.
         25    1    1    2    0    0  0.58579366627E+02 -0.13228776632E+03  0.95116908733E+02  0.21355051309E+03  0.12500000000E+03 0.  0.
         25    1    1    2    0    0  0.11534028140E+03  0.13197462623E+03 -0.33356527658E+03  0.39700311865E+03  0.12500000000E+03 0.  0.
         25    1    1    2    0    0 -0.17391964803E+03  0.31314008642E+00  0.13008337097E+03  0.25058895712E+03  0.12500000000E+03 0.  0.
</event>
<event>
 5    0  0.5778896E-005  0.4940296E+03  0.7546771E-02  0.1015349E+00
         21   -1    0    0  502  501  0.00000000000E+00  0.00000000000E+00  0.99407466134E+02  0.99407466134E+02  0.00000000000E+00 0.  1.
         21   -1    0    0  501  502 -0.00000000000E+00 -0.00000000000E+00 -0.24552001585E+04  0.24552001585E+04  0.00000000000E+00 0.  1.
         25    1    1    2    0    0 -0.27868845796E+02 -0.72546314564E+02 -0.54399216599E+03  0.56355311816E+03  0.12500000000E+03 0.  0.
         25    1    1    2    0    0 -0.74614981278E+02 -0.31945687855E+03 -0.11724083378E+04  0.12238408407E+04  0.12500000000E+03 0.  0.
         25    1    1    2    0    0  0.10248382707E+03  0.39200319311E+03 -0.63939218851E+03  0.76721366577E+03  0.12500000000E+03 0.  0.
</event>
<event>
 5    0  0.6136823E-005  0.3179692E+03  0.7546771E-02  0.1076588E+00
         21   -1    0    0  502  501  0.00000000000E+00  0.00000000000E+00  0.51184714807E+03  0.51184714807E+03  0.00000000000E+00 0.  1.
         21   -1    0    0  501  502 -0.00000000000E+00 -0.00000000000E+00 -0.19752854029E+03  0.19752854029E+03  0.00000000000E+00 0.  1.
         25    1    1    2    0    0  0.23187140228E+01  0.17190789928E+03  0.59444901584E+02  0.22071791634E+03  0.12500000000E+03 0.  0.
         25    1    1    2    0    0 -0.11175458428E+03 -0.16103726604E+03  0.76707683096E+02  0.24480840836E+03  0.12500000000E+03 0.  0.
         25    1    1    2    0    0  0.10943587025E+03 -0.10870633241E+02  0.17816602310E+03  0.24384936365E+03  0.12500000000E+03 0.  0.
</event>
<event>
 5    0  0.5778896E-005  0.2272572E+03  0.7546771E-02  0.1128585E+00
         21   -1    0    0  502  501  0.00000000000E+00  0.00000000000E+00  0.94352805219E+02  0.94352805219E+02  0.00000000000E+00 0.  1.
         21   -1    0    0  501  502 -0.00000000000E+00 -0.00000000000E+00 -0.54736960162E+03  0.54736960162E+03  0.00000000000E+00 0.  1.
         25    1    1    2    0    0  0.37254517969E+02 -0.77743347596E+02 -0.14829115709E+03  0.21224324365E+03  0.12500000000E+03 0.  0.
         25    1    1    2    0    0 -0.95162826588E+01 -0.35477013280E+02 -0.11125441221E+03  0.17132344365E+03  0.12500000000E+03 0.  0.
         25    1    1    2    0    0 -0.27738235310E+02  0.11322036088E+03 -0.19347122710E+03  0.25815571954E+03  0.12500000000E+03 0.  0.
</event>
<event>
 5    0  0.5778896E-005  0.2347180E+03  0.7546771E-02  0.1123362E+00
         21   -1    0    0  502  501  0.00000000000E+00  0.00000000000E+00  0.16463014891E+03  0.16463014891E+03  0.00000000000E+00 0. -1.
         21   -1    0    0  501  502 -0.00000000000E+00 -0.00000000000E+00 -0.33464430798E+03  0.33464430798E+03  0.00000000000E+00 0. -1.
         25    1    1    2    0    0  0.47700434243E+02 -0.29670093895E+02 -0.17387849873E+02  0.13814117135E+03  0.12500000000E+03 0.  0.
         25    1    1    2    0    0 -0.62100800366E+02 -0.22020919504E+02 -0.17323013143E+03  0.22355113226E+03  0.12500000000E+03 0.  0.
         25    1    1    2    0    0  0.14400366123E+02  0.51691013399E+02  0.20603822229E+02  0.13758215328E+03  0.12500000000E+03 0.  0.
</event>
<event>
 5    0  0.5778896E-005  0.4759046E+03  0.7546771E-02  0.1020267E+00
         21   -1    0    0  502  501  0.00000000000E+00  0.00000000000E+00  0.20980817162E+03  0.20980817162E+03  0.00000000000E+00 0.  1.
         21   -1    0    0  501  502 -0.00000000000E+00 -0.00000000000E+00 -0.10794869264E+04  0.10794869264E+04  0.00000000000E+00 0.  1.
         25    1    1    2    0    0  0.11512512024E+03 -0.23415312179E+03 -0.13181362471E+03  0.31793286935E+03  0.12500000000E+03 0.  0.
         25    1    1    2    0    0 -0.26028959201E+03  0.12777867859E+03 -0.16131596665E+03  0.35457848709E+03  0.12500000000E+03 0.  0.
         25    1    1    2    0    0  0.14516447177E+03  0.10637444321E+03 -0.57654916346E+03  0.61678374161E+03  0.12500000000E+03 0.  0.
</event>
<event>
 5    0  0.5778896E-005  0.2399618E+03  0.7546771E-02  0.1119818E+00
         21   -1    0    0  502  501  0.00000000000E+00  0.00000000000E+00  0.32805724059E+03  0.32805724059E+03  0.00000000000E+00 0. -1.
         21   -1    0    0  501  502 -0.00000000000E+00 -0.00000000000E+00 -0.17552328477E+03  0.17552328477E+03  0.00000000000E+00 0. -1.
         25    1    1    2    0    0 -0.54454337222E+02  0.47540159628E+02  0.79061223556E+01  0.14461275321E+03  0.12500000000E+03 0.  0.
         25    1    1    2    0    0  0.88363731601E+02 -0.10354665028E+03  0.59418490938E+02  0.19412783137E+03  0.12500000000E+03 0.  0.
         25    1    1    2    0    0 -0.33909394379E+02  0.56006490649E+02  0.85209342530E+02  0.16483994078E+03  0.12500000000E+03 0.  0.
</event>
<event>
 5    0  0.5778896E-005  0.4374915E+03  0.7546771E-02  0.1031519E+00
         21   -1    0    0  502  501  0.00000000000E+00  0.00000000000E+00  0.82217533751E+03  0.82217533751E+03  0.00000000000E+00 0. -1.
         21   -1    0    0  501  502 -0.00000000000E+00 -0.00000000000E+00 -0.23279558038E+03  0.23279558038E+03  0.00000000000E+00 0. -1.
         25    1    1    2    0    0  0.12865750730E+03  0.13185359175E+03  0.34748329695E+02  0.22532325725E+03  0.12500000000E+03 0.  0.
         25    1    1    2    0    0  0.38441066499E+02 -0.26916635498E+03  0.48573271349E+03  0.57051688073E+03  0.12500000000E+03 0.  0.
         25    1    1    2    0    0 -0.16709857380E+03  0.13731276323E+03  0.68898713938E+02  0.25913077990E+03  0.12500000000E+03 0.  0.
</event>
<event>
 5    0  0.5778896E-005  0.3071679E+03  0.7546771E-02  0.1081711E+00
         21   -1    0    0  502  501  0.00000000000E+00  0.00000000000E+00  0.10503201174E+04  0.10503201174E+04  0.00000000000E+00 0.  1.
         21   -1    0    0  501  502 -0.00000000000E+00 -0.00000000000E+00 -0.89831758306E+02  0.89831758306E+02  0.00000000000E+00 0.  1.
         25    1    1    2    0    0  0.10765177208E+03  0.13570986768E+03  0.51138906925E+03  0.55421101790E+03  0.12500000000E+03 0.  0.
         25    1    1    2    0    0 -0.10291802664E+03  0.33600579631E+02  0.18308606258E+03  0.24671162411E+03  0.12500000000E+03 0.  0.
         25    1    1    2    0    0 -0.47337454400E+01 -0.16931044731E+03  0.26601322727E+03  0.33922923370E+03  0.12500000000E+03 0.  0.
</event>
<event>
 5    0  0.5852213E-005  0.2849705E+03  0.7546771E-02  0.1093005E+00
         21   -1    0    0  502  501  0.00000000000E+00  0.00000000000E+00  0.50573420446E+03  0.50573420446E+03  0.00000000000E+00 0.  1.
         21   -1    0    0  501  502 -0.00000000000E+00 -0.00000000000E+00 -0.16057480337E+03  0.16057480337E+03  0.00000000000E+00 0.  1.
         25    1    1    2    0    0  0.10110105295E+03 -0.98094463164E+01  0.67019041814E+02  0.17445400572E+03  0.12500000000E+03 0.  0.
         25    1    1    2    0    0 -0.53749390555E+02  0.33117164547E+02  0.32046132784E+03  0.34972304216E+03  0.12500000000E+03 0.  0.
         25    1    1    2    0    0 -0.47351662397E+02 -0.23307718230E+02 -0.42320968563E+02  0.14213195996E+03  0.12500000000E+03 0.  0.
</event>
<event>
 5    0  0.5778896E-005  0.4692687E+03  0.7546771E-02  0.1022127E+00
         21   -1    0    0  502  501  0.00000000000E+00  0.00000000000E+00  0.48934147482E+03  0.48934147482E+03  0.00000000000E+00 0.  1.
         21   -1    0    0  501  502 -0.00000000000E+00 -0.00000000000E+00 -0.45001922349E+03  0.45001922349E+03  0.00000000000E+00 0.  1.
         25    1    1    2    0    0 -0.13389205843E+02 -0.24045167876E+02 -0.33414837193E+01  0.12803751968E+03  0.12500000000E+03 0.  0.
         25    1    1    2    0    0 -0.59939699549E+02 -0.34443132416E+03 -0.10957425072E+03  0.38711396392E+03  0.12500000000E+03 0.  0.
         25    1    1    2    0    0  0.73328905392E+02  0.36847649203E+03  0.15223798577E+03  0.42420921472E+03  0.12500000000E+03 0.  0.
</event>
<event>
 5    0  0.5778896E-005  0.5666725E+03  0.7546771E-02  0.9977069E-01
         21   -1    0    0  502  501  0.00000000000E+00  0.00000000000E+00  0.18135349457E+04  0.18135349457E+04  0.00000000000E+00 0. -1.
         21   -1    0    0  501  502 -0.00000000000E+00 -0.00000000000E+00 -0.17706730394E+03  0.17706730394E+03  0.00000000000E+00 0. -1.
         25    1    1    2    0    0  0.87582089482E+02 -0.33567301271E+03  0.67334604734E+03  0.76770234683E+03  0.12500000000E+03 0.  0.
         25    1    1    2    0    0  0.22973467258E+03  0.20411934204E+03  0.22997744795E+03  0.40367976436E+03  0.12500000000E+03 0.  0.
         25    1    1    2    0    0 -0.31731676206E+03  0.13155367066E+03  0.73314414643E+03  0.81922013842E+03  0.12500000000E+03 0.  0.
</event>
<event>
 5    0  0.5778896E-005  0.2420530E+03  0.7546771E-02  0.1118433E+00
         21   -1    0    0  502  501  0.00000000000E+00  0.00000000000E+00  0.63088587945E+02  0.63088587945E+02  0.00000000000E+00 0. -1.
         21   -1    0    0  501  502 -0.00000000000E+00 -0.00000000000E+00 -0.92868848823E+03  0.92868848823E+03  0.00000000000E+00 0. -1.
         25    1    1    2    0    0 -0.93367871044E+01 -0.46672412008E+02 -0.23795598124E+03  0.27297168103E+03  0.12500000000E+03 0.  0.
         25    1    1    2    0    0  0.84049527476E+02 -0.15664922527E+02 -0.14059537427E+03  0.20664407113E+03  0.12500000000E+03 0.  0.
         25    1    1    2    0    0 -0.74712740372E+02  0.62337334535E+02 -0.48704854478E+03  0.51216132402E+03  0.12500000000E+03 0.  0.
</event>
<event>
 5    0  0.5778896E-005  0.3564161E+03  0.7546771E-02  0.1060012E+00
         21   -1    0    0  502  501  0.00000000000E+00  0.00000000000E+00  0.52405941601E+03  0.52405941601E+03  0.00000000000E+00 0. -1.
         21   -1    0    0  501  502 -0.00000000000E+00 -0.00000000000E+00 -0.24240078130E+03  0.24240078130E+03  0.00000000000E+00 0. -1.
         25    1    1    2    0    0  0.19522106055E+03  0.45328335320E+02 -0.72183073707E+02  0.24698444606E+03  0.12500000000E+03 0.  0.
         25    1    1    2    0    0 -0.14137293576E+03  0.45257314893E+02  0.27853395631E+03  0.33947120104E+03  0.12500000000E+03 0.  0.
         25    1    1    2    0    0 -0.53848124783E+02 -0.90585650214E+02  0.75307752111E+02  0.18000455021E+03  0.12500000000E+03 0.  0.
</event>
<event>
 5    0  0.5778896E-005  0.3352079E+03  0.7546771E-02  0.1068856E+00
         21   -1    0    0  502  501  0.00000000000E+00  0.00000000000E+00  0.24250211697E+03  0.24250211697E+03  0.00000000000E+00 0.  1.
         21   -1    0    0  501  502 -0.00000000000E+00 -0.00000000000E+00 -0.46335398546E+03  0.46335398546E+03  0.00000000000E+00 0.  1.
         25    1    1    2    0    0  0.91095160242E+02 -0.10519585081E+03  0.54549192190E+02  0.19484637440E+03  0.12500000000E+03 0.  0.
         25    1    1    2    0    0 -0.92058361913E+02  0.20255660700E+03 -0.23631843350E+03  0.34781507018E+03  0.12500000000E+03 0.  0.
         25    1    1    2    0    0  0.96320167173E+00 -0.97360756183E+02 -0.39082627182E+02  0.16319465785E+03  0.12500000000E+03 0.  0.
</event>
<event>
 5    0  0.5778896E-005  0.2924374E+03  0.7546771E-02  0.1089083E+00
         21   -1    0    0  502  501  0.00000000000E+00  0.00000000000E+00  0.61727543245E+02  0.61727543245E+02  0.00000000000E+00 0.  1.
         21   -1    0    0  501  502 -0.00000000000E+00 -0.00000000000E+00 -0.13854368557E+04  0.13854368557E+04  0.00000000000E+00 0.  1.
         25    1    1    2    0    0  0.69974546248E+02  0.14114413705E+03 -0.57387544985E+03  0.60809221051E+03  0.12500000000E+03 0.  0.
         25    1    1    2    0    0 -0.71618086945E+02  0.26607279553E+02 -0.45166069545E+03  0.47482573806E+03  0.12500000000E+03 0.  0.
         25    1    1    2    0    0  0.16435406970E+01 -0.16775141660E+03 -0.29817316712E+03  0.36424645034E+03  0.12500000000E+03 0.  0.
</event>
<event>
 5    0  0.5778896E-005  0.2835717E+03  0.7546771E-02  0.1093754E+00
         21   -1    0    0  502  501  0.00000000000E+00  0.00000000000E+00  0.46536132411E+02  0.46536132411E+02  0.00000000000E+00 0.  1.
         21   -1    0    0  501  502 -0.00000000000E+00 -0.00000000000E+00 -0.17279676824E+04  0.17279676824E+04  0.00000000000E+00 0.  1.
         25    1    1    2    0    0 -0.12806198732E+03 -0.34229549265E+02 -0.80194389109E+03  0.82238101820E+03  0.12500000000E+03 0.  0.
         25    1    1    2    0    0  0.72224192114E+02 -0.96679847200E+01 -0.14926583765E+03  0.20788240460E+03  0.12500000000E+03 0.  0.
         25    1    1    2    0    0  0.55837795208E+02  0.43897533985E+02 -0.73022182122E+03  0.74424039198E+03  0.12500000000E+03 0.  0.
</event>
<event>
 5    0  0.5908904E-005  0.2803465E+03  0.7546771E-02  0.1095500E+00
         21   -1    0    0  502  501  0.00000000000E+00  0.00000000000E+00  0.89956521849E+03  0.89956521849E+03  0.00000000000E+00 0. -1.
         21   -1    0    0  501  502 -0.00000000000E+00 -0.00000000000E+00 -0.87369078261E+02  0.87369078261E+02  0.00000000000E+00 0. -1.
         25    1    1    2    0    0  0.80905744705E+02 -0.12351772877E+03  0.23351910608E+03  0.30324666816E+03  0.12500000000E+03 0.  0.
         25    1    1    2    0    0 -0.76724276155E+02  0.43323714407E+02  0.10059408850E+03  0.18305116614E+03  0.12500000000E+03 0.  0.
         25    1    1    2    0    0 -0.41814685507E+01  0.80194014367E+02  0.47808294564E+03  0.50063646245E+03  0.12500000000E+03 0.  0.
</event>
<event>
 5    0  0.5778896E-005  0.2616394E+03  0.7546771E-02  0.1106162E+00
         21   -1    0    0  502  501  0.00000000000E+00  0.00000000000E+00  0.19423349365E+04  0.19423349365E+04  0.00000000000E+00 0. -1.
         21   -1    0    0  501  502 -0.00000000000E+00 -0.00000000000E+00 -0.35243747808E+02  0.35243747808E+02  0.00000000000E+00 0. -1.
         25    1    1    2    0    0 -0.48550394227E+02  0.55340687315E+02  0.72492836595E+03  0.73930093210E+03  0.12500000000E+03 0.  0.
         25    1    1    2    0    0 -0.39450544351E+02 -0.22679658431E+02  0.94445095099E+03  0.95377319693E+03  0.12500000000E+03 0.  0.
         25    1    1    2    0    0  0.88000938578E+02 -0.32661028884E+02  0.23771187174E+03  0.28450455526E+03  0.12500000000E+03 0.  0.
</event>
<event>
 5    0  0.5778896E-005  0.2331637E+03  0.7546771E-02  0.1124433E+00
         21   -1    0    0  502  501  0.00000000000E+00  0.00000000000E+00  0.44028179168E+02  0.44028179168E+02  0.00000000000E+00 0.  1.
         21   -1    0    0  501  502 -0.00000000000E+00 -0.00000000000E+00 -0.12347846772E+04  0.12347846772E+04  0.00000000000E+00 0.  1.
         25    1    1    2    0    0  0.70319093044E+02 -0.11591171566E+02 -0.23076390960E+03  0.27194873060E+03  0.12500000000E+03 0.  0.
         25    1    1    2    0    0 -0.20202177966E+01  0.20417325222E+02 -0.68941588752E+03  0.70095664232E+03  0.12500000000E+03 0.  0.
         25    1    1    2    0    0 -0.68298875247E+02 -0.88261536564E+01 -0.27057670093E+03  0.30590748345E+03  0.12500000000E+03 0.  0.
</event>
<event>
 5    0  0.5778896E-005  0.6219641E+03  0.7546771E-02  0.9860857E-01
         21   -1    0    0  502  501  0.00000000000E+00  0.00000000000E+00  0.66285418629E+03  0.66285418629E+03  0.00000000000E+00 0. -1.
         21   -1    0    0  501  502 -0.00000000000E+00 -0.00000000000E+00 -0.58359643329E+03  0.58359643329E+03  0.00000000000E+00 0. -1.
         25    1    1    2    0    0 -0.21444407545E+03  0.30224063134E+03 -0.40870072570E+03  0.56568272372E+03  0.12500000000E+03 0.  0.
         25    1    1    2    0    0  0.26966579725E+02 -0.17073085547E+03  0.20410708475E+03  0.29523028889E+03  0.12500000000E+03 0.  0.
         25    1    1    2    0    0  0.18747749573E+03 -0.13150977587E+03  0.28385139394E+03  0.38553760698E+03  0.12500000000E+03 0.  0.
</event>
<event>
 5    0  0.5778896E-005  0.2302610E+03  0.7546771E-02  0.1126456E+00
         21   -1    0    0  502  501  0.00000000000E+00  0.00000000000E+00  0.10683667229E+04  0.10683667229E+04  0.00000000000E+00 0. -1.
         21   -1    0    0  501  502 -0.00000000000E+00 -0.00000000000E+00 -0.49627271320E+02  0.49627271320E+02  0.00000000000E+00 0. -1.
         25    1    1    2    0    0  0.44808993318E+02 -0.53887276322E+02  0.22135784551E+03  0.26369675804E+03  0.12500000000E+03 0.  0.
         25    1    1    2    0    0 -0.69798494862E+02  0.48971688236E+02  0.24980708215E+03  0.29205929951E+03  0.12500000000E+03 0.  0.
         25    1    1    2    0    0  0.24989501544E+02  0.49155880861E+01  0.54757452391E+03  0.56223793667E+03  0.12500000000E+03 0.  0.
</event>
<event>
 5    0  0.5778896E-005  0.2459994E+03  0.7546771E-02  0.1115860E+00
         21   -1    0    0  502  501  0.00000000000E+00  0.00000000000E+00  0.20551161542E+03  0.20551161542E+03  0.00000000000E+00 0. -1.
         21   -1    0    0  501  502 -0.00000000000E+00 -0.00000000000E+00 -0.29446365152E+03  0.29446365152E+03  0.00000000000E+00 0. -1.
         25    1    1    2    0    0 -0.87885542472E+01  0.98911414545E+02 -0.85952565062E+02  0.18131064518E+03  0.12500000000E+03 0.  0.
         25    1    1    2    0    0 -0.60486868620E+02 -0.51101174095E+02 -0.57021446404E+02  0.15857628013E+03  0.12500000000E+03 0.  0.
         25    1    1    2    0    0  0.69275422867E+02 -0.47810240450E+02  0.54021975369E+02  0.16008834164E+03  0.12500000000E+03 0.  0.
</event>
<event>
 5    0  0.5778896E-005  0.2381538E+03  0.7546771E-02  0.1121029E+00
         21   -1    0    0  502  501  0.00000000000E+00  0.00000000000E+00  0.88159225809E+02  0.88159225809E+02  0.00000000000E+00 0.  1.
         21   -1    0    0  501  502 -0.00000000000E+00 -0.00000000000E+00 -0.64335017506E+03  0.64335017506E+03  0.00000000000E+00 0.  1.
         25    1    1    2    0    0 -0.46624375566E+02  0.10440656747E+03 -0.14605960122E+03  0.22368051064E+03  0.12500000000E+03 0.  0.
         25    1    1    2    0    0  0.12329711068E+00 -0.11118522104E+03 -0.22750884560E+03  0.28239589835E+03  0.12500000000E+03 0.  0.
         25    1    1    2    0    0  0.46501078455E+02  0.67786535617E+01 -0.18162250243E+03  0.22543299189E+03  0.12500000000E+03 0.  0.
</event>
<event>
 5    0  0.5778896E-005  0.3648874E+03  0.7546771E-02  0.1056665E+00
         21   -1    0    0  502  501  0.00000000000E+00  0.00000000000E+00  0.15861735121E+04  0.15861735121E+04  0.00000000000E+00 0. -1.
         21   -1    0    0  501  502 -0.00000000000E+00 -0.00000000000E+00 -0.83939605270E+02  0.83939605270E+02  0.00000000000E+00 0. -1.
         25    1    1    2    0    0 -0.26431475203E+03 -0.19214586973E+02  0.45043368869E+03  0.53735183670E+03  0.12500000000E+03 0.  0.
         25    1    1    2    0    0  0.14451386359E+03 -0.83175643229E+02  0.66345555563E+03  0.69541406277E+03  0.12500000000E+03 0.  0.
         25    1    1    2    0    0  0.11980088844E+03  0.10239023020E+03  0.38834466249E+03  0.43734721789E+03  0.12500000000E+03 0.  0.
</event>
<event>
 5    0  0.5778896E-005  0.2856435E+03  0.7546771E-02  0.1092646E+00
         21   -1    0    0  502  501  0.00000000000E+00  0.00000000000E+00  0.58654500900E+03  0.58654500900E+03  0.00000000000E+00 0. -1.
         21   -1    0    0  501  502 -0.00000000000E+00 -0.00000000000E+00 -0.13910646079E+03  0.13910646079E+03  0.00000000000E+00 0. -1.
         25    1    1    2    0    0 -0.70658251329E+02  0.59952132304E+02 -0.31398537892E+00  0.15560188057E+03  0.12500000000E+03 0.  0.
         25    1    1    2    0    0 -0.51515201908E+02  0.48166596458E+01  0.31011046986E+03  0.33833492246E+03  0.12500000000E+03 0.  0.
         25    1    1    2    0    0  0.12217345324E+03 -0.64768791950E+02  0.13764206373E+03  0.23171466676E+03  0.12500000000E+03 0.  0.
</event>
<event>
 5    0  0.5778896E-005  0.3317459E+03  0.7546771E-02  0.1070367E+00
         21   -1    0    0  502  501  0.00000000000E+00  0.00000000000E+00  0.90821692318E+03  0.90821692318E+03  0.00000000000E+00 0. -1.
         21   -1    0    0  501  502 -0.00000000000E+00 -0.00000000000E+00 -0.12117739421E+03  0.12117739421E+03  0.00000000000E+00 0. -1.
         25    1    1    2    0    0  0.93002548745E+02  0.10883274978E+03  0.11630467574E+03  0.22281341768E+03  0.12500000000E+03 0.  0.
         25    1    1    2    0    0 -0.10556696569E+03 -0.21627799853E+03  0.32446291075E+03  0.42287319298E+03  0.12500000000E+03 0.  0.
         25    1    1    2    0    0  0.12564416946E+02  0.10744524875E+03  0.34627194248E+03  0.38370770672E+03  0.12500000000E+03 0.  0.
</event>
<event>
 5    0  0.5778896E-005  0.4535290E+03  0.7546771E-02  0.1026675E+00
         21   -1    0    0  502  501  0.00000000000E+00  0.00000000000E+00  0.99128176994E+03  0.99128176994E+03  0.00000000000E+00 0.  1.
         21   -1    0    0  501  502 -0.00000000000E+00 -0.00000000000E+00 -0.20749754749E+03  0.20749754749E+03  0.00000000000E+00 0.  1.
         25    1    1    2    0    0 -0.32516888074E+03  0.53552845158E+02  0.62819875069E+03  0.72032033055E+03  0.12500000000E+03 0.  0.
         25    1    1    2    0    0  0.19337479486E+03 -0.11511490133E+03  0.60753752807E+02  0.26450192868E+03  0.12500000000E+03 0.  0.
         25    1    1    2    0    0  0.13179408589E+03  0.61562056170E+02  0.94831718955E+02  0.21395705820E+03  0.12500000000E+03 0.  0.
</event>
<event>
 5    0  0.5778896E-005  0.4361424E+03  0.7546771E-02  0.1031937E+00
         21   -1    0    0  502  501  0.00000000000E+00  0.00000000000E+00  0.48283639578E+03  0.48283639578E+03  0.00000000000E+00 0. -1.
         21   -1    0    0  501  502 -0.00000000000E+00 -0.00000000000E+00 -0.39396409401E+03  0.39396409401E+03  0.00000000000E+00 0. -1.
         25    1    1    2    0    0  0.32174578259E+03  0.11740714246E+03  0.11850798305E+03  0.38337178790E+03  0.12500000000E+03 0.  0.
         25    1    1    2    0    0 -0.26413566071E+03 -0.17755877409E+03 -0.29687711155E+02  0.34322168595E+03  0.12500000000E+03 0.  0.
         25    1    1    2    0    0 -0.57610121879E+02  0.60151631628E+02  0.52029883388E-01  0.15020701594E+03  0.12500000000E+03 0.  0.
</event>
<event>
 5    0  0.5938428E-005  0.3376034E+03  0.7546771E-02  0.1067821E+00
         21   -1    0    0  502  501  0.00000000000E+00  0.00000000000E+00  0.11342013340E+04  0.11342013340E+04  0.00000000000E+00 0.  1.
         21   -1    0    0  501  502 -0.00000000000E+00 -0.00000000000E+00 -0.10049016746E+03  0.10049016746E+03  0.00000000000E+00 0.  1.
         25    1    1    2    0    0  0.10525034099E+03  0.59580163928E+02  0.48232029567E+03  0.51272341260E+03  0.12500000000E+03 0.  0.
         25    1    1    2    0    0 -0.11289162105E+03 -0.12140352891E+03  0.54381307901E+03  0.58210050664E+03  0.12500000000E+03 0.  0.
         25    1    1    2    0    0  0.76412800571E+01  0.61823364978E+02  0.75777918260E+01  0.13986758219E+03  0.12500000000E+03 0.  0.
</event>
<event>
 5    0  0.5778896E-005  0.2624022E+03  0.7546771E-02  0.1105708E+00
         21   -1    0    0  502  501  0.00000000000E+00  0.00000000000E+00  0.13388600169E+04  0.13388600169E+04  0.00000000000E+00 0. -1.
         21   -1    0    0  501  502 -0.00000000000E+00 -0.00000000000E+00 -0.51428010534E+02  0.51428010534E+02  0.00000000000E+00 0. -1.
         25    1    1    2    0    0 -0.94790772552E+02 -0.14202057146E+01  0.63996770683E+03  0.65891651469E+03  0.12500000000E+03 0.  0.
         25    1    1    2    0    0 -0.52443458785E+02  0.47816880194E+01  0.17855379502E+03  0.22423121689E+03  0.12500000000E+03 0.  0.
         25    1    1    2    0    0  0.14723423134E+03 -0.33614823048E+01  0.46891050454E+03  0.50714029588E+03  0.12500000000E+03 0.  0.
</event>
<event>
 5    0  0.5778896E-005  0.2840337E+03  0.7546771E-02  0.1093506E+00
         21   -1    0    0  502  501  0.00000000000E+00  0.00000000000E+00  0.16546572445E+04  0.16546572445E+04  0.00000000000E+00 0.  1.
         21   -1    0    0  501  502 -0.00000000000E+00 -0.00000000000E+00 -0.48756413046E+02  0.48756413046E+02  0.00000000000E+00 0.  1.
         25    1    1    2    0    0 -0.86229857250E+02  0.17605966851E+02  0.88812215358E+03  0.90118339867E+03  0.12500000000E+03 0.  0.
         25    1    1    2    0    0 -0.55620574475E+02 -0.36593956747E+02  0.16363203643E+03  0.21640981799E+03  0.12500000000E+03 0.  0.
         25    1    1    2    0    0  0.14185043173E+03  0.18987989896E+02  0.55414664142E+03  0.58582044087E+03  0.12500000000E+03 0.  0.
</event>
<event>
 5    0  0.5778896E-005  0.5687134E+03  0.7546771E-02  0.9972530E-01
         21   -1    0    0  502  501  0.00000000000E+00  0.00000000000E+00  0.16760295464E+04  0.16760295464E+04  0.00000000000E+00 0.  1.
         21   -1    0    0  501  502 -0.00000000000E+00 -0.00000000000E+00 -0.19297689760E+03  0.19297689760E+03  0.00000000000E+00 0.  1.
         25    1    1    2    0    0  0.31124410567E+01 -0.25394182146E+02  0.13747224637E+03  0.18755844502E+03  0.12500000000E+03 0.  0.
         25    1    1    2    0    0  0.24796430531E+03 -0.36902483739E+03  0.36761726916E+03  0.59028220700E+03  0.12500000000E+03 0.  0.
         25    1    1    2    0    0 -0.25107674637E+03  0.39441901954E+03  0.97796313323E+03  0.10911657919E+04  0.12500000000E+03 0.  0.
</event>
<event>
 5    0  0.5778896E-005  0.3865873E+03  0.7546771E-02  0.1048526E+00
         21   -1    0    0  502  501  0.00000000000E+00  0.00000000000E+00  0.68091579903E+02  0.68091579903E+02  0.00000000000E+00 0. -1.
         21   -1    0    0  501  502 -0.00000000000E+00 -0.00000000000E+00 -0.21948346235E+04  0.21948346235E+04  0.00000000000E+00 0. -1.
         25    1    1    2    0    0  0.12818651037E+03 -0.85096911835E+02 -0.60299593600E+03  0.63474590560E+03  0.12500000000E+03 0.  0.
         25    1    1    2    0    0 -0.28737330549E+03  0.16060036613E+03 -0.83095142371E+03  0.90248610122E+03  0.12500000000E+03 0.  0.
         25    1    1    2    0    0  0.15918679513E+03 -0.75503454299E+02 -0.69279568387E+03  0.72569419657E+03  0.12500000000E+03 0.  0.
</event>
<event>
 5    0  0.5778896E-005  0.3584433E+03  0.7546771E-02  0.1059202E+00
         21   -1    0    0  502  501  0.00000000000E+00  0.00000000000E+00  0.23920605063E+04  0.23920605063E+04  0.00000000000E+00 0. -1.
         21   -1    0    0  501  502 -0.00000000000E+00 -0.00000000000E+00 -0.53711692228E+02  0.53711692228E+02  0.00000000000E+00 0. -1.
         25    1    1    2    0    0  0.11984010062E+03  0.16335599374E+02  0.17624500399E+03  0.24762027977E+03  0.12500000000E+03 0.  0.
         25    1    1    2    0    0 -0.14558842885E+03  0.10083587765E+03  0.10017630050E+04  0.10249477952E+04  0.12500000000E+03 0.  0.
         25    1    1    2    0    0  0.25748328231E+02 -0.11717147703E+03  0.11603408051E+04  0.11732041235E+04  0.12500000000E+03 0.  0.
</event>
<event>
 5    0  0.5778896E-005  0.2464201E+03  0.7546771E-02  0.1115588E+00
         21   -1    0    0  502  501  0.00000000000E+00  0.00000000000E+00  0.41950211491E+02  0.41950211491E+02  0.00000000000E+00 0. -1.
         21   -1    0    0  501  502 -0.00000000000E+00 -0.00000000000E+00 -0.14474984789E+04  0.14474984789E+04  0.00000000000E+00 0. -1.
         25    1    1    2    0    0 -0.30856844537E+02 -0.91250154432E+02 -0.24764545721E+03  0.29365286992E+03  0.12500000000E+03 0.  0.
         25    1    1    2    0    0 -0.32570318095E+02  0.15806651747E+02 -0.37687348335E+03  0.39870954128E+03  0.12500000000E+03 0.  0.
         25    1    1    2    0    0  0.63427162632E+02  0.75443502684E+02 -0.78102932684E+03  0.79708627917E+03  0.12500000000E+03 0.  0.
</event>
<event>
 5    0  0.5778896E-005  0.3850628E+03  0.7546771E-02  0.1049078E+00
         21   -1    0    0  502  501  0.00000000000E+00  0.00000000000E+00  0.89626258489E+03  0.89626258489E+03  0.00000000000E+00 0.  1.
         21   -1    0    0  501  502 -0.00000000000E+00 -0.00000000000E+00 -0.16543517199E+03  0.16543517199E+03  0.00000000000E+00 0.  1.
         25    1    1    2    0    0 -0.40586682782E+01  0.66213163108E+02 -0.71772939448E+02  0.15867265232E+03  0.12500000000E+03 0.  0.
         25    1    1    2    0    0 -0.10688576815E+02 -0.19554063309E+03  0.41917306465E+03  0.47925091861E+03  0.12500000000E+03 0.  0.
         25    1    1    2    0    0  0.14747245094E+02  0.12932746998E+03  0.38342728770E+03  0.42377418596E+03  0.12500000000E+03 0.  0.
</event>
<event>
 5    0  0.5778896E-005  0.3614993E+03  0.7546771E-02  0.1057992E+00
         21   -1    0    0  502  501  0.00000000000E+00  0.00000000000E+00  0.11335642691E+03  0.11335642691E+03  0.00000000000E+00 0. -1.
         21   -1    0    0  501  502 -0.00000000000E+00 -0.00000000000E+00 -0.11528395796E+04  0.11528395796E+04  0.00000000000E+00 0. -1.
         25    1    1    2    0    0  0.70771759705E+02  0.93958705133E+02 -0.49646695071E+03  0.52530116446E+03  0.12500000000E+03 0.  0.
         25    1    1    2    0    0 -0.23317945698E+03  0.25643372035E+02 -0.26422947239E+03  0.37479655250E+03  0.12500000000E+03 0.  0.
         25    1    1    2    0    0  0.16240769728E+03 -0.11960207717E+03 -0.27878672955E+03  0.36609828950E+03  0.12500000000E+03 0.  0.
</event>
<event>
 5    0  0.5778896E-005  0.3540605E+03  0.7546771E-02  0.1060961E+00
         21   -1    0    0  502  501  0.00000000000E+00  0.00000000000E+00  0.68229718407E+03  0.68229718407E+03  0.00000000000E+00 0. -1.
         21   -1    0    0  501  502 -0.00000000000E+00 -0.00000000000E+00 -0.18373060167E+03  0.18373060167E+03  0.00000000000E+00 0. -1.
         25    1    1    2    0    0 -0.63209402769E+01  0.79953161604E+02  0.49387603113E+02  0.15651388973E+03  0.12500000000E+03 0.  0.
         25    1    1    2    0    0 -0.19204893975E+03 -0.15770743549E+03  0.34038604145E+03  0.43959309330E+03  0.12500000000E+03 0.  0.
         25    1    1    2    0    0  0.19836988003E+03  0.77754273883E+02  0.10879293784E+03  0.26992080270E+03  0.12500000000E+03 0.  0.
</event>
<event>
 5    0  0.5778896E-005  0.4995915E+03  0.7546771E-02  0.1013886E+00
         21   -1    0    0  502  501  0.00000000000E+00  0.00000000000E+00  0.35160765754E+03  0.35160765754E+03  0.00000000000E+00 0. -1.
         21   -1    0    0  501  502 -0.00000000000E+00 -0.00000000000E+00 -0.70985835936E+03  0.70985835936E+03  0.00000000000E+00 0. -1.
         25    1    1    2    0    0  0.52324420399E+02  0.17653314514E+03 -0.19974295786E+03  0.29903853517E+03  0.12500000000E+03 0.  0.
         25    1    1    2    0    0 -0.27030440780E+03 -0.13131224123E+03  0.15301550511E+03  0.35964721934E+03  0.12500000000E+03 0.  0.
         25    1    1    2    0    0  0.21797998740E+03 -0.45220903903E+02 -0.31152324907E+03  0.40278026239E+03  0.12500000000E+03 0.  0.
</event>
<event>
 5    0  0.5778896E-005  0.2102877E+03  0.7546771E-02  0.1141338E+00
         21   -1    0    0  502  501  0.00000000000E+00  0.00000000000E+00  0.40054512735E+03  0.40054512735E+03  0.00000000000E+00 0.  1.
         21   -1    0    0  501  502 -0.00000000000E+00 -0.00000000000E+00 -0.11040187500E+03  0.11040187500E+03  0.00000000000E+00 0.  1.
         25    1    1    2    0    0 -0.16359648241E+02 -0.38475471716E+02  0.15571938185E+02  0.13272334110E+03  0.12500000000E+03 0.  0.
         25    1    1    2    0    0 -0.14798878605E+02  0.37257046333E+02  0.14096502807E+03  0.19262199628E+03  0.12500000000E+03 0.  0.
         25    1    1    2    0    0  0.31158526847E+02  0.12184253836E+01  0.13360628610E+03  0.18560166497E+03  0.12500000000E+03 0.  0.
</event>
<event>
 5    0  0.5778896E-005  0.3109992E+03  0.7546771E-02  0.1079868E+00
         21   -1    0    0  502  501  0.00000000000E+00  0.00000000000E+00  0.50142018851E+03  0.50142018851E+03  0.00000000000E+00 0. -1.
         21   -1    0    0  501  502 -0.00000000000E+00 -0.00000000000E+00 -0.19289314923E+03  0.19289314923E+03  0.00000000000E+00 0. -1.
         25    1    1    2    0    0  0.94584708622E+02 -0.19783935704E+03  0.44871785217E+02  0.25636917796E+03  0.12500000000E+03 0.  0.
         25    1    1    2    0    0  0.87183493093E+01  0.88142295153E+02  0.12962259054E+03  0.20067907163E+03  0.12500000000E+03 0.  0.
         25    1    1    2    0    0 -0.10330305793E+03  0.10969706189E+03  0.13403266352E+03  0.23726508815E+03  0.12500000000E+03 0.  0.
</event>
<event>
 5    0  0.5778896E-005  0.2612219E+03  0.7546771E-02  0.1106411E+00
         21   -1    0    0  502  501  0.00000000000E+00  0.00000000000E+00  0.34165586174E+03  0.34165586174E+03  0.00000000000E+00 0.  1.
         21   -1    0    0  501  502 -0.00000000000E+00 -0.00000000000E+00 -0.19972396477E+03  0.19972396477E+03  0.00000000000E+00 0.  1.
         25    1    1    2    0    0  0.11978766193E+03  0.17363542032E+02  0.64316123957E+01  0.17411761019E+03  0.12500000000E+03 0.  0.
         25    1    1    2    0    0 -0.15156961597E+03 -0.58444674285E+02  0.67658655843E+02  0.21585138904E+03  0.12500000000E+03 0.  0.
         25    1    1    2    0    0  0.31781954045E+02  0.41081132253E+02  0.67841628725E+02  0.15141082728E+03  0.12500000000E+03 0.  0.
</event>
<event>
 5    0  0.5778896E-005  0.2218273E+03  0.7546771E-02  0.1132528E+00
         21   -1    0    0  502  501  0.00000000000E+00  0.00000000000E+00  0.17376077083E+03  0.17376077083E+03  0.00000000000E+00 0. -1.
         21   -1    0    0  501  502 -0.00000000000E+00 -0.00000000000E+00 -0.28319019830E+03  0.28319019830E+03  0.00000000000E+00 0. -1.
         25    1    1    2    0    0 -0.17151661702E+02  0.55222360872E+02 -0.53790733406E+02  0.14785848518E+03  0.12500000000E+03 0.  0.
         25    1    1    2    0    0 -0.13755223245E+02  0.51650656820E+02 -0.14114725231E+02  0.13667926684E+03  0.12500000000E+03 0.  0.
         25    1    1    2    0    0  0.30906884946E+02 -0.10687301769E+03 -0.41523968834E+02  0.17241321711E+03  0.12500000000E+03 0.  0.
</event>
<event>
 5    0  0.5778896E-005  0.2500343E+03  0.7546771E-02  0.1113283E+00
         21   -1    0    0  502  501  0.00000000000E+00  0.00000000000E+00  0.59612396897E+02  0.59612396897E+02  0.00000000000E+00 0. -1.
         21   -1    0    0  501  502 -0.00000000000E+00 -0.00000000000E+00 -0.10487272395E+04  0.10487272395E+04  0.00000000000E+00 0. -1.
         25    1    1    2    0    0 -0.11593235411E+03 -0.22861202260E+02 -0.19221762699E+03  0.25794488059E+03  0.12500000000E+03 0.  0.
         25    1    1    2    0    0  0.96218021664E+02  0.52777081377E+02 -0.42287923202E+03  0.45441739941E+03  0.12500000000E+03 0.  0.
         25    1    1    2    0    0  0.19714332441E+02 -0.29915879117E+02 -0.37401798354E+03  0.39597735634E+03  0.12500000000E+03 0.  0.
</event>
<event>
 5    0  0.6265219E-005  0.2578054E+03  0.7546771E-02  0.1108469E+00
         21   -1    0    0  502  501  0.00000000000E+00  0.00000000000E+00  0.13984623657E+03  0.13984623657E+03  0.00000000000E+00 0.  1.
         21   -1    0    0  501  502 -0.00000000000E+00 -0.00000000000E+00 -0.47526218505E+03  0.47526218505E+03  0.00000000000E+00 0.  1.
         25    1    1    2    0    0  0.16369209080E+02  0.14662473612E+03 -0.37423129114E+02  0.19695749501E+03  0.12500000000E+03 0.  0.
         25    1    1    2    0    0 -0.26807941511E+02 -0.62680238776E+02 -0.14762113137E+03  0.20509626151E+03  0.12500000000E+03 0.  0.
         25    1    1    2    0    0  0.10438732431E+02 -0.83944497342E+02 -0.15037168800E+03  0.21305466510E+03  0.12500000000E+03 0.  0.
</event>
<event>
 5    0  0.5778896E-005  0.2963886E+03  0.7546771E-02  0.1087060E+00
         21   -1    0    0  502  501  0.00000000000E+00  0.00000000000E+00  0.55835510871E+02  0.55835510871E+02  0.00000000000E+00 0.  1.
         21   -1    0    0  501  502 -0.00000000000E+00 -0.00000000000E+00 -0.15733036636E+04  0.15733036636E+04  0.00000000000E+00 0.  1.
         25    1    1    2    0    0 -0.13018729393E+02 -0.24449891161E+02 -0.27794299931E+03  0.30601404438E+03  0.12500000000E+03 0.  0.
         25    1    1    2    0    0  0.77112299292E+01  0.47359786114E+02 -0.11710342878E+04  0.11786639536E+04  0.12500000000E+03 0.  0.
         25    1    1    2    0    0  0.53074994640E+01 -0.22909894953E+02 -0.68490865679E+02  0.14446117651E+03  0.12500000000E+03 0.  0.
</event>
<event>
 5    0  0.5778896E-005  0.2425222E+03  0.7546771E-02  0.1118124E+00
         21   -1    0    0  502  501  0.00000000000E+00  0.00000000000E+00  0.36095931076E+02  0.36095931076E+02  0.00000000000E+00 0. -1.
         21   -1    0    0  501  502 -0.00000000000E+00 -0.00000000000E+00 -0.16294637525E+04  0.16294637525E+04  0.00000000000E+00 0. -1.
         25    1    1    2    0    0 -0.73818587667E+02  0.25403847479E+02 -0.48607007742E+03  0.50792091856E+03  0.12500000000E+03 0.  0.
         25    1    1    2    0    0  0.10088321429E+03 -0.41877799011E+02 -0.88678764761E+03  0.90219094704E+03  0.12500000000E+03 0.  0.
         25    1    1    2    0    0 -0.27064626624E+02  0.16473951531E+02 -0.22051009640E+03  0.25544781797E+03  0.12500000000E+03 0.  0.
</event>
<event>
 5    0  0.7650021E-005  0.3767793E+03  0.7546771E-02  0.1052131E+00
         21   -1    0    0  502  501  0.00000000000E+00  0.00000000000E+00  0.79930038210E+03  0.79930038210E+03  0.00000000000E+00 0.  1.
         21   -1    0    0  501  502 -0.00000000000E+00 -0.00000000000E+00 -0.17760860832E+03  0.17760860832E+03  0.00000000000E+00 0.  1.
         25    1    1    2    0    0 -0.13873986425E+03 -0.60310726128E+02  0.51651383285E+03  0.55253748574E+03  0.12500000000E+03 0.  0.
         25    1    1    2    0    0  0.21665050757E+02  0.15476529045E+03  0.11072908918E+03  0.22870854978E+03  0.12500000000E+03 0.  0.
         25    1    1    2    0    0  0.11707481349E+03 -0.94454564325E+02 -0.55511482456E+01  0.19566295491E+03  0.12500000000E+03 0.  0.
</event>
<event>
 5    0  0.5778896E-005  0.2529193E+03  0.7546771E-02  0.1111474E+00
         21   -1    0    0  502  501  0.00000000000E+00  0.00000000000E+00  0.37438125810E+03  0.37438125810E+03  0.00000000000E+00 0. -1.
         21   -1    0    0  501  502 -0.00000000000E+00 -0.00000000000E+00 -0.17086372239E+03  0.17086372239E+03  0.00000000000E+00 0. -1.
         25    1    1    2    0    0  0.10128094964E+03  0.42462730025E+02 -0.56575408119E+01  0.16648700241E+03  0.12500000000E+03 0.  0.
         25    1    1    2    0    0  0.29297223602E+02 -0.41691200889E+02  0.90552617644E+02  0.16254617838E+03  0.12500000000E+03 0.  0.
         25    1    1    2    0    0 -0.13057817325E+03 -0.77152913624E+00  0.11862245888E+03  0.21621179971E+03  0.12500000000E+03 0.  0.
</event>
<event>
 5    0  0.5778896E-005  0.2681609E+03  0.7546771E-02  0.1102337E+00
         21   -1    0    0  502  501  0.00000000000E+00  0.00000000000E+00  0.57963357850E+02  0.57963357850E+02  0.00000000000E+00 0.  1.
         21   -1    0    0  501  502 -0.00000000000E+00 -0.00000000000E+00 -0.12406156270E+04  0.12406156270E+04  0.00000000000E+00 0.  1.
         25    1    1    2    0    0  0.52090437336E+02 -0.86164971985E+02 -0.43554072926E+03  0.46417512095E+03  0.12500000000E+03 0.  0.
         25    1    1    2    0    0  0.43709243186E+02  0.14557414318E+03 -0.47881156831E+03  0.51767542635E+03  0.12500000000E+03 0.  0.
         25    1    1    2    0    0 -0.95799680521E+02 -0.59409171192E+02 -0.26829997163E+03  0.31672843760E+03  0.12500000000E+03 0.  0.
</event>
<event>
 5    0  0.5778896E-005  0.2642025E+03  0.7546771E-02  0.1104644E+00
         21   -1    0    0  502  501  0.00000000000E+00  0.00000000000E+00  0.75744302654E+02  0.75744302654E+02  0.00000000000E+00 0.  1.
         21   -1    0    0  501  502 -0.00000000000E+00 -0.00000000000E+00 -0.92156073259E+03  0.92156073259E+03  0.00000000000E+00 0.  1.
         25    1    1    2    0    0 -0.14662076348E+03  0.12398413565E+02 -0.40565387384E+03  0.44925653507E+03  0.12500000000E+03 0.  0.
         25    1    1    2    0    0  0.14190722093E+03  0.53093474099E+01 -0.33021672406E+03  0.38057053666E+03  0.12500000000E+03 0.  0.
         25    1    1    2    0    0  0.47135425433E+01 -0.17707760975E+02 -0.10994583204E+03  0.16747796352E+03  0.12500000000E+03 0.  0.
</event>
<event>
 5    0  0.5778896E-005  0.2510961E+03  0.7546771E-02  0.1112614E+00
         21   -1    0    0  502  501  0.00000000000E+00  0.00000000000E+00  0.42258335044E+03  0.42258335044E+03  0.00000000000E+00 0. -1.
         21   -1    0    0  501  502 -0.00000000000E+00 -0.00000000000E+00 -0.14919955544E+03  0.14919955544E+03  0.00000000000E+00 0.  1.
         25    1    1    2    0    0 -0.10611793654E+02 -0.33230423823E+02  0.10131254575E+03  0.16463931231E+03  0.12500000000E+03 0.  0.
         25    1    1    2    0    0  0.45989791104E+02  0.14546885556E+03  0.96246981885E+02  0.21946464487E+03  0.12500000000E+03 0.  0.
         25    1    1    2    0    0 -0.35377997449E+02 -0.11223843174E+03  0.75824267370E+02  0.18767894870E+03  0.12500000000E+03 0.  0.
</event>
<event>
 5    0  0.5778896E-005  0.3607277E+03  0.7546771E-02  0.1058296E+00
         21   -1    0    0  502  501  0.00000000000E+00  0.00000000000E+00  0.16480619901E+03  0.16480619901E+03  0.00000000000E+00 0. -1.
         21   -1    0    0  501  502 -0.00000000000E+00 -0.00000000000E+00 -0.78956033678E+03  0.78956033678E+03  0.00000000000E+00 0. -1.
         25    1    1    2    0    0  0.15577571782E+03  0.41194868712E+01 -0.31290556147E+03  0.37123838006E+03  0.12500000000E+03 0.  0.
         25    1    1    2    0    0 -0.25349817455E+03 -0.87794544831E+02 -0.11690693474E+03  0.31821602409E+03  0.12500000000E+03 0.  0.
         25    1    1    2    0    0  0.97722456727E+02  0.83675057960E+02 -0.19494164157E+03  0.26491213164E+03  0.12500000000E+03 0.  0.
</event>
<event>
 5    0  0.5778896E-005  0.5040496E+03  0.7546771E-02  0.1012727E+00
         21   -1    0    0  502  501  0.00000000000E+00  0.00000000000E+00  0.35533833905E+03  0.35533833905E+03  0.00000000000E+00 0. -1.
         21   -1    0    0  501  502 -0.00000000000E+00 -0.00000000000E+00 -0.71499752318E+03  0.71499752318E+03  0.00000000000E+00 0. -1.
         25    1    1    2    0    0 -0.35028057903E+03  0.12989506771E+03 -0.94825892547E+02  0.40519891728E+03  0.12500000000E+03 0.  0.
         25    1    1    2    0    0  0.31401615730E+03 -0.19167221544E+03 -0.30093695497E+02  0.38971145188E+03  0.12500000000E+03 0.  0.
         25    1    1    2    0    0  0.36264421735E+02  0.61777147726E+02 -0.23473959609E+03  0.27542549307E+03  0.12500000000E+03 0.  0.
</event>
<event>
 5    0  0.5778896E-005  0.3762374E+03  0.7546771E-02  0.1052333E+00
         21   -1    0    0  502  501  0.00000000000E+00  0.00000000000E+00  0.20465482849E+03  0.20465482849E+03  0.00000000000E+00 0. -1.
         21   -1    0    0  501  502 -0.00000000000E+00 -0.00000000000E+00 -0.69167459700E+03  0.69167459700E+03  0.00000000000E+00 0. -1.
         25    1    1    2    0    0 -0.99035862885E+02  0.12452670928E+03 -0.16274874820E+03  0.25966739977E+03  0.12500000000E+03 0.  0.
         25    1    1    2    0    0 -0.13653293337E+03  0.88330161261E+02 -0.14533782823E+03  0.25137928236E+03  0.12500000000E+03 0.  0.
         25    1    1    2    0    0  0.23556879625E+03 -0.21285687054E+03 -0.17893319209E+03  0.38528274337E+03  0.12500000000E+03 0.  0.
</event>
<event>
 5    0  0.5778896E-005  0.3141496E+03  0.7546771E-02  0.1078374E+00
         21   -1    0    0  502  501  0.00000000000E+00  0.00000000000E+00  0.22704813338E+04  0.22704813338E+04  0.00000000000E+00 0.  1.
         21   -1    0    0  501  502 -0.00000000000E+00 -0.00000000000E+00 -0.43466553360E+02  0.43466553360E+02  0.00000000000E+00 0.  1.
         25    1    1    2    0    0  0.26031668605E+02 -0.58899504324E+02  0.50742380293E+03  0.52654602378E+03  0.12500000000E+03 0.  0.
         25    1    1    2    0    0  0.11143108489E+03  0.46934463183E+02  0.14462949216E+04  0.14567133317E+04  0.12500000000E+03 0.  0.
         25    1    1    2    0    0 -0.13746275349E+03  0.11965041141E+02  0.27329605592E+03  0.33068853168E+03  0.12500000000E+03 0.  0.
</event>
<event>
 5    0  0.5778896E-005  0.3023161E+03  0.7546771E-02  0.1084089E+00
         21   -1    0    0  502  501  0.00000000000E+00  0.00000000000E+00  0.48103585594E+02  0.48103585594E+02  0.00000000000E+00 0. -1.
         21   -1    0    0  501  502 -0.00000000000E+00 -0.00000000000E+00 -0.18999623083E+04  0.18999623083E+04  0.00000000000E+00 0. -1.
         25    1    1    2    0    0  0.21080704098E+02  0.36879419298E+02 -0.36818287104E+03  0.39113695067E+03  0.12500000000E+03 0.  0.
         25    1    1    2    0    0 -0.21296205838E+02 -0.18136673091E+03 -0.40548909156E+03  0.46194569252E+03  0.12500000000E+03 0.  0.
         25    1    1    2    0    0  0.21550174048E+00  0.14448731161E+03 -0.10781867601E+04  0.10949832507E+04  0.12500000000E+03 0.  0.
</event>
<event>
 5    0  0.5778896E-005  0.7058892E+03  0.7546771E-02  0.9707214E-01
         21   -1    0    0  502  501  0.00000000000E+00  0.00000000000E+00  0.14452894394E+04  0.14452894394E+04  0.00000000000E+00 0. -1.
         21   -1    0    0  501  502 -0.00000000000E+00 -0.00000000000E+00 -0.34476111928E+03  0.34476111928E+03  0.00000000000E+00 0. -1.
         25    1    1    2    0    0  0.11043364061E+03 -0.54511415059E+03  0.38031437864E+03  0.68528027314E+03  0.12500000000E+03 0.  0.
         25    1    1    2    0    0 -0.30728880128E+02  0.93381131035E+02 -0.76895092475E+02  0.17664131723E+03  0.12500000000E+03 0.  0.
         25    1    1    2    0    0 -0.79704760477E+02  0.45173301955E+03  0.79710903394E+03  0.92812896830E+03  0.12500000000E+03 0.  0.
</event>
<event>
 5    0  0.6374613E-005  0.2992972E+03  0.7546771E-02  0.1085592E+00
         21   -1    0    0  502  501  0.00000000000E+00  0.00000000000E+00  0.28422427610E+03  0.28422427610E+03  0.00000000000E+00 0.  1.
         21   -1    0    0  501  502 -0.00000000000E+00 -0.00000000000E+00 -0.31516947148E+03  0.31516947148E+03  0.00000000000E+00 0.  1.
         25    1    1    2    0    0  0.94842066505E+02 -0.87917236667E+01  0.51912607868E+02  0.16550598430E+03  0.12500000000E+03 0.  0.
         25    1    1    2    0    0 -0.74599798671E+02 -0.80592496756E+01 -0.20869350360E+03  0.25457427189E+03  0.12500000000E+03 0.  0.
         25    1    1    2    0    0 -0.20242267835E+02  0.16850973342E+02  0.12583570035E+03  0.17931349138E+03  0.12500000000E+03 0.  0.
</event>
<event>
 5    0  0.5778896E-005  0.3530566E+03  0.7546771E-02  0.1061367E+00
         21   -1    0    0  502  501  0.00000000000E+00  0.00000000000E+00  0.39999545602E+03  0.39999545602E+03  0.00000000000E+00 0. -1.
         21   -1    0    0  501  502 -0.00000000000E+00 -0.00000000000E+00 -0.31162595840E+03  0.31162595840E+03  0.00000000000E+00 0. -1.
         25    1    1    2    0    0  0.12369127072E+01  0.15793658874E+03  0.19127749519E+03  0.27777252597E+03  0.12500000000E+03 0.  0.
         25    1    1    2    0    0 -0.68214167214E+02  0.20606716687E+02  0.57624968389E+02  0.15499498819E+03  0.12500000000E+03 0.  0.
         25    1    1    2    0    0  0.66977254507E+02 -0.17854330543E+03 -0.16053296596E+03  0.27885390027E+03  0.12500000000E+03 0.  0.
</event>
<event>
 5    0  0.5778896E-005  0.3871053E+03  0.7546771E-02  0.1048338E+00
         21   -1    0    0  502  501  0.00000000000E+00  0.00000000000E+00  0.24604474701E+03  0.24604474701E+03  0.00000000000E+00 0.  1.
         21   -1    0    0  501  502 -0.00000000000E+00 -0.00000000000E+00 -0.60903754501E+03  0.60903754501E+03  0.00000000000E+00 0.  1.
         25    1    1    2    0    0  0.50035283072E+02 -0.79022556164E+02  0.13482794716E+03  0.20628055960E+03  0.12500000000E+03 0.  0.
         25    1    1    2    0    0 -0.92062795935E+02  0.67040689082E+02 -0.48748317291E+03  0.51597951147E+03  0.12500000000E+03 0.  0.
         25    1    1    2    0    0  0.42027512863E+02  0.11981867082E+02 -0.10337572246E+02  0.13282222094E+03  0.12500000000E+03 0.  0.
</event>
<event>
 5    0  0.5778896E-005  0.2646616E+03  0.7546771E-02  0.1104374E+00
         21   -1    0    0  502  501  0.00000000000E+00  0.00000000000E+00  0.23466953473E+03  0.23466953473E+03  0.00000000000E+00 0. -1.
         21   -1    0    0  501  502 -0.00000000000E+00 -0.00000000000E+00 -0.29848677323E+03  0.29848677323E+03  0.00000000000E+00 0. -1.
         25    1    1    2    0    0  0.62989087141E+02  0.82809913834E+02  0.82653134224E+02  0.18243258351E+03  0.12500000000E+03 0.  0.
         25    1    1    2    0    0 -0.53398320776E+02 -0.12591827624E+03 -0.97675286704E+02  0.20945704711E+03  0.12500000000E+03 0.  0.
         25    1    1    2    0    0 -0.95907663652E+01  0.43108362406E+02 -0.48795086022E+02  0.14126667735E+03  0.12500000000E+03 0.  0.
</event>
<event>
 5    0  0.5944582E-005  0.2756048E+03  0.7546771E-02  0.1098114E+00
         21   -1    0    0  502  501  0.00000000000E+00  0.00000000000E+00  0.19892659303E+03  0.19892659303E+03  0.00000000000E+00 0. -1.
         21   -1    0    0  501  502 -0.00000000000E+00 -0.00000000000E+00 -0.38183934705E+03  0.38183934705E+03  0.00000000000E+00 0. -1.
         25    1    1    2    0    0  0.60323459923E+02 -0.22438985625E+02 -0.34440195116E+02  0.14475342805E+03  0.12500000000E+03 0.  0.
         25    1    1    2    0    0 -0.18372992712E+03  0.34386864471E+02 -0.37697182310E+02  0.22800267569E+03  0.12500000000E+03 0.  0.
         25    1    1    2    0    0  0.12340646719E+03 -0.11947878847E+02 -0.11077537659E+03  0.20800983634E+03  0.12500000000E+03 0.  0.
</event>
<event>
 5    0  0.5778896E-005  0.2645491E+03  0.7546771E-02  0.1104440E+00
         21   -1    0    0  502  501  0.00000000000E+00  0.00000000000E+00  0.46262096806E+03  0.46262096806E+03  0.00000000000E+00 0. -1.
         21   -1    0    0  501  502 -0.00000000000E+00 -0.00000000000E+00 -0.15128205417E+03  0.15128205417E+03  0.00000000000E+00 0. -1.
         25    1    1    2    0    0 -0.45562611809E+02  0.48764125071E+02  0.44863200846E+01  0.14177100746E+03  0.12500000000E+03 0.  0.
         25    1    1    2    0    0  0.38635117718E+02  0.87545033196E+02  0.71966357278E+02  0.17309235032E+03  0.12500000000E+03 0.  0.
         25    1    1    2    0    0  0.69274940903E+01 -0.13630915827E+03  0.23488623653E+03  0.29903966445E+03  0.12500000000E+03 0.  0.
</event>
<event>
 5    0  0.5778896E-005  0.3403114E+03  0.7546771E-02  0.1066663E+00
         21   -1    0    0  502  501  0.00000000000E+00  0.00000000000E+00  0.58035563422E+03  0.58035563422E+03  0.00000000000E+00 0.  1.
         21   -1    0    0  501  502 -0.00000000000E+00 -0.00000000000E+00 -0.19955322146E+03  0.19955322146E+03  0.00000000000E+00 0. -1.
         25    1    1    2    0    0 -0.88189414060E+02  0.76622793937E+02  0.82110693988E+02  0.18977774203E+03  0.12500000000E+03 0.  0.
         25    1    1    2    0    0  0.19502183817E+03 -0.17376433364E+03  0.27200926785E+03  0.39729284264E+03  0.12500000000E+03 0.  0.
         25    1    1    2    0    0 -0.10683242411E+03  0.97141539708E+02  0.26682450919E+02  0.19283827101E+03  0.12500000000E+03 0.  0.
</event>
<event>
 5    0  0.5778896E-005  0.5992673E+03  0.7546771E-02  0.9906927E-01
         21   -1    0    0  502  501  0.00000000000E+00  0.00000000000E+00  0.46069705141E+03  0.46069705141E+03  0.00000000000E+00 0.  1.
         21   -1    0    0  501  502 -0.00000000000E+00 -0.00000000000E+00 -0.77951718624E+03  0.77951718624E+03  0.00000000000E+00 0.  1.
         25    1    1    2    0    0 -0.14168686946E+02 -0.30904297329E+03 -0.53653426545E+01  0.33370960120E+03  0.12500000000E+03 0.  0.
         25    1    1    2    0    0  0.93078795655E+02  0.51435708065E+03 -0.36320276509E+03  0.64866641441E+03  0.12500000000E+03 0.  0.
         25    1    1    2    0    0 -0.78910108709E+02 -0.20531410736E+03  0.49747972914E+02  0.25783822205E+03  0.12500000000E+03 0.  0.
</event>
<event>
 5    0  0.5778896E-005  0.2429261E+03  0.7546771E-02  0.1117859E+00
         21   -1    0    0  502  501  0.00000000000E+00  0.00000000000E+00  0.41659196272E+02  0.41659196272E+02  0.00000000000E+00 0.  1.
         21   -1    0    0  501  502 -0.00000000000E+00 -0.00000000000E+00 -0.14165677139E+04  0.14165677139E+04  0.00000000000E+00 0.  1.
         25    1    1    2    0    0 -0.52149716646E+02 -0.66893598530E+02 -0.63294251367E+03  0.65071927287E+03  0.12500000000E+03 0.  0.
         25    1    1    2    0    0  0.12369942321E+02  0.65710209479E+02 -0.58982051309E+03  0.60661691763E+03  0.12500000000E+03 0.  0.
         25    1    1    2    0    0  0.39779774325E+02  0.11833890510E+01 -0.15214549085E+03  0.20089071965E+03  0.12500000000E+03 0.  0.
</event>
<event>
 5    0  0.6730894E-005  0.2793994E+03  0.7546771E-02  0.1096017E+00
         21   -1    0    0  502  501  0.00000000000E+00  0.00000000000E+00  0.32677820355E+03  0.32677820355E+03  0.00000000000E+00 0.  1.
         21   -1    0    0  501  502 -0.00000000000E+00 -0.00000000000E+00 -0.23888992936E+03  0.23888992936E+03  0.00000000000E+00 0.  1.
         25    1    1    2    0    0 -0.31265150343E+02  0.45429643110E+01  0.11569436541E+03  0.17322913825E+03  0.12500000000E+03 0.  0.
         25    1    1    2    0    0  0.18696921917E+01  0.10815977106E+03 -0.11426345526E+03  0.20095563947E+03  0.12500000000E+03 0.  0.
         25    1    1    2    0    0  0.29395458151E+02 -0.11270273537E+03  0.86457364042E+02  0.19148335520E+03  0.12500000000E+03 0.  0.
</event>
<event>
 5    0  0.6010855E-005  0.3823280E+03  0.7546771E-02  0.1050077E+00
         21   -1    0    0  502  501  0.00000000000E+00  0.00000000000E+00  0.96733041752E+03  0.96733041752E+03  0.00000000000E+00 0. -1.
         21   -1    0    0  501  502 -0.00000000000E+00 -0.00000000000E+00 -0.15111143242E+03  0.15111143242E+03  0.00000000000E+00 0. -1.
         25    1    1    2    0    0 -0.21756111399E+03 -0.45661624828E+02  0.41860629507E+03  0.49017757249E+03  0.12500000000E+03 0.  0.
         25    1    1    2    0    0  0.24330599817E+03  0.15690565992E+03  0.23259242769E+03  0.39184363243E+03  0.12500000000E+03 0.  0.
         25    1    1    2    0    0 -0.25744884183E+02 -0.11124403509E+03  0.16502026234E+03  0.23642064501E+03  0.12500000000E+03 0.  0.
</event>
<event>
 5    0  0.6624631E-005  0.3488990E+03  0.7546771E-02  0.1063068E+00
         21   -1    0    0  502  501  0.00000000000E+00  0.00000000000E+00  0.39656445104E+03  0.39656445104E+03  0.00000000000E+00 0.  1.
         21   -1    0    0  501  502 -0.00000000000E+00 -0.00000000000E+00 -0.30696274517E+03  0.30696274517E+03  0.00000000000E+00 0.  1.
         25    1    1    2    0    0  0.10773599545E+02 -0.17618466116E+03  0.16282570330E+03  0.27072922807E+03  0.12500000000E+03 0.  0.
         25    1    1    2    0    0  0.27062690659E+02 -0.12826869253E+02 -0.14340005325E+03  0.19257594105E+03  0.12500000000E+03 0.  0.
         25    1    1    2    0    0 -0.37836290205E+02  0.18901153041E+03  0.70176055812E+02  0.24022202708E+03  0.12500000000E+03 0.  0.
</event>
<event>
 5    0  0.5778896E-005  0.2110044E+03  0.7546771E-02  0.1140773E+00
         21   -1    0    0  502  501  0.00000000000E+00  0.00000000000E+00  0.10262384382E+03  0.10262384382E+03  0.00000000000E+00 0.  1.
         21   -1    0    0  501  502 -0.00000000000E+00 -0.00000000000E+00 -0.43384501016E+03  0.43384501016E+03  0.00000000000E+00 0.  1.
         25    1    1    2    0    0 -0.43600202281E+02 -0.42897055921E+02 -0.10995567237E+03  0.17735947940E+03  0.12500000000E+03 0.  0.
         25    1    1    2    0    0  0.41230987867E+02  0.17075726776E+02 -0.18256062581E+03  0.22570989545E+03  0.12500000000E+03 0.  0.
         25    1    1    2    0    0  0.23692144141E+01  0.25821329145E+02 -0.38704868152E+02  0.13339947914E+03  0.12500000000E+03 0.  0.
</event>
<event>
 5    0  0.5778896E-005  0.2351793E+03  0.7546771E-02  0.1123047E+00
         21   -1    0    0  502  501  0.00000000000E+00  0.00000000000E+00  0.56140618549E+03  0.56140618549E+03  0.00000000000E+00 0.  1.
         21   -1    0    0  501  502 -0.00000000000E+00 -0.00000000000E+00 -0.98519189063E+02  0.98519189063E+02  0.00000000000E+00 0.  1.
         25    1    1    2    0    0  0.84092862334E+02  0.87208806400E+00  0.17382063440E+03  0.23002387480E+03  0.12500000000E+03 0.  0.
         25    1    1    2    0    0 -0.76014218486E+02  0.63087429701E+02  0.80921817077E+02  0.17869394415E+03  0.12500000000E+03 0.  0.
         25    1    1    2    0    0 -0.80786438483E+01 -0.63959517765E+02  0.20814454495E+03  0.25120755560E+03  0.12500000000E+03 0.  0.
</event>
<event>
 5    0  0.5778896E-005  0.2341298E+03  0.7546771E-02  0.1123766E+00
         21   -1    0    0  502  501  0.00000000000E+00  0.00000000000E+00  0.62210346288E+03  0.62210346288E+03  0.00000000000E+00 0.  1.
         21   -1    0    0  501  502 -0.00000000000E+00 -0.00000000000E+00 -0.88115211728E+02  0.88115211728E+02  0.00000000000E+00 0.  1.
         25    1    1    2    0    0  0.74829547736E+02  0.63659591588E+02  0.15739280188E+03  0.22371745327E+03  0.12500000000E+03 0.  0.
         25    1    1    2    0    0 -0.38378245456E+02 -0.96338723415E+02  0.13978658709E+03  0.21428795879E+03  0.12500000000E+03 0.  0.
         25    1    1    2    0    0 -0.36451302280E+02  0.32679131827E+02  0.23680886219E+03  0.27221326255E+03  0.12500000000E+03 0.  0.
</event>
<event>
 5    0  0.5778896E-005  0.3024909E+03  0.7546771E-02  0.1084002E+00
         21   -1    0    0  502  501  0.00000000000E+00  0.00000000000E+00  0.64555271336E+03  0.64555271336E+03  0.00000000000E+00 0.  1.
         21   -1    0    0  501  502 -0.00000000000E+00 -0.00000000000E+00 -0.14174018173E+03  0.14174018173E+03  0.00000000000E+00 0.  1.
         25    1    1    2    0    0 -0.25091955993E+02  0.71804044245E+02 -0.32147726280E+02  0.14981289441E+03  0.12500000000E+03 0.  0.
         25    1    1    2    0    0  0.96037649598E+02  0.30939813452E+01  0.14478141187E+03  0.21405480626E+03  0.12500000000E+03 0.  0.
         25    1    1    2    0    0 -0.70945693605E+02 -0.74898025591E+02  0.39117884605E+03  0.42342519442E+03  0.12500000000E+03 0.  0.
</event>
<event>
 5    0  0.5778896E-005  0.2407891E+03  0.7546771E-02  0.1119268E+00
         21   -1    0    0  502  501  0.00000000000E+00  0.00000000000E+00  0.49089668519E+03  0.49089668519E+03  0.00000000000E+00 0. -1.
         21   -1    0    0  501  502 -0.00000000000E+00 -0.00000000000E+00 -0.11810914362E+03  0.11810914362E+03  0.00000000000E+00 0. -1.
         25    1    1    2    0    0  0.59869725344E+02  0.33931218150E+02  0.87794654302E+02  0.16753690012E+03  0.12500000000E+03 0.  0.
         25    1    1    2    0    0  0.75899779553E+02 -0.13075300690E+02  0.16241263066E+03  0.21893972372E+03  0.12500000000E+03 0.  0.
         25    1    1    2    0    0 -0.13576950490E+03 -0.20855917460E+02  0.12258025661E+03  0.22252920497E+03  0.12500000000E+03 0.  0.
</event>
<event>
 5    0  0.5778896E-005  0.3806555E+03  0.7546771E-02  0.1050692E+00
         21   -1    0    0  502  501  0.00000000000E+00  0.00000000000E+00  0.33690024601E+04  0.33690024601E+04  0.00000000000E+00 0. -1.
         21   -1    0    0  501  502 -0.00000000000E+00 -0.00000000000E+00 -0.43009344847E+02  0.43009344847E+02  0.00000000000E+00 0. -1.
         25    1    1    2    0    0 -0.86212178566E+02 -0.11957260781E+03  0.85983327306E+03  0.88128792443E+03  0.12500000000E+03 0.  0.
         25    1    1    2    0    0  0.56869909199E+02  0.18540928357E+03  0.22962458109E+04  0.23078086171E+04  0.12500000000E+03 0.  0.
         25    1    1    2    0    0  0.29342269367E+02 -0.65836675754E+02  0.16991403130E+03  0.22291526345E+03  0.12500000000E+03 0.  0.
</event>
<event>
 5    0  0.5778896E-005  0.2572841E+03  0.7546771E-02  0.1108786E+00
         21   -1    0    0  502  501  0.00000000000E+00  0.00000000000E+00  0.15328754244E+04  0.15328754244E+04  0.00000000000E+00 0.  1.
         21   -1    0    0  501  502 -0.00000000000E+00 -0.00000000000E+00 -0.43183624714E+02  0.43183624714E+02  0.00000000000E+00 0.  1.
         25    1    1    2    0    0 -0.62306067029E+02 -0.54884226035E+02  0.89673581953E+03  0.90920539719E+03  0.12500000000E+03 0.  0.
         25    1    1    2    0    0  0.52009599761E+01  0.38695057137E+02  0.44674684096E+03  0.46554494664E+03  0.12500000000E+03 0.  0.
         25    1    1    2    0    0  0.57105107053E+02  0.16189168898E+02  0.14620913922E+03  0.20130870531E+03  0.12500000000E+03 0.  0.
</event>
<event>
 5    0  0.5778896E-005  0.4364445E+03  0.7546771E-02  0.1031843E+00
         21   -1    0    0  502  501  0.00000000000E+00  0.00000000000E+00  0.65911295571E+02  0.65911295571E+02  0.00000000000E+00 0.  1.
         21   -1    0    0  501  502 -0.00000000000E+00 -0.00000000000E+00 -0.28900019156E+04  0.28900019156E+04  0.00000000000E+00 0.  1.
         25    1    1    2    0    0 -0.12517861371E+03 -0.17470910014E+03 -0.96944500613E+03  0.10008204509E+04  0.12500000000E+03 0.  0.
         25    1    1    2    0    0  0.16426269711E+03  0.42232031984E+02 -0.20166982417E+03  0.29165304073E+03  0.12500000000E+03 0.  0.
         25    1    1    2    0    0 -0.39084083395E+02  0.13247706816E+03 -0.16529757897E+04  0.16634397195E+04  0.12500000000E+03 0.  0.
</event>
<event>
 5    0  0.6224616E-005  0.3120076E+03  0.7546771E-02  0.1079388E+00
         21   -1    0    0  502  501  0.00000000000E+00  0.00000000000E+00  0.16886677371E+03  0.16886677371E+03  0.00000000000E+00 0.  1.
         21   -1    0    0  501  502 -0.00000000000E+00 -0.00000000000E+00 -0.57648261956E+03  0.57648261956E+03  0.00000000000E+00 0.  1.
         25    1    1    2    0    0  0.13789914071E+03 -0.63792290615E+02 -0.58668423085E+02  0.20531101582E+03  0.12500000000E+03 0.  0.
         25    1    1    2    0    0 -0.98786485527E+02 -0.81906249573E+01  0.97478296323E+00  0.15953622241E+03  0.12500000000E+03 0.  0.
         25    1    1    2    0    0 -0.39112655179E+02  0.71982915572E+02 -0.34992220573E+03  0.38050215504E+03  0.12500000000E+03 0.  0.
</event>
<event>
 5    0  0.5778896E-005  0.3809398E+03  0.7546771E-02  0.1050587E+00
         21   -1    0    0  502  501  0.00000000000E+00  0.00000000000E+00  0.39835104010E+03  0.39835104010E+03  0.00000000000E+00 0. -1.
         21   -1    0    0  501  502 -0.00000000000E+00 -0.00000000000E+00 -0.36428950635E+03  0.36428950635E+03  0.00000000000E+00 0. -1.
         25    1    1    2    0    0 -0.85837667707E+02  0.73101221274E+02  0.44518840032E+02  0.17412300499E+03  0.12500000000E+03 0.  0.
         25    1    1    2    0    0  0.17744216781E+03  0.17715295892E+03  0.58466422477E+02  0.28620310328E+03  0.12500000000E+03 0.  0.
         25    1    1    2    0    0 -0.91604500099E+02 -0.25025418019E+03 -0.68923728755E+02  0.30231443817E+03  0.12500000000E+03 0.  0.
</event>
<event>
 5    0  0.5778896E-005  0.2368979E+03  0.7546771E-02  0.1121877E+00
         21   -1    0    0  502  501  0.00000000000E+00  0.00000000000E+00  0.16853423766E+04  0.16853423766E+04  0.00000000000E+00 0.  1.
         21   -1    0    0  501  502 -0.00000000000E+00 -0.00000000000E+00 -0.33299231237E+02  0.33299231237E+02  0.00000000000E+00 0.  1.
         25    1    1    2    0    0  0.77096466948E+02 -0.24110129581E+02  0.34700350567E+03  0.37757329952E+03  0.12500000000E+03 0.  0.
         25    1    1    2    0    0  0.37186167697E+02  0.44733278487E+02  0.61142023654E+03  0.62677235335E+03  0.12500000000E+03 0.  0.
         25    1    1    2    0    0 -0.11428263464E+03 -0.20623148906E+02  0.69361940320E+03  0.71429595501E+03  0.12500000000E+03 0.  0.
</event>
<event>
 5    0  0.5778896E-005  0.3715860E+03  0.7546771E-02  0.1054088E+00
         21   -1    0    0  502  501  0.00000000000E+00  0.00000000000E+00  0.90961619791E+03  0.90961619791E+03  0.00000000000E+00 0. -1.
         21   -1    0    0  501  502 -0.00000000000E+00 -0.00000000000E+00 -0.15179609228E+03  0.15179609228E+03  0.00000000000E+00 0. -1.
         25    1    1    2    0    0  0.11612820581E+03 -0.18169096256E+03  0.51899813386E+03  0.57574423923E+03  0.12500000000E+03 0.  0.
         25    1    1    2    0    0 -0.16741691769E+03  0.30647034355E+02  0.17176342461E+03  0.27220459048E+03  0.12500000000E+03 0.  0.
         25    1    1    2    0    0  0.51288711887E+02  0.15104392821E+03  0.67058547165E+02  0.21346346049E+03  0.12500000000E+03 0.  0.
</event>
<event>
 5    0  0.5778896E-005  0.3288662E+03  0.7546771E-02  0.1071640E+00
         21   -1    0    0  502  501  0.00000000000E+00  0.00000000000E+00  0.11887408145E+03  0.11887408145E+03  0.00000000000E+00 0. -1.
         21   -1    0    0  501  502 -0.00000000000E+00 -0.00000000000E+00 -0.90981150930E+03  0.90981150930E+03  0.00000000000E+00 0. -1.
         25    1    1    2    0    0  0.10690786522E+02  0.12856463428E+03 -0.39339500135E+02  0.18389060437E+03  0.12500000000E+03 0.  0.
         25    1    1    2    0    0 -0.70485552285E+02 -0.11520271097E+03 -0.64131753149E+03  0.66719791208E+03  0.12500000000E+03 0.  0.
         25    1    1    2    0    0  0.59794765762E+02 -0.13361923306E+02 -0.11028039623E+03  0.17759707430E+03  0.12500000000E+03 0.  0.
</event>
<event>
 5    0  0.5778896E-005  0.2967686E+03  0.7546771E-02  0.1086867E+00
         21   -1    0    0  502  501  0.00000000000E+00  0.00000000000E+00  0.27578274638E+03  0.27578274638E+03  0.00000000000E+00 0. -1.
         21   -1    0    0  501  502 -0.00000000000E+00 -0.00000000000E+00 -0.31935140611E+03  0.31935140611E+03  0.00000000000E+00 0. -1.
         25    1    1    2    0    0  0.68781870482E+02 -0.48162241674E+02  0.11987824102E+03  0.19247425776E+03  0.12500000000E+03 0.  0.
         25    1    1    2    0    0 -0.14889808334E+02  0.20921972519E+02 -0.21873166682E+03  0.25323502403E+03  0.12500000000E+03 0.  0.
         25    1    1    2    0    0 -0.53892062148E+02  0.27240269155E+02  0.55284766066E+02  0.14942487071E+03  0.12500000000E+03 0.  0.
</event>
<event>
 5    0  0.5778896E-005  0.4199109E+03  0.7546771E-02  0.1037095E+00
         21   -1    0    0  502  501  0.00000000000E+00  0.00000000000E+00  0.50733570567E+03  0.50733570567E+03  0.00000000000E+00 0.  1.
         21   -1    0    0  501  502 -0.00000000000E+00 -0.00000000000E+00 -0.34755118087E+03  0.34755118087E+03  0.00000000000E+00 0.  1.
         25    1    1    2    0    0 -0.16967976810E+02 -0.29391368909E+03  0.25904754270E+03  0.41158692672E+03  0.12500000000E+03 0.  0.
         25    1    1    2    0    0 -0.86478449456E+02  0.13302888706E+03 -0.27827907633E+02  0.20389850283E+03  0.12500000000E+03 0.  0.
         25    1    1    2    0    0  0.10344642627E+03  0.16088480203E+03 -0.71435110267E+02  0.23940145699E+03  0.12500000000E+03 0.  0.
</event>
<event>
 5    0  0.5778896E-005  0.3582536E+03  0.7546771E-02  0.1059277E+00
         21   -1    0    0  502  501  0.00000000000E+00  0.00000000000E+00  0.69924635539E+03  0.69924635539E+03  0.00000000000E+00 0.  1.
         21   -1    0    0  501  502 -0.00000000000E+00 -0.00000000000E+00 -0.18354855314E+03  0.18354855314E+03  0.00000000000E+00 0.  1.
         25    1    1    2    0    0 -0.65233732047E+02 -0.16423504741E+03  0.14372001794E+02  0.21693350370E+03  0.12500000000E+03 0.  0.
         25    1    1    2    0    0  0.58792023982E+02  0.54250494922E+02  0.47440733820E+03  0.49707840510E+03  0.12500000000E+03 0.  0.
         25    1    1    2    0    0  0.64417080650E+01  0.10998455248E+03  0.26918462257E+02  0.16878299973E+03  0.12500000000E+03 0.  0.
</event>
<event>
 5    0  0.5778896E-005  0.2818421E+03  0.7546771E-02  0.1094687E+00
         21   -1    0    0  502  501  0.00000000000E+00  0.00000000000E+00  0.15523913241E+03  0.15523913241E+03  0.00000000000E+00 0.  1.
         21   -1    0    0  501  502 -0.00000000000E+00 -0.00000000000E+00 -0.51169423746E+03  0.51169423746E+03  0.00000000000E+00 0.  1.
         25    1    1    2    0    0 -0.83255502793E+01  0.80210180389E+01  0.33645770014E+02  0.12996418490E+03  0.12500000000E+03 0.  0.
         25    1    1    2    0    0  0.98284762152E+02  0.53904923462E+02 -0.81671901044E+02  0.18671083168E+03  0.12500000000E+03 0.  0.
         25    1    1    2    0    0 -0.89959211873E+02 -0.61925941501E+02 -0.30842897402E+03  0.35025835329E+03  0.12500000000E+03 0.  0.
</event>
<event>
 5    0  0.5778896E-005  0.3793211E+03  0.7546771E-02  0.1051185E+00
         21   -1    0    0  502  501  0.00000000000E+00  0.00000000000E+00  0.10802805621E+03  0.10802805621E+03  0.00000000000E+00 0.  1.
         21   -1    0    0  501  502 -0.00000000000E+00 -0.00000000000E+00 -0.13319180782E+04  0.13319180782E+04  0.00000000000E+00 0.  1.
         25    1    1    2    0    0 -0.80146894274E+02 -0.13566530573E+03 -0.63701839325E+03  0.66801649170E+03  0.12500000000E+03 0.  0.
         25    1    1    2    0    0  0.21431759474E+03  0.14200923108E+03 -0.21651246333E+03  0.35861023397E+03  0.12500000000E+03 0.  0.
         25    1    1    2    0    0 -0.13417070046E+03 -0.63439253536E+01 -0.37035916545E+03  0.41331940879E+03  0.12500000000E+03 0.  0.
</event>
<event>
 5    0  0.5790979E-005  0.2543395E+03  0.7546771E-02  0.1110593E+00
         21   -1    0    0  502  501  0.00000000000E+00  0.00000000000E+00  0.13577647275E+03  0.13577647275E+03  0.00000000000E+00 0.  1.
         21   -1    0    0  501  502 -0.00000000000E+00 -0.00000000000E+00 -0.47643441757E+03  0.47643441757E+03  0.00000000000E+00 0.  1.
         25    1    1    2    0    0 -0.13735984063E+03 -0.57131366554E+02 -0.16714945874E+03  0.25631164707E+03  0.12500000000E+03 0.  0.
         25    1    1    2    0    0  0.26068193147E+02  0.22482476233E+02 -0.12037183380E+03  0.17691633843E+03  0.12500000000E+03 0.  0.
         25    1    1    2    0    0  0.11129164749E+03  0.34648890321E+02 -0.53136652283E+02  0.17898290482E+03  0.12500000000E+03 0.  0.
</event>
<event>
 5    0  0.5778896E-005  0.3916492E+03  0.7546771E-02  0.1046710E+00
         21   -1    0    0  502  501  0.00000000000E+00  0.00000000000E+00  0.39166796336E+03  0.39166796336E+03  0.00000000000E+00 0. -1.
         21   -1    0    0  501  502 -0.00000000000E+00 -0.00000000000E+00 -0.39163039391E+03  0.39163039391E+03  0.00000000000E+00 0. -1.
         25    1    1    2    0    0  0.28557308011E+02 -0.22531591143E+03 -0.37002899977E+02  0.26187209548E+03  0.12500000000E+03 0.  0.
         25    1    1    2    0    0 -0.10825254596E+03 -0.67366493667E+02 -0.43127132603E+02  0.18368943285E+03  0.12500000000E+03 0.  0.
         25    1    1    2    0    0  0.79695237948E+02  0.29268240510E+03  0.80167602035E+02  0.33773682894E+03  0.12500000000E+03 0.  0.
</event>
<event>
 5    0  0.5778896E-005  0.3683178E+03  0.7546771E-02  0.1055338E+00
         21   -1    0    0  502  501  0.00000000000E+00  0.00000000000E+00  0.80575223030E+03  0.80575223030E+03  0.00000000000E+00 0.  1.
         21   -1    0    0  501  502 -0.00000000000E+00 -0.00000000000E+00 -0.16836189072E+03  0.16836189072E+03  0.00000000000E+00 0.  1.
         25    1    1    2    0    0 -0.73706481997E+02  0.11802731426E+03  0.53690174414E+03  0.56855217461E+03  0.12500000000E+03 0.  0.
         25    1    1    2    0    0  0.42606177727E+02 -0.19434792107E+03  0.20636049181E+02  0.23587549116E+03  0.12500000000E+03 0.  0.
         25    1    1    2    0    0  0.31100304269E+02  0.76320606812E+02  0.79852546255E+02  0.16968645524E+03  0.12500000000E+03 0.  0.
</event>
<event>
 5    0  0.5778896E-005  0.2155195E+03  0.7546771E-02  0.1137268E+00
         21   -1    0    0  502  501  0.00000000000E+00  0.00000000000E+00  0.21046578188E+03  0.21046578188E+03  0.00000000000E+00 0. -1.
         21   -1    0    0  501  502 -0.00000000000E+00 -0.00000000000E+00 -0.22069455827E+03  0.22069455827E+03  0.00000000000E+00 0. -1.
         25    1    1    2    0    0 -0.24448785236E+01  0.57691892444E+02 -0.23424518553E+02  0.13967118512E+03  0.12500000000E+03 0.  0.
         25    1    1    2    0    0 -0.49340915673E+02  0.18143068118E+02  0.14502057864E+02  0.13637817480E+03  0.12500000000E+03 0.  0.
         25    1    1    2    0    0  0.51785794197E+02 -0.75834960562E+02 -0.13063157027E+01  0.15511098022E+03  0.12500000000E+03 0.  0.
</event>
<event>
 5    0  0.5778896E-005  0.3371327E+03  0.7546771E-02  0.1068024E+00
         21   -1    0    0  502  501  0.00000000000E+00  0.00000000000E+00  0.12028837777E+03  0.12028837777E+03  0.00000000000E+00 0.  1.
         21   -1    0    0  501  502 -0.00000000000E+00 -0.00000000000E+00 -0.94488335538E+03  0.94488335538E+03  0.00000000000E+00 0.  1.
         25    1    1    2    0    0  0.12994281281E+03 -0.69000960142E+02 -0.29987767880E+03  0.35664813100E+03  0.12500000000E+03 0.  0.
         25    1    1    2    0    0 -0.12027011300E+03  0.19098897340E+03 -0.15884051693E+03  0.30298019384E+03  0.12500000000E+03 0.  0.
         25    1    1    2    0    0 -0.96726998023E+01 -0.12198801326E+03 -0.36587678189E+03  0.40554340832E+03  0.12500000000E+03 0.  0.
</event>
<event>
 5    0  0.5778896E-005  0.3988074E+03  0.7546771E-02  0.1044193E+00
         21   -1    0    0  502  501  0.00000000000E+00  0.00000000000E+00  0.30899471612E+03  0.30899471612E+03  0.00000000000E+00 0. -1.
         21   -1    0    0  501  502 -0.00000000000E+00 -0.00000000000E+00 -0.51472506677E+03  0.51472506677E+03  0.00000000000E+00 0. -1.
         25    1    1    2    0    0 -0.48817224778E+02  0.23882114033E+03 -0.33496747198E+03  0.43272030896E+03  0.12500000000E+03 0.  0.
         25    1    1    2    0    0 -0.27226021624E+02 -0.13658118891E+03  0.39686737201E+02  0.19130006410E+03  0.12500000000E+03 0.  0.
         25    1    1    2    0    0  0.76043246402E+02 -0.10223995142E+03  0.89550384120E+02  0.19969940983E+03  0.12500000000E+03 0.  0.
</event>
<event>
 5    0  0.7757705E-005  0.2718309E+03  0.7546771E-02  0.1100236E+00
         21   -1    0    0  502  501  0.00000000000E+00  0.00000000000E+00  0.12198177827E+03  0.12198177827E+03  0.00000000000E+00 0. -1.
         21   -1    0    0  501  502 -0.00000000000E+00 -0.00000000000E+00 -0.60576298785E+03  0.60576298785E+03  0.00000000000E+00 0. -1.
         25    1    1    2    0    0 -0.66609511303E+02 -0.86728214913E+02 -0.16484298840E+02  0.16689919822E+03  0.12500000000E+03 0.  0.
         25    1    1    2    0    0 -0.28313686511E+02  0.70662243289E+02 -0.28006269921E+03  0.31599831164E+03  0.12500000000E+03 0.  0.
         25    1    1    2    0    0  0.94923197814E+02  0.16065971623E+02 -0.18723421154E+03  0.24484725626E+03  0.12500000000E+03 0.  0.
</event>
<event>
 5    0  0.5778896E-005  0.3264715E+03  0.7546771E-02  0.1072709E+00
         21   -1    0    0  502  501  0.00000000000E+00  0.00000000000E+00  0.69099060022E+03  0.69099060022E+03  0.00000000000E+00 0. -1.
         21   -1    0    0  501  502 -0.00000000000E+00 -0.00000000000E+00 -0.15424757449E+03  0.15424757449E+03  0.00000000000E+00 0. -1.
         25    1    1    2    0    0  0.40948385231E+02 -0.56242567311E+02  0.96635766581E+02  0.17263680956E+03  0.12500000000E+03 0.  0.
         25    1    1    2    0    0 -0.12215102024E+03  0.16874235569E+03  0.41943520724E+03  0.48471202525E+03  0.12500000000E+03 0.  0.
         25    1    1    2    0    0  0.81202635008E+02 -0.11249978838E+03  0.20672051909E+02  0.18788933990E+03  0.12500000000E+03 0.  0.
</event>
<event>
 5    0  0.5778896E-005  0.2584074E+03  0.7546771E-02  0.1108104E+00
         21   -1    0    0  502  501  0.00000000000E+00  0.00000000000E+00  0.21797863542E+03  0.21797863542E+03  0.00000000000E+00 0.  1.
         21   -1    0    0  501  502 -0.00000000000E+00 -0.00000000000E+00 -0.30633461501E+03  0.30633461501E+03  0.00000000000E+00 0.  1.
         25    1    1    2    0    0  0.11363790132E+03 -0.51713100060E+02 -0.22049977699E+02  0.17804218278E+03  0.12500000000E+03 0.  0.
         25    1    1    2    0    0 -0.12888968289E+03  0.43494242590E+02  0.30474285804E+02  0.18723776753E+03  0.12500000000E+03 0.  0.
         25    1    1    2    0    0  0.15251781574E+02  0.82188574695E+01 -0.96780287689E+02  0.15903330011E+03  0.12500000000E+03 0.  0.
</event>
<event>
 5    0  0.5778896E-005  0.2893404E+03  0.7546771E-02  0.1090694E+00
         21   -1    0    0  502  501  0.00000000000E+00  0.00000000000E+00  0.68602154312E+02  0.68602154312E+02  0.00000000000E+00 0. -1.
         21   -1    0    0  501  502 -0.00000000000E+00 -0.00000000000E+00 -0.12203386056E+04  0.12203386056E+04  0.00000000000E+00 0. -1.
         25    1    1    2    0    0 -0.51542810498E+02 -0.91583626035E+02 -0.30330613024E+03  0.34447616828E+03  0.12500000000E+03 0.  0.
         25    1    1    2    0    0 -0.12606522363E+03  0.37243896607E+01 -0.42365695420E+03  0.45936535190E+03  0.12500000000E+03 0.  0.
         25    1    1    2    0    0  0.17760803413E+03  0.87859236375E+02 -0.42477336687E+03  0.48509923975E+03  0.12500000000E+03 0.  0.
</event>
<event>
 5    0  0.5778896E-005  0.2229304E+03  0.7546771E-02  0.1131717E+00
         21   -1    0    0  502  501  0.00000000000E+00  0.00000000000E+00  0.34332849223E+03  0.34332849223E+03  0.00000000000E+00 0. -1.
         21   -1    0    0  501  502 -0.00000000000E+00 -0.00000000000E+00 -0.14475343180E+03  0.14475343180E+03  0.00000000000E+00 0. -1.
         25    1    1    2    0    0 -0.60654451619E+02  0.94682331972E+01  0.87258903060E+02  0.16434027536E+03  0.12500000000E+03 0.  0.
         25    1    1    2    0    0 -0.37808074233E+02 -0.45049002108E+02  0.73009388684E+02  0.15625054849E+03  0.12500000000E+03 0.  0.
         25    1    1    2    0    0  0.98462525852E+02  0.35580768910E+02  0.38306768683E+02  0.16749110018E+03  0.12500000000E+03 0.  0.
</event>
<event>
 5    0  0.5778896E-005  0.3605491E+03  0.7546771E-02  0.1058367E+00
         21   -1    0    0  502  501  0.00000000000E+00  0.00000000000E+00  0.17917638372E+03  0.17917638372E+03  0.00000000000E+00 0. -1.
         21   -1    0    0  501  502 -0.00000000000E+00 -0.00000000000E+00 -0.72551788718E+03  0.72551788718E+03  0.00000000000E+00 0. -1.
         25    1    1    2    0    0 -0.81900399218E+02  0.50939433365E+02 -0.93431096891E+02  0.18345809094E+03  0.12500000000E+03 0.  0.
         25    1    1    2    0    0 -0.19823237618E+02 -0.20418595222E+03 -0.28270690634E+02  0.24188653494E+03  0.12500000000E+03 0.  0.
         25    1    1    2    0    0  0.10172363684E+03  0.15324651886E+03 -0.42463971594E+03  0.47934964503E+03  0.12500000000E+03 0.  0.
</event>
<event>
 5    0  0.5778896E-005  0.5791796E+03  0.7546771E-02  0.9949569E-01
         21   -1    0    0  502  501  0.00000000000E+00  0.00000000000E+00  0.12067080933E+04  0.12067080933E+04  0.00000000000E+00 0. -1.
         21   -1    0    0  501  502 -0.00000000000E+00 -0.00000000000E+00 -0.27798683618E+03  0.27798683618E+03  0.00000000000E+00 0. -1.
         25    1    1    2    0    0  0.14295497222E+03  0.41851632143E+02 -0.91303260802E+02  0.21482311009E+03  0.12500000000E+03 0.  0.
         25    1    1    2    0    0 -0.29289872164E+03  0.11503856749E+03  0.95189862886E+03  0.10103264486E+04  0.12500000000E+03 0.  0.
         25    1    1    2    0    0  0.14994374943E+03 -0.15689019963E+03  0.68125889076E+02  0.25954537078E+03  0.12500000000E+03 0.  0.
</event>
<event>
 5    0  0.5778896E-005  0.4107954E+03  0.7546771E-02  0.1040104E+00
         21   -1    0    0  502  501  0.00000000000E+00  0.00000000000E+00  0.15198669924E+03  0.15198669924E+03  0.00000000000E+00 0. -1.
         21   -1    0    0  501  502 -0.00000000000E+00 -0.00000000000E+00 -0.11103134285E+04  0.11103134285E+04  0.00000000000E+00 0. -1.
         25    1    1    2    0    0  0.22351923069E+03  0.11432117472E+03 -0.24174025375E+03  0.37026143165E+03  0.12500000000E+03 0.  0.
         25    1    1    2    0    0 -0.32704294398E+03 -0.60742229363E+02 -0.53872878313E+03  0.64536842765E+03  0.12500000000E+03 0.  0.
         25    1    1    2    0    0  0.10352371329E+03 -0.53578945359E+02 -0.17785769243E+03  0.24667026848E+03  0.12500000000E+03 0.  0.
</event>
<event>
 5    0  0.5778896E-005  0.2359939E+03  0.7546771E-02  0.1122491E+00
         21   -1    0    0  502  501  0.00000000000E+00  0.00000000000E+00  0.19862864427E+03  0.19862864427E+03  0.00000000000E+00 0.  1.
         21   -1    0    0  501  502 -0.00000000000E+00 -0.00000000000E+00 -0.28038815451E+03  0.28038815451E+03  0.00000000000E+00 0.  1.
         25    1    1    2    0    0 -0.65607712502E+02  0.24455649907E+02  0.63156308892E+02  0.15657640341E+03  0.12500000000E+03 0.  0.
         25    1    1    2    0    0  0.18547139203E+02 -0.72971748851E+02 -0.74904381426E+02  0.16402603104E+03  0.12500000000E+03 0.  0.
         25    1    1    2    0    0  0.47060573299E+02  0.48516098944E+02 -0.70011437708E+02  0.15841436433E+03  0.12500000000E+03 0.  0.
</event>
<event>
 5    0  0.5778896E-005  0.2990726E+03  0.7546771E-02  0.1085705E+00
         21   -1    0    0  502  501  0.00000000000E+00  0.00000000000E+00  0.87789982311E+02  0.87789982311E+02  0.00000000000E+00 0. -1.
         21   -1    0    0  501  502 -0.00000000000E+00 -0.00000000000E+00 -0.10188453636E+04  0.10188453636E+04  0.00000000000E+00 0. -1.
         25    1    1    2    0    0  0.48212462982E+02 -0.98476211726E+01 -0.29493579974E+03  0.32408878906E+03  0.12500000000E+03 0.  0.
         25    1    1    2    0    0 -0.43499856686E+02 -0.74121800072E+02 -0.61132057187E+03  0.62986039753E+03  0.12500000000E+03 0.  0.
         25    1    1    2    0    0 -0.47126062955E+01  0.83969421245E+02 -0.24799009660E+02  0.15268615930E+03  0.12500000000E+03 0.  0.
</event>
<event>
 5    0  0.5778896E-005  0.5733595E+03  0.7546771E-02  0.9962272E-01
         21   -1    0    0  502  501  0.00000000000E+00  0.00000000000E+00  0.31819757200E+03  0.31819757200E+03  0.00000000000E+00 0.  1.
         21   -1    0    0  501  502 -0.00000000000E+00 -0.00000000000E+00 -0.10331353756E+04  0.10331353756E+04  0.00000000000E+00 0. -1.
         25    1    1    2    0    0 -0.13669783704E+03 -0.41295463103E+03 -0.30946367221E+03  0.54827966436E+03  0.12500000000E+03 0.  0.
         25    1    1    2    0    0  0.16400321119E+03  0.37535857658E+03 -0.59647213584E+02  0.43240479228E+03  0.12500000000E+03 0.  0.
         25    1    1    2    0    0 -0.27305374148E+02  0.37596054443E+02 -0.34582691781E+03  0.37064849096E+03  0.12500000000E+03 0.  0.
</event>
<event>
 5    0  0.5778896E-005  0.3266784E+03  0.7546771E-02  0.1072616E+00
         21   -1    0    0  502  501  0.00000000000E+00  0.00000000000E+00  0.34193636228E+03  0.34193636228E+03  0.00000000000E+00 0. -1.
         21   -1    0    0  501  502 -0.00000000000E+00 -0.00000000000E+00 -0.31210126799E+03  0.31210126799E+03  0.00000000000E+00 0. -1.
         25    1    1    2    0    0  0.22274088738E+03  0.28893248430E+01  0.34495226279E+02  0.25775331568E+03  0.12500000000E+03 0.  0.
         25    1    1    2    0    0 -0.17006871888E+03 -0.89852189109E+02  0.30362408861E+02  0.23139503215E+03  0.12500000000E+03 0.  0.
         25    1    1    2    0    0 -0.52672168495E+02  0.86962864266E+02 -0.35022540849E+02  0.16488928244E+03  0.12500000000E+03 0.  0.
</event>
<event>
 5    0  0.5778896E-005  0.3892621E+03  0.7546771E-02  0.1047563E+00
         21   -1    0    0  502  501  0.00000000000E+00  0.00000000000E+00  0.22033008089E+03  0.22033008089E+03  0.00000000000E+00 0. -1.
         21   -1    0    0  501  502 -0.00000000000E+00 -0.00000000000E+00 -0.68771825797E+03  0.68771825797E+03  0.00000000000E+00 0. -1.
         25    1    1    2    0    0 -0.13405568126E+03  0.53489626262E+02 -0.33172098976E+03  0.38274780319E+03  0.12500000000E+03 0.  0.
         25    1    1    2    0    0 -0.69074189249E+02  0.13698108898E+03 -0.20033470514E+02  0.19890048341E+03  0.12500000000E+03 0.  0.
         25    1    1    2    0    0  0.20312987051E+03 -0.19047071524E+03 -0.11563371681E+03  0.32640005227E+03  0.12500000000E+03 0.  0.
</event>
<event>
 5    0  0.5778896E-005  0.3682294E+03  0.7546771E-02  0.1055372E+00
         21   -1    0    0  502  501  0.00000000000E+00  0.00000000000E+00  0.19444914509E+03  0.19444914509E+03  0.00000000000E+00 0.  1.
         21   -1    0    0  501  502 -0.00000000000E+00 -0.00000000000E+00 -0.69731795983E+03  0.69731795983E+03  0.00000000000E+00 0.  1.
         25    1    1    2    0    0 -0.83233347217E+02  0.75379823995E+02 -0.55189943939E+03  0.57691238430E+03  0.12500000000E+03 0.  0.
         25    1    1    2    0    0  0.72367634087E+02 -0.71281343999E+02 -0.33635570526E+02  0.16454317388E+03  0.12500000000E+03 0.  0.
         25    1    1    2    0    0  0.10865713130E+02 -0.40984799960E+01  0.82666195181E+02  0.15031154675E+03  0.12500000000E+03 0.  0.
</event>
<event>
 5    0  0.5778896E-005  0.3116291E+03  0.7546771E-02  0.1079568E+00
         21   -1    0    0  502  501  0.00000000000E+00  0.00000000000E+00  0.15877611592E+03  0.15877611592E+03  0.00000000000E+00 0.  1.
         21   -1    0    0  501  502 -0.00000000000E+00 -0.00000000000E+00 -0.61163285828E+03  0.61163285828E+03  0.00000000000E+00 0.  1.
         25    1    1    2    0    0  0.11236665514E+03  0.12812392383E+03 -0.27547922363E+02  0.21313350997E+03  0.12500000000E+03 0.  0.
         25    1    1    2    0    0 -0.14155064631E+03 -0.38817597724E+02 -0.30129332964E+03  0.35769548760E+03  0.12500000000E+03 0.  0.
         25    1    1    2    0    0  0.29183991168E+02 -0.89306326103E+02 -0.12401549036E+03  0.19957997663E+03  0.12500000000E+03 0.  0.
</event>
<event>
 5    0  0.5778896E-005  0.2840123E+03  0.7546771E-02  0.1093517E+00
         21   -1    0    0  502  501  0.00000000000E+00  0.00000000000E+00  0.88791082446E+02  0.88791082446E+02  0.00000000000E+00 0.  1.
         21   -1    0    0  501  502 -0.00000000000E+00 -0.00000000000E+00 -0.90845829784E+03  0.90845829784E+03  0.00000000000E+00 0.  1.
         25    1    1    2    0    0  0.55609969179E+02 -0.45968269442E+02 -0.87788082831E+02  0.16892986105E+03  0.12500000000E+03 0.  0.
         25    1    1    2    0    0  0.32092775823E+01 -0.33796318384E+02 -0.69486898890E+02  0.14698952247E+03  0.12500000000E+03 0.  0.
         25    1    1    2    0    0 -0.58819246761E+02  0.79764587826E+02 -0.66239223367E+03  0.68132999676E+03  0.12500000000E+03 0.  0.
</event>
<event>
 5    0  0.5778896E-005  0.3739125E+03  0.7546771E-02  0.1053207E+00
         21   -1    0    0  502  501  0.00000000000E+00  0.00000000000E+00  0.48269284789E+03  0.48269284789E+03  0.00000000000E+00 0.  1.
         21   -1    0    0  501  502 -0.00000000000E+00 -0.00000000000E+00 -0.28964699828E+03  0.28964699828E+03  0.00000000000E+00 0.  1.
         25    1    1    2    0    0 -0.76244610917E+02  0.11872947832E+03  0.82496225103E+02  0.20576821152E+03  0.12500000000E+03 0.  0.
         25    1    1    2    0    0 -0.36677579972E+02  0.17330537383E+03  0.21478401369E+02  0.21786766441E+03  0.12500000000E+03 0.  0.
         25    1    1    2    0    0  0.11292219089E+03 -0.29203485215E+03  0.89071223141E+02  0.34870397024E+03  0.12500000000E+03 0.  0.
</event>
<event>
 5    0  0.5778896E-005  0.4227361E+03  0.7546771E-02  0.1036179E+00
         21   -1    0    0  502  501  0.00000000000E+00  0.00000000000E+00  0.20905529380E+03  0.20905529380E+03  0.00000000000E+00 0.  1.
         21   -1    0    0  501  502 -0.00000000000E+00 -0.00000000000E+00 -0.85482538742E+03  0.85482538742E+03  0.00000000000E+00 0.  1.
         25    1    1    2    0    0 -0.35897936342E+03 -0.79114442238E+02 -0.31712670420E+03  0.50131788802E+03  0.12500000000E+03 0.  0.
         25    1    1    2    0    0  0.14914342680E+03 -0.11008226266E+02 -0.16209826185E+03  0.25350698077E+03  0.12500000000E+03 0.  0.
         25    1    1    2    0    0  0.20983593662E+03  0.90122668504E+02 -0.16654512757E+03  0.30905581242E+03  0.12500000000E+03 0.  0.
</event>
<event>
 5    0  0.5778896E-005  0.2765017E+03  0.7546771E-02  0.1097615E+00
         21   -1    0    0  502  501  0.00000000000E+00  0.00000000000E+00  0.34336746746E+03  0.34336746746E+03  0.00000000000E+00 0. -1.
         21   -1    0    0  501  502 -0.00000000000E+00 -0.00000000000E+00 -0.22265699352E+03  0.22265699352E+03  0.00000000000E+00 0.  1.
         25    1    1    2    0    0 -0.24964828723E+01  0.10818527591E+03 -0.20416392386E+02  0.16658966183E+03  0.12500000000E+03 0.  0.
         25    1    1    2    0    0 -0.75511747868E+02 -0.15488830805E+03  0.11725002228E+03  0.24303287794E+03  0.12500000000E+03 0.  0.
         25    1    1    2    0    0  0.78008230741E+02  0.46703032135E+02  0.23876844051E+02  0.15640192120E+03  0.12500000000E+03 0.  0.
</event>
<event>
 5    0  0.5778896E-005  0.4529002E+03  0.7546771E-02  0.1026861E+00
         21   -1    0    0  502  501  0.00000000000E+00  0.00000000000E+00  0.62489128069E+03  0.62489128069E+03  0.00000000000E+00 0. -1.
         21   -1    0    0  501  502 -0.00000000000E+00 -0.00000000000E+00 -0.32824678346E+03  0.32824678346E+03  0.00000000000E+00 0. -1.
         25    1    1    2    0    0 -0.34386608670E+01 -0.28141435485E+03  0.28500326345E+03  0.41959233034E+03  0.12500000000E+03 0.  0.
         25    1    1    2    0    0 -0.14626741675E+03  0.21392070397E+03 -0.92709804466E+02  0.30228518428E+03  0.12500000000E+03 0.  0.
         25    1    1    2    0    0  0.14970607762E+03  0.67493650888E+02  0.10435103825E+03  0.23126054953E+03  0.12500000000E+03 0.  0.
</event>
<event>
 5    0  0.5778896E-005  0.2575457E+03  0.7546771E-02  0.1108627E+00
         21   -1    0    0  502  501  0.00000000000E+00  0.00000000000E+00  0.27917749660E+03  0.27917749660E+03  0.00000000000E+00 0. -1.
         21   -1    0    0  501  502 -0.00000000000E+00 -0.00000000000E+00 -0.23758994864E+03  0.23758994864E+03  0.00000000000E+00 0. -1.
         25    1    1    2    0    0 -0.38781708792E+02  0.13615506026E+03  0.66224159852E+02  0.20013210817E+03  0.12500000000E+03 0.  0.
         25    1    1    2    0    0 -0.16683958657E+02 -0.11661972391E+03 -0.43561368346E+02  0.17720357585E+03  0.12500000000E+03 0.  0.
         25    1    1    2    0    0  0.55465667449E+02 -0.19535336359E+02  0.18924756451E+02  0.13943176123E+03  0.12500000000E+03 0.  0.
</event>
<event>
 5    0  0.5778896E-005  0.6711276E+03  0.7546771E-02  0.9767923E-01
         21   -1    0    0  502  501  0.00000000000E+00  0.00000000000E+00  0.19791692795E+03  0.19791692795E+03  0.00000000000E+00 0.  1.
         21   -1    0    0  501  502 -0.00000000000E+00 -0.00000000000E+00 -0.22757639690E+04  0.22757639690E+04  0.00000000000E+00 0.  1.
         25    1    1    2    0    0  0.28299881646E+03  0.24058638070E+03 -0.42157432542E+03  0.57560407274E+03  0.12500000000E+03 0.  0.
         25    1    1    2    0    0  0.50485463570E+02 -0.32314480035E+03 -0.21436877769E+03  0.41054879963E+03  0.12500000000E+03 0.  0.
         25    1    1    2    0    0 -0.33348428003E+03  0.82558419649E+02 -0.14419039379E+04  0.14875280246E+04  0.12500000000E+03 0.  0.
</event>
<event>
 5    0  0.5778896E-005  0.2424341E+03  0.7546771E-02  0.1118182E+00
         21   -1    0    0  502  501  0.00000000000E+00  0.00000000000E+00  0.49188111469E+03  0.49188111469E+03  0.00000000000E+00 0. -1.
         21   -1    0    0  501  502 -0.00000000000E+00 -0.00000000000E+00 -0.11948882010E+03  0.11948882010E+03  0.00000000000E+00 0. -1.
         25    1    1    2    0    0 -0.26602888483E+02  0.62314903638E+02  0.24056867817E+03  0.27944435905E+03  0.12500000000E+03 0.  0.
         25    1    1    2    0    0  0.18771846484E+02 -0.20788864058E+02  0.15163020246E+03  0.19849755008E+03  0.12500000000E+03 0.  0.
         25    1    1    2    0    0  0.78310419989E+01 -0.41526039581E+02 -0.19806586040E+02  0.13342802566E+03  0.12500000000E+03 0.  0.
</event>
<event>
 5    0  0.5778896E-005  0.3464681E+03  0.7546771E-02  0.1064074E+00
         21   -1    0    0  502  501  0.00000000000E+00  0.00000000000E+00  0.56715048520E+03  0.56715048520E+03  0.00000000000E+00 0.  1.
         21   -1    0    0  501  502 -0.00000000000E+00 -0.00000000000E+00 -0.21165478368E+03  0.21165478368E+03  0.00000000000E+00 0.  1.
         25    1    1    2    0    0  0.11992124733E+02 -0.37465360314E+02 -0.89959320980E+01  0.13135216433E+03  0.12500000000E+03 0.  0.
         25    1    1    2    0    0 -0.85636498311E+02  0.28514113081E+02 -0.84291012482E+02  0.17571749848E+03  0.12500000000E+03 0.  0.
         25    1    1    2    0    0  0.73644373578E+02  0.89512472334E+01  0.44878264610E+03  0.47173560606E+03  0.12500000000E+03 0.  0.
</event>
<event>
 5    0  0.5778896E-005  0.5906148E+03  0.7546771E-02  0.9925071E-01
         21   -1    0    0  502  501  0.00000000000E+00  0.00000000000E+00  0.16161700933E+03  0.16161700933E+03  0.00000000000E+00 0. -1.
         21   -1    0    0  501  502 -0.00000000000E+00 -0.00000000000E+00 -0.21583485229E+04  0.21583485229E+04  0.00000000000E+00 0. -1.
         25    1    1    2    0    0 -0.39863265706E+03  0.48412168741E+01 -0.14156617322E+04  0.14760266166E+04  0.12500000000E+03 0.  0.
         25    1    1    2    0    0 -0.35422843089E+02  0.31086021394E+02 -0.42670071145E+02  0.14023855928E+03  0.12500000000E+03 0.  0.
         25    1    1    2    0    0  0.43405550015E+03 -0.35927238268E+02 -0.53839971018E+03  0.70370035639E+03  0.12500000000E+03 0.  0.
</event>
<event>
 5    0  0.5778896E-005  0.3389217E+03  0.7546771E-02  0.1067256E+00
         21   -1    0    0  502  501  0.00000000000E+00  0.00000000000E+00  0.29464162162E+03  0.29464162162E+03  0.00000000000E+00 0.  1.
         21   -1    0    0  501  502 -0.00000000000E+00 -0.00000000000E+00 -0.38985642014E+03  0.38985642014E+03  0.00000000000E+00 0.  1.
         25    1    1    2    0    0  0.67974990941E+02  0.10454888980E+03 -0.23506553561E+03  0.29399298594E+03  0.12500000000E+03 0.  0.
         25    1    1    2    0    0 -0.14531143750E+03 -0.15890536160E+02  0.62602681846E+02  0.20226719651E+03  0.12500000000E+03 0.  0.
         25    1    1    2    0    0  0.77336446562E+02 -0.88658353640E+02  0.77248055254E+02  0.18823785931E+03  0.12500000000E+03 0.  0.
</event>
<event>
 5    0  0.5778896E-005  0.2454511E+03  0.7546771E-02  0.1116214E+00
         21   -1    0    0  502  501  0.00000000000E+00  0.00000000000E+00  0.90413240140E+02  0.90413240140E+02  0.00000000000E+00 0.  1.
         21   -1    0    0  501  502 -0.00000000000E+00 -0.00000000000E+00 -0.66634296134E+03  0.66634296134E+03  0.00000000000E+00 0.  1.
         25    1    1    2    0    0  0.31249861469E+02 -0.50623949896E+02 -0.19611924804E+03  0.24005644669E+03  0.12500000000E+03 0.  0.
         25    1    1    2    0    0  0.53749388827E+02 -0.27276122757E+02 -0.29642818586E+03  0.32730360989E+03  0.12500000000E+03 0.  0.
         25    1    1    2    0    0 -0.84999250296E+02  0.77900072653E+02 -0.83382287301E+02  0.18939614491E+03  0.12500000000E+03 0.  0.
</event>
<event>
 5    0  0.5778896E-005  0.3390658E+03  0.7546771E-02  0.1067195E+00
         21   -1    0    0  502  501  0.00000000000E+00  0.00000000000E+00  0.13877990935E+04  0.13877990935E+04  0.00000000000E+00 0. -1.
         21   -1    0    0  501  502 -0.00000000000E+00 -0.00000000000E+00 -0.82840251196E+02  0.82840251196E+02  0.00000000000E+00 0. -1.
         25    1    1    2    0    0  0.24695195253E+03  0.80678891447E+01  0.81319405922E+03  0.85904594501E+03  0.12500000000E+03 0.  0.
         25    1    1    2    0    0 -0.86353327041E+02 -0.27902403403E+02  0.16412082784E+03  0.22537987341E+03  0.12500000000E+03 0.  0.
         25    1    1    2    0    0 -0.16059862549E+03  0.19834514259E+02  0.32764395520E+03  0.38621352623E+03  0.12500000000E+03 0.  0.
</event>
<event>
 5    0  0.5778896E-005  0.3547305E+03  0.7546771E-02  0.1060690E+00
         21   -1    0    0  502  501  0.00000000000E+00  0.00000000000E+00  0.14830820752E+04  0.14830820752E+04  0.00000000000E+00 0. -1.
         21   -1    0    0  501  502 -0.00000000000E+00 -0.00000000000E+00 -0.84846114449E+02  0.84846114449E+02  0.00000000000E+00 0. -1.
         25    1    1    2    0    0 -0.84452455155E+02 -0.13263026695E+03  0.16978240631E+03  0.26300963934E+03  0.12500000000E+03 0.  0.
         25    1    1    2    0    0  0.49525637609E+01 -0.87469047649E+02  0.26723830798E+03  0.30776074382E+03  0.12500000000E+03 0.  0.
         25    1    1    2    0    0  0.79499891394E+02  0.22009931460E+03  0.96121524650E+03  0.99715780653E+03  0.12500000000E+03 0.  0.
</event>
<event>
 5    0  0.6819906E-005  0.2481174E+03  0.7546771E-02  0.1114500E+00
         21   -1    0    0  502  501  0.00000000000E+00  0.00000000000E+00  0.32403357940E+03  0.32403357940E+03  0.00000000000E+00 0. -1.
         21   -1    0    0  501  502 -0.00000000000E+00 -0.00000000000E+00 -0.18998723217E+03  0.18998723217E+03  0.00000000000E+00 0. -1.
         25    1    1    2    0    0  0.39111331819E+02 -0.86507238805E+02  0.16078226529E+03  0.22469787599E+03  0.12500000000E+03 0.  0.
         25    1    1    2    0    0 -0.23933121502E+02  0.92261127816E+02  0.11466368643E+02  0.15761150853E+03  0.12500000000E+03 0.  0.
         25    1    1    2    0    0 -0.15178210317E+02 -0.57538890116E+01 -0.38202286704E+02  0.13171142705E+03  0.12500000000E+03 0.  0.
</event>
<event>
 5    0  0.5778896E-005  0.3505226E+03  0.7546771E-02  0.1062401E+00
         21   -1    0    0  502  501  0.00000000000E+00  0.00000000000E+00  0.34799887321E+03  0.34799887321E+03  0.00000000000E+00 0. -1.
         21   -1    0    0  501  502 -0.00000000000E+00 -0.00000000000E+00 -0.35306454733E+03  0.35306454733E+03  0.00000000000E+00 0. -1.
         25    1    1    2    0    0  0.60914756468E+02 -0.33333997340E+02 -0.22297055689E+03  0.26488229872E+03  0.12500000000E+03 0.  0.
         25    1    1    2    0    0  0.98291950635E+01  0.82732438322E+02 -0.22417451904E+02  0.15188420450E+03  0.12500000000E+03 0.  0.
         25    1    1    2    0    0 -0.70743951532E+02 -0.49398440982E+02  0.24032233468E+03  0.28429691732E+03  0.12500000000E+03 0.  0.
</event>
<event>
 5    0  0.5778896E-005  0.2208814E+03  0.7546771E-02  0.1133228E+00
         21   -1    0    0  502  501  0.00000000000E+00  0.00000000000E+00  0.37231793099E+03  0.37231793099E+03  0.00000000000E+00 0. -1.
         21   -1    0    0  501  502 -0.00000000000E+00 -0.00000000000E+00 -0.13104009154E+03  0.13104009154E+03  0.00000000000E+00 0. -1.
         25    1    1    2    0    0  0.15356434028E+01 -0.53153762330E+02  0.82234099784E+02  0.15879271966E+03  0.12500000000E+03 0.  0.
         25    1    1    2    0    0  0.21953194757E+02  0.94623558226E+02  0.13623878267E+03  0.20885776604E+03  0.12500000000E+03 0.  0.
         25    1    1    2    0    0 -0.23488838160E+02 -0.41469795896E+02  0.22804956994E+02  0.13570753683E+03  0.12500000000E+03 0.  0.
</event>
<event>
 5    0  0.5778896E-005  0.3206439E+03  0.7546771E-02  0.1075353E+00
         21   -1    0    0  502  501  0.00000000000E+00  0.00000000000E+00  0.11435218038E+04  0.11435218038E+04  0.00000000000E+00 0. -1.
         21   -1    0    0  501  502 -0.00000000000E+00 -0.00000000000E+00 -0.89908666399E+02  0.89908666399E+02  0.00000000000E+00 0. -1.
         25    1    1    2    0    0 -0.17486513326E+03 -0.17001677003E+03  0.34754004516E+03  0.44259755977E+03  0.12500000000E+03 0.  0.
         25    1    1    2    0    0  0.84691832088E+02  0.11171489056E+03  0.43148542307E+03  0.47059281074E+03  0.12500000000E+03 0.  0.
         25    1    1    2    0    0  0.90173301167E+02  0.58301879475E+02  0.27458766918E+03  0.32024009970E+03  0.12500000000E+03 0.  0.
</event>
<event>
 5    0  0.5778896E-005  0.3534973E+03  0.7546771E-02  0.1061189E+00
         21   -1    0    0  502  501  0.00000000000E+00  0.00000000000E+00  0.48001807348E+02  0.48001807348E+02  0.00000000000E+00 0. -1.
         21   -1    0    0  501  502 -0.00000000000E+00 -0.00000000000E+00 -0.26032419310E+04  0.26032419310E+04  0.00000000000E+00 0. -1.
         25    1    1    2    0    0  0.13868615935E+03 -0.15004426598E+02 -0.97805570978E+03  0.99582978216E+03  0.12500000000E+03 0.  0.
         25    1    1    2    0    0 -0.22733869291E+03 -0.97471766109E+02 -0.61399530473E+03  0.67364594611E+03  0.12500000000E+03 0.  0.
         25    1    1    2    0    0  0.88652533560E+02  0.11247619271E+03 -0.96318910917E+03  0.98176801010E+03  0.12500000000E+03 0.  0.
</event>
<event>
 5    0  0.5778896E-005  0.3615778E+03  0.7546771E-02  0.1057961E+00
         21   -1    0    0  502  501  0.00000000000E+00  0.00000000000E+00  0.35800265937E+03  0.35800265937E+03  0.00000000000E+00 0. -1.
         21   -1    0    0  501  502 -0.00000000000E+00 -0.00000000000E+00 -0.36518866340E+03  0.36518866340E+03  0.00000000000E+00 0. -1.
         25    1    1    2    0    0  0.63794288551E+02 -0.90457377907E+02  0.33758463091E+02  0.17034342459E+03  0.12500000000E+03 0.  0.
         25    1    1    2    0    0  0.31125356179E+02 -0.90131139280E+02  0.17165838097E+03  0.23277459016E+03  0.12500000000E+03 0.  0.
         25    1    1    2    0    0 -0.94919644730E+02  0.18058851719E+03 -0.21260284809E+03  0.32007330803E+03  0.12500000000E+03 0.  0.
</event>
<event>
 5    0  0.5778896E-005  0.2926159E+03  0.7546771E-02  0.1088991E+00
         21   -1    0    0  502  501  0.00000000000E+00  0.00000000000E+00  0.62619486095E+03  0.62619486095E+03  0.00000000000E+00 0.  1.
         21   -1    0    0  501  502 -0.00000000000E+00 -0.00000000000E+00 -0.13673711578E+03  0.13673711578E+03  0.00000000000E+00 0.  1.
         25    1    1    2    0    0  0.13467630532E+03  0.14223471282E+03  0.32764604876E+03  0.40167817219E+03  0.12500000000E+03 0.  0.
         25    1    1    2    0    0 -0.65117142049E+02 -0.38196078265E+02  0.69246166391E+02  0.16161439955E+03  0.12500000000E+03 0.  0.
         25    1    1    2    0    0 -0.69559163270E+02 -0.10403863455E+03  0.92565530027E+02  0.19963940499E+03  0.12500000000E+03 0.  0.
</event>
<event>
 5    0  0.5778896E-005  0.4353567E+03  0.7546771E-02  0.1032181E+00
         21   -1    0    0  502  501  0.00000000000E+00  0.00000000000E+00  0.88560602562E+03  0.88560602562E+03  0.00000000000E+00 0. -1.
         21   -1    0    0  501  502 -0.00000000000E+00 -0.00000000000E+00 -0.21401777981E+03  0.21401777981E+03  0.00000000000E+00 0. -1.
         25    1    1    2    0    0  0.26633430166E+03  0.23914959558E+03  0.46919808604E+03  0.60323986377E+03  0.12500000000E+03 0.  0.
         25    1    1    2    0    0 -0.18589433251E+03 -0.15611614306E+03  0.73295210336E+02  0.28271211654E+03  0.12500000000E+03 0.  0.
         25    1    1    2    0    0 -0.80439969153E+02 -0.83033452521E+02  0.12909494944E+03  0.21367182511E+03  0.12500000000E+03 0.  0.
</event>
<event>
 5    0  0.5778896E-005  0.2731148E+03  0.7546771E-02  0.1099510E+00
         21   -1    0    0  502  501  0.00000000000E+00  0.00000000000E+00  0.12634831183E+04  0.12634831183E+04  0.00000000000E+00 0. -1.
         21   -1    0    0  501  502 -0.00000000000E+00 -0.00000000000E+00 -0.59036566003E+02  0.59036566003E+02  0.00000000000E+00 0. -1.
         25    1    1    2    0    0 -0.89379221007E+02  0.16744717515E+02  0.55050111880E+03  0.57179149391E+03  0.12500000000E+03 0.  0.
         25    1    1    2    0    0  0.93413384536E+02 -0.12704762232E+03  0.38094570362E+03  0.43082686529E+03  0.12500000000E+03 0.  0.
         25    1    1    2    0    0 -0.40341635285E+01  0.11030290481E+03  0.27299972983E+03  0.31990132505E+03  0.12500000000E+03 0.  0.
</event>
<event>
 5    0  0.5778896E-005  0.3133278E+03  0.7546771E-02  0.1078762E+00
         21   -1    0    0  502  501  0.00000000000E+00  0.00000000000E+00  0.28401148554E+03  0.28401148554E+03  0.00000000000E+00 0. -1.
         21   -1    0    0  501  502 -0.00000000000E+00 -0.00000000000E+00 -0.34567016191E+03  0.34567016191E+03  0.00000000000E+00 0. -1.
         25    1    1    2    0    0  0.18743812576E+03  0.37313207375E+02  0.67234021990E+02  0.23805617015E+03  0.12500000000E+03 0.  0.
         25    1    1    2    0    0 -0.99792819689E+02 -0.97634999414E+02 -0.76416098037E+01  0.18754891141E+03  0.12500000000E+03 0.  0.
         25    1    1    2    0    0 -0.87645306068E+02  0.60321792039E+02 -0.12125108855E+03  0.20407656589E+03  0.12500000000E+03 0.  0.
</event>
<event>
 5    0  0.5778896E-005  0.2472820E+03  0.7546771E-02  0.1115035E+00
         21   -1    0    0  502  501  0.00000000000E+00  0.00000000000E+00  0.45380620689E+03  0.45380620689E+03  0.00000000000E+00 0. -1.
         21   -1    0    0  501  502 -0.00000000000E+00 -0.00000000000E+00 -0.13474558228E+03  0.13474558228E+03  0.00000000000E+00 0. -1.
         25    1    1    2    0    0 -0.10093728923E+03 -0.36628312552E+02  0.70534596319E+02  0.17924870687E+03  0.12500000000E+03 0.  0.
         25    1    1    2    0    0  0.22951927825E+02  0.66164859990E+02  0.20992352814E+03  0.25416031822E+03  0.12500000000E+03 0.  0.
         25    1    1    2    0    0  0.77985361407E+02 -0.29536547438E+02  0.38602500144E+02  0.15514276408E+03  0.12500000000E+03 0.  0.
</event>
<event>
 5    0  0.5778896E-005  0.5380483E+03  0.7546771E-02  0.1004299E+00
         21   -1    0    0  502  501  0.00000000000E+00  0.00000000000E+00  0.12616847619E+04  0.12616847619E+04  0.00000000000E+00 0. -1.
         21   -1    0    0  501  502 -0.00000000000E+00 -0.00000000000E+00 -0.22945194667E+03  0.22945194667E+03  0.00000000000E+00 0. -1.
         25    1    1    2    0    0  0.39875690366E+03 -0.81965300959E+02  0.45317098487E+03  0.62186358658E+03  0.12500000000E+03 0.  0.
         25    1    1    2    0    0 -0.28602341017E+03  0.20484215241E+03  0.54114987709E+03  0.65744801167E+03  0.12500000000E+03 0.  0.
         25    1    1    2    0    0 -0.11273349350E+03 -0.12287685145E+03  0.37911953302E+02  0.21182511037E+03  0.12500000000E+03 0.  0.
</event>
<event>
 5    0  0.5778896E-005  0.3199631E+03  0.7546771E-02  0.1075666E+00
         21   -1    0    0  502  501  0.00000000000E+00  0.00000000000E+00  0.15753018117E+03  0.15753018117E+03  0.00000000000E+00 0.  1.
         21   -1    0    0  501  502 -0.00000000000E+00 -0.00000000000E+00 -0.64988427584E+03  0.64988427584E+03  0.00000000000E+00 0.  1.
         25    1    1    2    0    0 -0.11903868843E+03  0.19239579368E+03 -0.17498822662E+03  0.31214136257E+03  0.12500000000E+03 0.  0.
         25    1    1    2    0    0  0.13939035355E+03 -0.81769743347E+02 -0.12389617670E+03  0.23893769939E+03  0.12500000000E+03 0.  0.
         25    1    1    2    0    0 -0.20351665120E+02 -0.11062605034E+03 -0.19346969135E+03  0.25633539505E+03  0.12500000000E+03 0.  0.
</event>
<event>
 5    0  0.5778896E-005  0.3206482E+03  0.7546771E-02  0.1075351E+00
         21   -1    0    0  502  501  0.00000000000E+00  0.00000000000E+00  0.78871844072E+02  0.78871844072E+02  0.00000000000E+00 0. -1.
         21   -1    0    0  501  502 -0.00000000000E+00 -0.00000000000E+00 -0.13035737733E+04  0.13035737733E+04  0.00000000000E+00 0. -1.
         25    1    1    2    0    0 -0.21655115533E+03 -0.77911674024E+02 -0.58558883444E+03  0.64148570900E+03  0.12500000000E+03 0.  0.
         25    1    1    2    0    0  0.24862095045E+02  0.25726412974E+02 -0.31503144555E+03  0.34080754654E+03  0.12500000000E+03 0.  0.
         25    1    1    2    0    0  0.19168906029E+03  0.52185261050E+02 -0.32408164921E+03  0.40015236180E+03  0.12500000000E+03 0.  0.
</event>
<event>
 5    0  0.7802180E-005  0.2680487E+03  0.7546771E-02  0.1102402E+00
         21   -1    0    0  502  501  0.00000000000E+00  0.00000000000E+00  0.47321941066E+03  0.47321941066E+03  0.00000000000E+00 0. -1.
         21   -1    0    0  501  502 -0.00000000000E+00 -0.00000000000E+00 -0.15183252324E+03  0.15183252324E+03  0.00000000000E+00 0. -1.
         25    1    1    2    0    0 -0.59438185086E+02 -0.76538213376E+02  0.10218643336E+03  0.18830311499E+03  0.12500000000E+03 0.  0.
         25    1    1    2    0    0  0.29806486657E+02  0.12367413431E+03  0.84760492850E-02  0.17834998799E+03  0.12500000000E+03 0.  0.
         25    1    1    2    0    0  0.29631698430E+02 -0.47135920935E+02  0.21919197801E+03  0.25839883091E+03  0.12500000000E+03 0.  0.
</event>
<event>
 5    0  0.5778896E-005  0.3746988E+03  0.7546771E-02  0.1052911E+00
         21   -1    0    0  502  501  0.00000000000E+00  0.00000000000E+00  0.99059651360E+02  0.99059651360E+02  0.00000000000E+00 0.  1.
         21   -1    0    0  501  502 -0.00000000000E+00 -0.00000000000E+00 -0.14173193807E+04  0.14173193807E+04  0.00000000000E+00 0.  1.
         25    1    1    2    0    0  0.22313888427E+03 -0.18599101672E+02 -0.61777331404E+03  0.66888396288E+03  0.12500000000E+03 0.  0.
         25    1    1    2    0    0 -0.15562285953E+03 -0.13148655715E+03 -0.22169906119E+03  0.32601021894E+03  0.12500000000E+03 0.  0.
         25    1    1    2    0    0 -0.67516024742E+02  0.15008565882E+03 -0.47878735411E+03  0.52148485025E+03  0.12500000000E+03 0.  0.
</event>
<event>
 5    0  0.5778896E-005  0.4235673E+03  0.7546771E-02  0.1035912E+00
         21   -1    0    0  502  501  0.00000000000E+00  0.00000000000E+00  0.87898555668E+03  0.87898555668E+03  0.00000000000E+00 0.  1.
         21   -1    0    0  501  502 -0.00000000000E+00 -0.00000000000E+00 -0.20410941989E+03  0.20410941989E+03  0.00000000000E+00 0.  1.
         25    1    1    2    0    0 -0.73239263542E+01 -0.16647150749E+03  0.59214086534E+03  0.62771188224E+03  0.12500000000E+03 0.  0.
         25    1    1    2    0    0  0.72113464549E+02  0.12932312249E+03 -0.10293858207E+03  0.21942236317E+03  0.12500000000E+03 0.  0.
         25    1    1    2    0    0 -0.64789538195E+02  0.37148384996E+02  0.18567385352E+03  0.23596073116E+03  0.12500000000E+03 0.  0.
</event>
<event>
 5    0  0.5778896E-005  0.2323649E+03  0.7546771E-02  0.1124986E+00
         21   -1    0    0  502  501  0.00000000000E+00  0.00000000000E+00  0.10581158808E+03  0.10581158808E+03  0.00000000000E+00 0.  1.
         21   -1    0    0  501  502 -0.00000000000E+00 -0.00000000000E+00 -0.51027912969E+03  0.51027912969E+03  0.00000000000E+00 0.  1.
         25    1    1    2    0    0 -0.74255255117E+02 -0.87812042609E+02 -0.13264668639E+03  0.21551088406E+03  0.12500000000E+03 0.  0.
         25    1    1    2    0    0  0.83776194452E+02  0.24892566245E+02 -0.12168448367E+03  0.19511587372E+03  0.12500000000E+03 0.  0.
         25    1    1    2    0    0 -0.95209393349E+01  0.62919476365E+02 -0.15013637155E+03  0.20546395999E+03  0.12500000000E+03 0.  0.
</event>
<event>
 5    0  0.5778896E-005  0.2945631E+03  0.7546771E-02  0.1087990E+00
         21   -1    0    0  502  501  0.00000000000E+00  0.00000000000E+00  0.33172094722E+03  0.33172094722E+03  0.00000000000E+00 0.  1.
         21   -1    0    0  501  502 -0.00000000000E+00 -0.00000000000E+00 -0.26156756722E+03  0.26156756722E+03  0.00000000000E+00 0.  1.
         25    1    1    2    0    0  0.12022949592E+03  0.48953231809E+02 -0.97728770274E+02  0.20500600755E+03  0.12500000000E+03 0.  0.
         25    1    1    2    0    0 -0.56892596656E+02  0.55961029758E+02  0.15223785282E+03  0.21253180523E+03  0.12500000000E+03 0.  0.
         25    1    1    2    0    0 -0.63336899265E+02 -0.10491426157E+03  0.15644297454E+02  0.17575070165E+03  0.12500000000E+03 0.  0.
</event>
<event>
 5    0  0.5778896E-005  0.3219616E+03  0.7546771E-02  0.1074750E+00
         21   -1    0    0  502  501  0.00000000000E+00  0.00000000000E+00  0.70932341401E+02  0.70932341401E+02  0.00000000000E+00 0. -1.
         21   -1    0    0  501  502 -0.00000000000E+00 -0.00000000000E+00 -0.14613823273E+04  0.14613823273E+04  0.00000000000E+00 0. -1.
         25    1    1    2    0    0 -0.13616786410E+03 -0.14592721223E+03 -0.78396161816E+03  0.81857025186E+03  0.12500000000E+03 0.  0.
         25    1    1    2    0    0  0.13190097521E+03  0.30357968257E+00 -0.33705219878E+03  0.38291923969E+03  0.12500000000E+03 0.  0.
         25    1    1    2    0    0  0.42668888880E+01  0.14562363255E+03 -0.26943616901E+03  0.33082517719E+03  0.12500000000E+03 0.  0.
</event>
<event>
 5    0  0.6240595E-005  0.4007524E+03  0.7546771E-02  0.1043519E+00
         21   -1    0    0  502  501  0.00000000000E+00  0.00000000000E+00  0.10252911019E+04  0.10252911019E+04  0.00000000000E+00 0.  1.
         21   -1    0    0  501  502 -0.00000000000E+00 -0.00000000000E+00 -0.15664083079E+03  0.15664083079E+03  0.00000000000E+00 0.  1.
         25    1    1    2    0    0 -0.12013800848E+03 -0.81316831816E+02  0.30683438234E+03  0.36168758121E+03  0.12500000000E+03 0.  0.
         25    1    1    2    0    0 -0.11134114435E+02 -0.44162221931E+02 -0.70524323336E+02  0.15057539816E+03  0.12500000000E+03 0.  0.
         25    1    1    2    0    0  0.13127212291E+03  0.12547905375E+03  0.63234021216E+03  0.66966895336E+03  0.12500000000E+03 0.  0.
</event>
<event>
 5    0  0.5778896E-005  0.5488378E+03  0.7546771E-02  0.1001763E+00
         21   -1    0    0  502  501  0.00000000000E+00  0.00000000000E+00  0.48445811260E+04  0.48445811260E+04  0.00000000000E+00 0. -1.
         21   -1    0    0  501  502 -0.00000000000E+00 -0.00000000000E+00 -0.62177285143E+02  0.62177285143E+02  0.00000000000E+00 0. -1.
         25    1    1    2    0    0 -0.27791286108E+03 -0.12126450154E+02  0.43468313819E+03  0.53099627096E+03  0.12500000000E+03 0.  0.
         25    1    1    2    0    0  0.43441435341E+01 -0.11033970574E+03  0.12539659107E+04  0.12650095760E+04  0.12500000000E+03 0.  0.
         25    1    1    2    0    0  0.27356871755E+03  0.12246615589E+03  0.30937547920E+04  0.31107525641E+04  0.12500000000E+03 0.  0.
</event>
<event>
 5    0  0.5778896E-005  0.3212338E+03  0.7546771E-02  0.1075083E+00
         21   -1    0    0  502  501  0.00000000000E+00  0.00000000000E+00  0.67155412498E+02  0.67155412498E+02  0.00000000000E+00 0.  1.
         21   -1    0    0  501  502 -0.00000000000E+00 -0.00000000000E+00 -0.15366018843E+04  0.15366018843E+04  0.00000000000E+00 0.  1.
         25    1    1    2    0    0  0.23279346497E+02  0.46976634977E+02 -0.31743918099E+03  0.34516860493E+03  0.12500000000E+03 0.  0.
         25    1    1    2    0    0  0.11327372564E+03 -0.19253624168E+03 -0.44476447095E+03  0.51316817506E+03  0.12500000000E+03 0.  0.
         25    1    1    2    0    0 -0.13655307214E+03  0.14555960670E+03 -0.70724281985E+03  0.74542051678E+03  0.12500000000E+03 0.  0.
</event>
<event>
 5    0  0.5778896E-005  0.3773106E+03  0.7546771E-02  0.1051932E+00
         21   -1    0    0  502  501  0.00000000000E+00  0.00000000000E+00  0.17025061113E+03  0.17025061113E+03  0.00000000000E+00 0.  1.
         21   -1    0    0  501  502 -0.00000000000E+00 -0.00000000000E+00 -0.83619824113E+03  0.83619824113E+03  0.00000000000E+00 0.  1.
         25    1    1    2    0    0 -0.50731664442E+02  0.25321623003E+03 -0.43955046157E+03  0.52490167574E+03  0.12500000000E+03 0.  0.
         25    1    1    2    0    0 -0.50878067145E+02 -0.22359240997E+03 -0.13541419958E+03  0.29418386931E+03  0.12500000000E+03 0.  0.
         25    1    1    2    0    0  0.10160973159E+03 -0.29623820058E+02 -0.90982968852E+02  0.18736330721E+03  0.12500000000E+03 0.  0.
</event>
<event>
 5    0  0.5778896E-005  0.3887339E+03  0.7546771E-02  0.1047752E+00
         21   -1    0    0  502  501  0.00000000000E+00  0.00000000000E+00  0.18599705977E+04  0.18599705977E+04  0.00000000000E+00 0. -1.
         21   -1    0    0  501  502 -0.00000000000E+00 -0.00000000000E+00 -0.81245385814E+02  0.81245385814E+02  0.00000000000E+00 0. -1.
         25    1    1    2    0    0  0.56550634143E+02  0.11961301325E+03  0.21656533629E+03  0.28289714040E+03  0.12500000000E+03 0.  0.
         25    1    1    2    0    0  0.85003456371E+02  0.10167489158E+03  0.22314334169E+03  0.28806478805E+03  0.12500000000E+03 0.  0.
         25    1    1    2    0    0 -0.14155409051E+03 -0.22128790483E+03  0.13390165339E+04  0.13702540550E+04  0.12500000000E+03 0.  0.
</event>
<event>
 5    0  0.5778896E-005  0.2574421E+03  0.7546771E-02  0.1108690E+00
         21   -1    0    0  502  501  0.00000000000E+00  0.00000000000E+00  0.81367383140E+02  0.81367383140E+02  0.00000000000E+00 0. -1.
         21   -1    0    0  501  502 -0.00000000000E+00 -0.00000000000E+00 -0.81453288821E+03  0.81453288821E+03  0.00000000000E+00 0. -1.
         25    1    1    2    0    0  0.34430342450E+02  0.11393638879E+03 -0.12570014962E+03  0.21352394898E+03  0.12500000000E+03 0.  0.
         25    1    1    2    0    0  0.47718562277E+02 -0.22926945522E+02 -0.26334102971E+03  0.29627049118E+03  0.12500000000E+03 0.  0.
         25    1    1    2    0    0 -0.82148904727E+02 -0.91009443273E+02 -0.34412432574E+03  0.38610583119E+03  0.12500000000E+03 0.  0.
</event>
<event>
 5    0  0.5778896E-005  0.2423033E+03  0.7546771E-02  0.1118268E+00
         21   -1    0    0  502  501  0.00000000000E+00  0.00000000000E+00  0.44094953300E+03  0.44094953300E+03  0.00000000000E+00 0. -1.
         21   -1    0    0  501  502 -0.00000000000E+00 -0.00000000000E+00 -0.13314645375E+03  0.13314645375E+03  0.00000000000E+00 0. -1.
         25    1    1    2    0    0  0.68322727958E+02 -0.79597063686E+02  0.54012109940E+02  0.17188948695E+03  0.12500000000E+03 0.  0.
         25    1    1    2    0    0 -0.43169961839E+02 -0.19618510573E+02  0.18096213703E+03  0.22499072559E+03  0.12500000000E+03 0.  0.
         25    1    1    2    0    0 -0.25152766119E+02  0.99215574259E+02  0.72828832279E+02  0.17721577421E+03  0.12500000000E+03 0.  0.
</event>
<event>
 5    0  0.5778896E-005  0.3641089E+03  0.7546771E-02  0.1056969E+00
         21   -1    0    0  502  501  0.00000000000E+00  0.00000000000E+00  0.10549122872E+04  0.10549122872E+04  0.00000000000E+00 0.  1.
         21   -1    0    0  501  502 -0.00000000000E+00 -0.00000000000E+00 -0.12567422805E+03  0.12567422805E+03  0.00000000000E+00 0.  1.
         25    1    1    2    0    0 -0.12627833888E+02 -0.21114899223E+03  0.21702486672E+03  0.32782335469E+03  0.12500000000E+03 0.  0.
         25    1    1    2    0    0 -0.14564739917E+03  0.13049013205E+03  0.24473423498E+03  0.33728427953E+03  0.12500000000E+03 0.  0.
         25    1    1    2    0    0  0.15827523306E+03  0.80658860175E+02  0.46747895749E+03  0.51547888106E+03  0.12500000000E+03 0.  0.
</event>
<event>
 5    0  0.6301637E-005  0.2579634E+03  0.7546771E-02  0.1108373E+00
         21   -1    0    0  502  501  0.00000000000E+00  0.00000000000E+00  0.23157851688E+03  0.23157851688E+03  0.00000000000E+00 0.  1.
         21   -1    0    0  501  502 -0.00000000000E+00 -0.00000000000E+00 -0.28735449709E+03  0.28735449709E+03  0.00000000000E+00 0.  1.
         25    1    1    2    0    0 -0.20009662563E+02  0.47289758251E+02 -0.42524749263E+02  0.14166884672E+03  0.12500000000E+03 0.  0.
         25    1    1    2    0    0  0.84869092986E+02 -0.13984901937E+03 -0.29426339815E+02  0.20796975895E+03  0.12500000000E+03 0.  0.
         25    1    1    2    0    0 -0.64859430423E+02  0.92559261120E+02  0.16175108862E+02  0.16929440830E+03  0.12500000000E+03 0.  0.
</event>
<event>
 5    0  0.5999222E-005  0.3476949E+03  0.7546771E-02  0.1063565E+00
         21   -1    0    0  502  501  0.00000000000E+00  0.00000000000E+00  0.27760312740E+03  0.27760312740E+03  0.00000000000E+00 0.  1.
         21   -1    0    0  501  502 -0.00000000000E+00 -0.00000000000E+00 -0.43548413760E+03  0.43548413760E+03  0.00000000000E+00 0.  1.
         25    1    1    2    0    0 -0.21792183955E+03 -0.14186759075E+03 -0.12636123325E+03  0.31497381276E+03  0.12500000000E+03 0.  0.
         25    1    1    2    0    0  0.37344395655E+02  0.17165414711E+02  0.36513587229E+02  0.13655583987E+03  0.12500000000E+03 0.  0.
         25    1    1    2    0    0  0.18057744389E+03  0.12470217604E+03 -0.68033364172E+02  0.26155761238E+03  0.12500000000E+03 0.  0.
</event>
<event>
 5    0  0.6015455E-005  0.3195034E+03  0.7546771E-02  0.1075878E+00
         21   -1    0    0  502  501  0.00000000000E+00  0.00000000000E+00  0.29833093844E+03  0.29833093844E+03  0.00000000000E+00 0.  1.
         21   -1    0    0  501  502 -0.00000000000E+00 -0.00000000000E+00 -0.34217849780E+03  0.34217849780E+03  0.00000000000E+00 0.  1.
         25    1    1    2    0    0  0.40154444922E+02 -0.93851767416E+02 -0.67280719080E+02  0.17484916029E+03  0.12500000000E+03 0.  0.
         25    1    1    2    0    0 -0.18040993487E+03  0.96266308239E+02  0.10395887190E+03  0.26124202140E+03  0.12500000000E+03 0.  0.
         25    1    1    2    0    0  0.14025548994E+03 -0.24145408222E+01 -0.80525712184E+02  0.20441825454E+03  0.12500000000E+03 0.  0.
</event>
<event>
 5    0  0.5778896E-005  0.2463119E+03  0.7546771E-02  0.1115658E+00
         21   -1    0    0  502  501  0.00000000000E+00  0.00000000000E+00  0.24025407432E+03  0.24025407432E+03  0.00000000000E+00 0. -1.
         21   -1    0    0  501  502 -0.00000000000E+00 -0.00000000000E+00 -0.25252254241E+03  0.25252254241E+03  0.00000000000E+00 0. -1.
         25    1    1    2    0    0  0.14250878255E+02 -0.36712194059E+02  0.21476752665E+02  0.13280483285E+03  0.12500000000E+03 0.  0.
         25    1    1    2    0    0 -0.10129210988E+03  0.85304121870E+02 -0.71591407732E+02  0.19567118948E+03  0.12500000000E+03 0.  0.
         25    1    1    2    0    0  0.87041231622E+02 -0.48591927811E+02  0.37846186970E+02  0.16430059440E+03  0.12500000000E+03 0.  0.
</event>
<event>
 5    0  0.5778896E-005  0.3945595E+03  0.7546771E-02  0.1045680E+00
         21   -1    0    0  502  501  0.00000000000E+00  0.00000000000E+00  0.14349479808E+04  0.14349479808E+04  0.00000000000E+00 0. -1.
         21   -1    0    0  501  502 -0.00000000000E+00 -0.00000000000E+00 -0.10848978276E+03  0.10848978276E+03  0.00000000000E+00 0. -1.
         25    1    1    2    0    0 -0.26830180874E+03 -0.18509123236E+02  0.20549517414E+03  0.36080703265E+03  0.12500000000E+03 0.  0.
         25    1    1    2    0    0  0.15668477664E+03  0.45371536902E+00  0.72702733404E+03  0.75415122457E+03  0.12500000000E+03 0.  0.
         25    1    1    2    0    0  0.11161703209E+03  0.18055407867E+02  0.39393568985E+03  0.42847950633E+03  0.12500000000E+03 0.  0.
</event>
<event>
 5    0  0.5778896E-005  0.2791744E+03  0.7546771E-02  0.1096141E+00
         21   -1    0    0  502  501  0.00000000000E+00  0.00000000000E+00  0.12039521297E+04  0.12039521297E+04  0.00000000000E+00 0. -1.
         21   -1    0    0  501  502 -0.00000000000E+00 -0.00000000000E+00 -0.64735428928E+02  0.64735428928E+02  0.00000000000E+00 0. -1.
         25    1    1    2    0    0  0.48747712850E+02 -0.21420030427E+02  0.13003988316E+03  0.18807054108E+03  0.12500000000E+03 0.  0.
         25    1    1    2    0    0 -0.52459240624E+02  0.13726069758E+02  0.91182624290E+03  0.92195036426E+03  0.12500000000E+03 0.  0.
         25    1    1    2    0    0  0.37115277734E+01  0.76939606686E+01  0.97350574727E+02  0.15866665330E+03  0.12500000000E+03 0.  0.
</event>
<event>
 5    0  0.5778896E-005  0.3929637E+03  0.7546771E-02  0.1046244E+00
         21   -1    0    0  502  501  0.00000000000E+00  0.00000000000E+00  0.12953547701E+04  0.12953547701E+04  0.00000000000E+00 0. -1.
         21   -1    0    0  501  502 -0.00000000000E+00 -0.00000000000E+00 -0.11921093880E+03  0.11921093880E+03  0.00000000000E+00 0. -1.
         25    1    1    2    0    0  0.20053627553E+02 -0.21558527968E+03  0.61985453373E+03  0.66837399992E+03  0.12500000000E+03 0.  0.
         25    1    1    2    0    0  0.16661422676E+03  0.16815024107E+03  0.30388171806E+03  0.40497395312E+03  0.12500000000E+03 0.  0.
         25    1    1    2    0    0 -0.18666785431E+03  0.47435038604E+02  0.25240757950E+03  0.34121775585E+03  0.12500000000E+03 0.  0.
</event>
<event>
 5    0  0.5778896E-005  0.2236583E+03  0.7546771E-02  0.1131185E+00
         21   -1    0    0  502  501  0.00000000000E+00  0.00000000000E+00  0.33699623984E+02  0.33699623984E+02  0.00000000000E+00 0. -1.
         21   -1    0    0  501  502 -0.00000000000E+00 -0.00000000000E+00 -0.14843802555E+04  0.14843802555E+04  0.00000000000E+00 0. -1.
         25    1    1    2    0    0  0.38297837723E+02 -0.26616419620E+02 -0.63283072942E+03  0.64674174928E+03  0.12500000000E+03 0.  0.
         25    1    1    2    0    0 -0.73556395283E+02  0.71508961460E+02 -0.48457844420E+03  0.51084767146E+03  0.12500000000E+03 0.  0.
         25    1    1    2    0    0  0.35258557560E+02 -0.44892541839E+02 -0.33327145792E+03  0.36049045876E+03  0.12500000000E+03 0.  0.
</event>
<event>
 5    0  0.5778896E-005  0.3372388E+03  0.7546771E-02  0.1067978E+00
         21   -1    0    0  502  501  0.00000000000E+00  0.00000000000E+00  0.12681375104E+03  0.12681375104E+03  0.00000000000E+00 0. -1.
         21   -1    0    0  501  502 -0.00000000000E+00 -0.00000000000E+00 -0.89682709818E+03  0.89682709818E+03  0.00000000000E+00 0. -1.
         25    1    1    2    0    0  0.40449454636E+02 -0.13176699579E+03 -0.20314060235E+02  0.18718002191E+03  0.12500000000E+03 0.  0.
         25    1    1    2    0    0  0.55262127579E+02  0.16063179394E+03 -0.42796781565E+03  0.47711416579E+03  0.12500000000E+03 0.  0.
         25    1    1    2    0    0 -0.95711582215E+02 -0.28864798148E+02 -0.32173147126E+03  0.35934666152E+03  0.12500000000E+03 0.  0.
</event>
<event>
 5    0  0.5778896E-005  0.3163773E+03  0.7546771E-02  0.1077329E+00
         21   -1    0    0  502  501  0.00000000000E+00  0.00000000000E+00  0.13271310165E+04  0.13271310165E+04  0.00000000000E+00 0. -1.
         21   -1    0    0  501  502 -0.00000000000E+00 -0.00000000000E+00 -0.75421766825E+02  0.75421766825E+02  0.00000000000E+00 0. -1.
         25    1    1    2    0    0  0.58527314556E+02  0.21259388213E+03  0.66121338094E+03  0.70813116046E+03  0.12500000000E+03 0.  0.
         25    1    1    2    0    0  0.45465530304E+00 -0.18420829072E+03  0.39348939101E+03  0.45209711558E+03  0.12500000000E+03 0.  0.
         25    1    1    2    0    0 -0.58981969859E+02 -0.28385591410E+02  0.19700647773E+03  0.24232450729E+03  0.12500000000E+03 0.  0.
</event>
<event>
 5    0  0.6583907E-005  0.2646539E+03  0.7546771E-02  0.1104379E+00
         21   -1    0    0  502  501  0.00000000000E+00  0.00000000000E+00  0.55242794774E+02  0.55242794774E+02  0.00000000000E+00 0. -1.
         21   -1    0    0  501  502 -0.00000000000E+00 -0.00000000000E+00 -0.12678881021E+04  0.12678881021E+04  0.00000000000E+00 0. -1.
         25    1    1    2    0    0  0.70223134169E+00  0.14006497059E+03 -0.70781592643E+03  0.73228892852E+03  0.12500000000E+03 0.  0.
         25    1    1    2    0    0  0.31714568859E+02 -0.89594266248E+02 -0.34628404698E+03  0.38022439114E+03  0.12500000000E+03 0.  0.
         25    1    1    2    0    0 -0.32416800201E+02 -0.50470704343E+02 -0.15854533394E+03  0.21061757725E+03  0.12500000000E+03 0.  0.
</event>
<event>
 5    0  0.5778896E-005  0.2645364E+03  0.7546771E-02  0.1104448E+00
         21   -1    0    0  502  501  0.00000000000E+00  0.00000000000E+00  0.25212504197E+03  0.25212504197E+03  0.00000000000E+00 0.  1.
         21   -1    0    0  501  502 -0.00000000000E+00 -0.00000000000E+00 -0.27755874050E+03  0.27755874050E+03  0.00000000000E+00 0.  1.
         25    1    1    2    0    0 -0.11515530768E+03 -0.53411625096E+02 -0.76179938594E+02  0.19375739890E+03  0.12500000000E+03 0.  0.
         25    1    1    2    0    0  0.13452743283E+03  0.74399122689E+02  0.60952114313E+02  0.20729934848E+03  0.12500000000E+03 0.  0.
         25    1    1    2    0    0 -0.19372125149E+02 -0.20987497593E+02 -0.10205874253E+02  0.12862703509E+03  0.12500000000E+03 0.  0.
</event>
<event>
 5    0  0.5778896E-005  0.3297088E+03  0.7546771E-02  0.1071266E+00
         21   -1    0    0  502  501  0.00000000000E+00  0.00000000000E+00  0.14089670267E+04  0.14089670267E+04  0.00000000000E+00 0. -1.
         21   -1    0    0  501  502 -0.00000000000E+00 -0.00000000000E+00 -0.77154319335E+02  0.77154319335E+02  0.00000000000E+00 0. -1.
         25    1    1    2    0    0 -0.18491239091E+02  0.96091411421E+02  0.19490303633E+03  0.25137159514E+03  0.12500000000E+03 0.  0.
         25    1    1    2    0    0 -0.18089455840E+03  0.17135250503E+02  0.51668808142E+03  0.56179002443E+03  0.12500000000E+03 0.  0.
         25    1    1    2    0    0  0.19938579750E+03 -0.11322666192E+03  0.62022158960E+03  0.67295972644E+03  0.12500000000E+03 0.  0.
</event>
<event>
 5    0  0.6518265E-005  0.3912629E+03  0.7546771E-02  0.1046848E+00
         21   -1    0    0  502  501  0.00000000000E+00  0.00000000000E+00  0.49690939595E+03  0.49690939595E+03  0.00000000000E+00 0. -1.
         21   -1    0    0  501  502 -0.00000000000E+00 -0.00000000000E+00 -0.30807764994E+03  0.30807764994E+03  0.00000000000E+00 0. -1.
         25    1    1    2    0    0 -0.20548925939E+03  0.16778542114E+03  0.10952809408E+03  0.31304821780E+03  0.12500000000E+03 0.  0.
         25    1    1    2    0    0  0.18462458860E+03 -0.79728107092E+02 -0.98543330836E+02  0.25647338620E+03  0.12500000000E+03 0.  0.
         25    1    1    2    0    0  0.20864670794E+02 -0.88057314052E+02  0.17784698277E+03  0.23546544190E+03  0.12500000000E+03 0.  0.
</event>
<event>
 5    0  0.5778896E-005  0.3024896E+03  0.7546771E-02  0.1084003E+00
         21   -1    0    0  502  501  0.00000000000E+00  0.00000000000E+00  0.12354082312E+04  0.12354082312E+04  0.00000000000E+00 0.  1.
         21   -1    0    0  501  502 -0.00000000000E+00 -0.00000000000E+00 -0.74064555531E+02  0.74064555531E+02  0.00000000000E+00 0.  1.
         25    1    1    2    0    0 -0.92985437022E+02 -0.31580924169E+01  0.80276503009E+03  0.81774871359E+03  0.12500000000E+03 0.  0.
         25    1    1    2    0    0  0.14418766418E+03 -0.36981416386E+02  0.22796250805E+03  0.29958239724E+03  0.12500000000E+03 0.  0.
         25    1    1    2    0    0 -0.51202227163E+02  0.40139508803E+02  0.13061613753E+03  0.19214167590E+03  0.12500000000E+03 0.  0.
</event>
<event>
 5    0  0.5778896E-005  0.4288448E+03  0.7546771E-02  0.1034226E+00
         21   -1    0    0  502  501  0.00000000000E+00  0.00000000000E+00  0.31243583690E+03  0.31243583690E+03  0.00000000000E+00 0.  1.
         21   -1    0    0  501  502 -0.00000000000E+00 -0.00000000000E+00 -0.58862599106E+03  0.58862599106E+03  0.00000000000E+00 0.  1.
         25    1    1    2    0    0  0.40919729641E+02 -0.25620840106E+03  0.80491787327E+02  0.29903360492E+03  0.12500000000E+03 0.  0.
         25    1    1    2    0    0 -0.15786769665E+03  0.18941821639E+03 -0.11743278937E+03  0.30036133301E+03  0.12500000000E+03 0.  0.
         25    1    1    2    0    0  0.11694796701E+03  0.66790184661E+02 -0.23924915212E+03  0.30166689004E+03  0.12500000000E+03 0.  0.
</event>
<event>
 5    0  0.5778896E-005  0.3823148E+03  0.7546771E-02  0.1050081E+00
         21   -1    0    0  502  501  0.00000000000E+00  0.00000000000E+00  0.11888439541E+03  0.11888439541E+03  0.00000000000E+00 0. -1.
         21   -1    0    0  501  502 -0.00000000000E+00 -0.00000000000E+00 -0.12294685011E+04  0.12294685011E+04  0.00000000000E+00 0. -1.
         25    1    1    2    0    0  0.12295710980E+03 -0.13545657795E+03 -0.98960793490E+03  0.10141083769E+04  0.12500000000E+03 0.  0.
         25    1    1    2    0    0 -0.70407845987E+02  0.64932470647E+02 -0.76444064567E+02  0.17504909462E+03  0.12500000000E+03 0.  0.
         25    1    1    2    0    0 -0.52549263808E+02  0.70524107305E+02 -0.44532106209E+02  0.15919542494E+03  0.12500000000E+03 0.  0.
</event>
<event>
 5    0  0.5778896E-005  0.3158216E+03  0.7546771E-02  0.1077589E+00
         21   -1    0    0  502  501  0.00000000000E+00  0.00000000000E+00  0.10999279270E+04  0.10999279270E+04  0.00000000000E+00 0.  1.
         21   -1    0    0  501  502 -0.00000000000E+00 -0.00000000000E+00 -0.90681669066E+02  0.90681669066E+02  0.00000000000E+00 0.  1.
         25    1    1    2    0    0 -0.19876606827E+01  0.39213395356E+01  0.45595088954E+03  0.47279545405E+03  0.12500000000E+03 0.  0.
         25    1    1    2    0    0 -0.28663286059E+02  0.41004060790E+02 -0.13071496180E+02  0.13527298689E+03  0.12500000000E+03 0.  0.
         25    1    1    2    0    0  0.30650946742E+02 -0.44925400326E+02  0.56636686462E+03  0.58254115517E+03  0.12500000000E+03 0.  0.
</event>
<event>
 5    0  0.5778896E-005  0.2777035E+03  0.7546771E-02  0.1096950E+00
         21   -1    0    0  502  501  0.00000000000E+00  0.00000000000E+00  0.60898445042E+03  0.60898445042E+03  0.00000000000E+00 0. -1.
         21   -1    0    0  501  502 -0.00000000000E+00 -0.00000000000E+00 -0.12663582318E+03  0.12663582318E+03  0.00000000000E+00 0. -1.
         25    1    1    2    0    0 -0.31683923047E+02  0.87201335632E+02  0.61135426285E+02  0.16724378692E+03  0.12500000000E+03 0.  0.
         25    1    1    2    0    0 -0.59928932011E+02  0.31135254501E+02  0.31677576316E+03  0.34717829007E+03  0.12500000000E+03 0.  0.
         25    1    1    2    0    0  0.91612855058E+02 -0.11833659013E+03  0.10443743778E+03  0.22119819662E+03  0.12500000000E+03 0.  0.
</event>
<event>
 5    0  0.6251390E-005  0.3652573E+03  0.7546771E-02  0.1056521E+00
         21   -1    0    0  502  501  0.00000000000E+00  0.00000000000E+00  0.30713779129E+03  0.30713779129E+03  0.00000000000E+00 0.  1.
         21   -1    0    0  501  502 -0.00000000000E+00 -0.00000000000E+00 -0.43437477592E+03  0.43437477592E+03  0.00000000000E+00 0.  1.
         25    1    1    2    0    0 -0.86117803392E+02  0.70388697608E+02  0.19057522535E+03  0.25360355149E+03  0.12500000000E+03 0.  0.
         25    1    1    2    0    0  0.12468585715E+03 -0.12477426659E+02 -0.49412024052E+02  0.18376288328E+03  0.12500000000E+03 0.  0.
         25    1    1    2    0    0 -0.38568053756E+02 -0.57911270948E+02 -0.26840018593E+03  0.30414613244E+03  0.12500000000E+03 0.  0.
</event>
<event>
 5    0  0.5778896E-005  0.3631767E+03  0.7546771E-02  0.1057333E+00
         21   -1    0    0  502  501  0.00000000000E+00  0.00000000000E+00  0.11004976992E+04  0.11004976992E+04  0.00000000000E+00 0. -1.
         21   -1    0    0  501  502 -0.00000000000E+00 -0.00000000000E+00 -0.11985245268E+03  0.11985245268E+03  0.00000000000E+00 0. -1.
         25    1    1    2    0    0  0.13445201607E+03 -0.88493609392E+02  0.32603267319E+03  0.38448766888E+03  0.12500000000E+03 0.  0.
         25    1    1    2    0    0  0.15325636805E+03  0.22301258074E+02  0.24138221677E+03  0.31285017985E+03  0.12500000000E+03 0.  0.
         25    1    1    2    0    0 -0.28770838412E+03  0.66192351318E+02  0.41323035658E+03  0.52301230317E+03  0.12500000000E+03 0.  0.
</event>
<event>
 5    0  0.5778896E-005  0.3381627E+03  0.7546771E-02  0.1067581E+00
         21   -1    0    0  502  501  0.00000000000E+00  0.00000000000E+00  0.20996592959E+03  0.20996592959E+03  0.00000000000E+00 0.  1.
         21   -1    0    0  501  502 -0.00000000000E+00 -0.00000000000E+00 -0.54463139641E+03  0.54463139641E+03  0.00000000000E+00 0.  1.
         25    1    1    2    0    0 -0.87826397609E+01  0.11181089067E+03 -0.10115812294E+03  0.19605299251E+03  0.12500000000E+03 0.  0.
         25    1    1    2    0    0 -0.19389464939E+03 -0.90364251076E+02 -0.19731660253E+03  0.31673281258E+03  0.12500000000E+03 0.  0.
         25    1    1    2    0    0  0.20267728915E+03 -0.21446639595E+02 -0.36190741344E+02  0.24181152091E+03  0.12500000000E+03 0.  0.
</event>
<event>
 5    0  0.5778896E-005  0.4349536E+03  0.7546771E-02  0.1032307E+00
         21   -1    0    0  502  501  0.00000000000E+00  0.00000000000E+00  0.11237496996E+04  0.11237496996E+04  0.00000000000E+00 0. -1.
         21   -1    0    0  501  502 -0.00000000000E+00 -0.00000000000E+00 -0.16835118293E+03  0.16835118293E+03  0.00000000000E+00 0.  1.
         25    1    1    2    0    0 -0.35373521206E+03  0.76363980910E+02  0.28620061077E+03  0.47801239256E+03  0.12500000000E+03 0.  0.
         25    1    1    2    0    0  0.10959241187E+03 -0.17103898655E+02  0.35783525520E+03  0.39493557697E+03  0.12500000000E+03 0.  0.
         25    1    1    2    0    0  0.24414280019E+03 -0.59260082255E+02  0.31136265069E+03  0.41915291300E+03  0.12500000000E+03 0.  0.
</event>
<event>
 5    0  0.6549523E-005  0.2511868E+03  0.7546771E-02  0.1112557E+00
         21   -1    0    0  502  501  0.00000000000E+00  0.00000000000E+00  0.62884163800E+03  0.62884163800E+03  0.00000000000E+00 0.  1.
         21   -1    0    0  501  502 -0.00000000000E+00 -0.00000000000E+00 -0.10033499616E+03  0.10033499616E+03  0.00000000000E+00 0.  1.
         25    1    1    2    0    0 -0.12245140746E+01 -0.85481707711E+02  0.27203669616E+03  0.31134801404E+03  0.12500000000E+03 0.  0.
         25    1    1    2    0    0 -0.13795926444E+02  0.10750434276E+03  0.46224665459E+02  0.17178251074E+03  0.12500000000E+03 0.  0.
         25    1    1    2    0    0  0.15020440518E+02 -0.22022635047E+02  0.21024528022E+03  0.24604610939E+03  0.12500000000E+03 0.  0.
</event>
<event>
 5    0  0.5778896E-005  0.3427163E+03  0.7546771E-02  0.1065645E+00
         21   -1    0    0  502  501  0.00000000000E+00  0.00000000000E+00  0.46077959449E+03  0.46077959449E+03  0.00000000000E+00 0. -1.
         21   -1    0    0  501  502 -0.00000000000E+00 -0.00000000000E+00 -0.25490382729E+03  0.25490382729E+03  0.00000000000E+00 0. -1.
         25    1    1    2    0    0 -0.13322745178E+03  0.68213334583E+02  0.38470758241E+02  0.19876521869E+03  0.12500000000E+03 0.  0.
         25    1    1    2    0    0 -0.68010312536E+02  0.97478938007E+02  0.14781583937E+03  0.22716088645E+03  0.12500000000E+03 0.  0.
         25    1    1    2    0    0  0.20123776431E+03 -0.16569227259E+03  0.19589169591E+02  0.28975731664E+03  0.12500000000E+03 0.  0.
</event>
<event>
 5    0  0.5778896E-005  0.4495872E+03  0.7546771E-02  0.1027845E+00
         21   -1    0    0  502  501  0.00000000000E+00  0.00000000000E+00  0.58973380061E+03  0.58973380061E+03  0.00000000000E+00 0.  1.
         21   -1    0    0  501  502 -0.00000000000E+00 -0.00000000000E+00 -0.34274563368E+03  0.34274563368E+03  0.00000000000E+00 0.  1.
         25    1    1    2    0    0 -0.15280927608E+03  0.68030686894E+02  0.16968631267E+03  0.26906745237E+03  0.12500000000E+03 0.  0.
         25    1    1    2    0    0  0.18346085235E+03 -0.26415073662E+01  0.31496041513E+03  0.38534390485E+03  0.12500000000E+03 0.  0.
         25    1    1    2    0    0 -0.30651576270E+02 -0.65389179528E+02 -0.23765856088E+03  0.27806807707E+03  0.12500000000E+03 0.  0.
</event>
<event>
 5    0  0.5778896E-005  0.6150567E+03  0.7546771E-02  0.9874651E-01
         21   -1    0    0  502  501  0.00000000000E+00  0.00000000000E+00  0.63129615545E+03  0.63129615545E+03  0.00000000000E+00 0.  1.
         21   -1    0    0  501  502 -0.00000000000E+00 -0.00000000000E+00 -0.59923491969E+03  0.59923491969E+03  0.00000000000E+00 0.  1.
         25    1    1    2    0    0  0.31026525519E+03  0.37286806136E+03  0.11494818875E+03  0.51393891258E+03  0.12500000000E+03 0.  0.
         25    1    1    2    0    0 -0.28395652420E+03 -0.67745170068E+01 -0.10661032453E+03  0.32812796743E+03  0.12500000000E+03 0.  0.
         25    1    1    2    0    0 -0.26308730996E+02 -0.36609354435E+03  0.23723371544E+02  0.38846419513E+03  0.12500000000E+03 0.  0.
</event>
<event>
 5    0  0.5778896E-005  0.2298738E+03  0.7546771E-02  0.1126729E+00
         21   -1    0    0  502  501  0.00000000000E+00  0.00000000000E+00  0.64483707548E+03  0.64483707548E+03  0.00000000000E+00 0. -1.
         21   -1    0    0  501  502 -0.00000000000E+00 -0.00000000000E+00 -0.81946190832E+02  0.81946190832E+02  0.00000000000E+00 0. -1.
         25    1    1    2    0    0 -0.21351445286E+02  0.54572026851E+02  0.12362796729E+03  0.18531827926E+03  0.12500000000E+03 0.  0.
         25    1    1    2    0    0 -0.39412126160E+02 -0.21825772795E+02  0.34671825235E+03  0.37130610897E+03  0.12500000000E+03 0.  0.
         25    1    1    2    0    0  0.60763571446E+02 -0.32746254056E+02  0.92544665008E+02  0.17015887808E+03  0.12500000000E+03 0.  0.
</event>
<event>
 5    0  0.5778896E-005  0.3444924E+03  0.7546771E-02  0.1064899E+00
         21   -1    0    0  502  501  0.00000000000E+00  0.00000000000E+00  0.46016537247E+03  0.46016537247E+03  0.00000000000E+00 0. -1.
         21   -1    0    0  501  502 -0.00000000000E+00 -0.00000000000E+00 -0.25789644974E+03  0.25789644974E+03  0.00000000000E+00 0. -1.
         25    1    1    2    0    0 -0.94892608433E+02  0.19749885866E+03  0.24451932845E+03  0.35131909753E+03  0.12500000000E+03 0.  0.
         25    1    1    2    0    0  0.53281024536E+02 -0.12844750108E+02 -0.28916960190E+02  0.13951718807E+03  0.12500000000E+03 0.  0.
         25    1    1    2    0    0  0.41611583897E+02 -0.18465410855E+03 -0.13333445525E+02  0.22722553661E+03  0.12500000000E+03 0.  0.
</event>
<event>
 5    0  0.5778896E-005  0.3056824E+03  0.7546771E-02  0.1082434E+00
         21   -1    0    0  502  501  0.00000000000E+00  0.00000000000E+00  0.67138496139E+03  0.67138496139E+03  0.00000000000E+00 0. -1.
         21   -1    0    0  501  502 -0.00000000000E+00 -0.00000000000E+00 -0.13917757738E+03  0.13917757738E+03  0.00000000000E+00 0. -1.
         25    1    1    2    0    0 -0.10210822824E+03 -0.61428567870E+02  0.73575849814E+02  0.18771777993E+03  0.12500000000E+03 0.  0.
         25    1    1    2    0    0  0.67064078889E+02 -0.11878351619E+03  0.12970692764E+03  0.22595575114E+03  0.12500000000E+03 0.  0.
         25    1    1    2    0    0  0.35044149348E+02  0.18021208406E+03  0.32892460655E+03  0.39688900771E+03  0.12500000000E+03 0.  0.
</event>
<event>
 5    0  0.5778896E-005  0.2439858E+03  0.7546771E-02  0.1117166E+00
         21   -1    0    0  502  501  0.00000000000E+00  0.00000000000E+00  0.38939554330E+03  0.38939554330E+03  0.00000000000E+00 0.  1.
         21   -1    0    0  501  502 -0.00000000000E+00 -0.00000000000E+00 -0.15287559846E+03  0.15287559846E+03  0.00000000000E+00 0.  1.
         25    1    1    2    0    0 -0.24184452857E+02 -0.68014664801E+02  0.74059486636E+02  0.16223652471E+03  0.12500000000E+03 0.  0.
         25    1    1    2    0    0 -0.24139514098E+02 -0.60326606294E+02  0.12457526718E+02  0.14142915378E+03  0.12500000000E+03 0.  0.
         25    1    1    2    0    0  0.48323966955E+02  0.12834127110E+03  0.15000293149E+03  0.23860546327E+03  0.12500000000E+03 0.  0.
</event>
<event>
 5    0  0.6626793E-005  0.3044695E+03  0.7546771E-02  0.1083027E+00
         21   -1    0    0  502  501  0.00000000000E+00  0.00000000000E+00  0.70041314831E+03  0.70041314831E+03  0.00000000000E+00 0.  1.
         21   -1    0    0  501  502 -0.00000000000E+00 -0.00000000000E+00 -0.13235281910E+03  0.13235281910E+03  0.00000000000E+00 0.  1.
         25    1    1    2    0    0  0.17555797131E+03  0.12117542153E+03  0.16557827016E+03  0.29756553500E+03  0.12500000000E+03 0.  0.
         25    1    1    2    0    0 -0.28358849786E+02 -0.56412449887E+02  0.10664042662E+03  0.17602207093E+03  0.12500000000E+03 0.  0.
         25    1    1    2    0    0 -0.14719912152E+03 -0.64762971641E+02  0.29584163243E+03  0.35917836147E+03  0.12500000000E+03 0.  0.
</event>
<event>
 5    0  0.5778896E-005  0.5174387E+03  0.7546771E-02  0.1009325E+00
         21   -1    0    0  502  501  0.00000000000E+00  0.00000000000E+00  0.44469796087E+03  0.44469796087E+03  0.00000000000E+00 0. -1.
         21   -1    0    0  501  502 -0.00000000000E+00 -0.00000000000E+00 -0.60207783231E+03  0.60207783231E+03  0.00000000000E+00 0. -1.
         25    1    1    2    0    0  0.43167620010E+03  0.79242179581E+02  0.74004303607E+02  0.46230433884E+03  0.12500000000E+03 0.  0.
         25    1    1    2    0    0 -0.72573582020E+02 -0.43769174130E+02 -0.34900986044E+02  0.15500240075E+03  0.12500000000E+03 0.  0.
         25    1    1    2    0    0 -0.35910261808E+03 -0.35473005452E+02 -0.19648318900E+03  0.42946905359E+03  0.12500000000E+03 0.  0.
</event>
<event>
 5    0  0.5778896E-005  0.2387903E+03  0.7546771E-02  0.1120601E+00
         21   -1    0    0  502  501  0.00000000000E+00  0.00000000000E+00  0.35466911968E+03  0.35466911968E+03  0.00000000000E+00 0.  1.
         21   -1    0    0  501  502 -0.00000000000E+00 -0.00000000000E+00 -0.16077188899E+03  0.16077188899E+03  0.00000000000E+00 0.  1.
         25    1    1    2    0    0 -0.58303519057E+02  0.79967328907E+02  0.13052643098E+02  0.15996701385E+03  0.12500000000E+03 0.  0.
         25    1    1    2    0    0  0.16827664304E+02  0.14296022445E+02  0.13891472178E+03  0.18817504210E+03  0.12500000000E+03 0.  0.
         25    1    1    2    0    0  0.41475854753E+02 -0.94263351352E+02  0.41929865812E+02  0.16729895272E+03  0.12500000000E+03 0.  0.
</event>
<event>
 5    0  0.5778896E-005  0.5988258E+03  0.7546771E-02  0.9907845E-01
         21   -1    0    0  502  501  0.00000000000E+00  0.00000000000E+00  0.25265675580E+03  0.25265675580E+03  0.00000000000E+00 0. -1.
         21   -1    0    0  501  502 -0.00000000000E+00 -0.00000000000E+00 -0.14192866363E+04  0.14192866363E+04  0.00000000000E+00 0. -1.
         25    1    1    2    0    0 -0.14372420735E+03  0.18978539762E+03 -0.15967786921E+03  0.31272538567E+03  0.12500000000E+03 0.  0.
         25    1    1    2    0    0 -0.24289629946E+02  0.24886943412E+03 -0.76857004450E+03  0.81783304816E+03  0.12500000000E+03 0.  0.
         25    1    1    2    0    0  0.16801383730E+03 -0.43865483173E+03 -0.23838196675E+03  0.54138495823E+03  0.12500000000E+03 0.  0.
</event>
<event>
 5    0  0.5778896E-005  0.4278975E+03  0.7546771E-02  0.1034526E+00
         21   -1    0    0  502  501  0.00000000000E+00  0.00000000000E+00  0.59551535341E+03  0.59551535341E+03  0.00000000000E+00 0.  1.
         21   -1    0    0  501  502 -0.00000000000E+00 -0.00000000000E+00 -0.30745858936E+03  0.30745858936E+03  0.00000000000E+00 0.  1.
         25    1    1    2    0    0  0.16627294761E+03 -0.16100334980E+03  0.28358642684E+03  0.38680102539E+03  0.12500000000E+03 0.  0.
         25    1    1    2    0    0 -0.10796050087E+03  0.47076942739E+02  0.19158566204E+03  0.25729705436E+03  0.12500000000E+03 0.  0.
         25    1    1    2    0    0 -0.58312446740E+02  0.11392640706E+03 -0.18711532483E+03  0.25887586302E+03  0.12500000000E+03 0.  0.
</event>
<event>
 5    0  0.5778896E-005  0.2702093E+03  0.7546771E-02  0.1101160E+00
         21   -1    0    0  502  501  0.00000000000E+00  0.00000000000E+00  0.97698384292E+02  0.97698384292E+02  0.00000000000E+00 0.  1.
         21   -1    0    0  501  502 -0.00000000000E+00 -0.00000000000E+00 -0.74733161299E+03  0.74733161299E+03  0.00000000000E+00 0.  1.
         25    1    1    2    0    0  0.14586986603E+02  0.92948093906E+02 -0.17171568372E+03  0.23230024618E+03  0.12500000000E+03 0.  0.
         25    1    1    2    0    0  0.72032476127E+02  0.27577788266E+02 -0.73670822847E+02  0.16432164240E+03  0.12500000000E+03 0.  0.
         25    1    1    2    0    0 -0.86619462730E+02 -0.12052588217E+03 -0.40424672213E+03  0.44840810870E+03  0.12500000000E+03 0.  0.
</event>
<event>
 5    0  0.5778896E-005  0.2473567E+03  0.7546771E-02  0.1114987E+00
         21   -1    0    0  502  501  0.00000000000E+00  0.00000000000E+00  0.47120575327E+02  0.47120575327E+02  0.00000000000E+00 0. -1.
         21   -1    0    0  501  502 -0.00000000000E+00 -0.00000000000E+00 -0.12984844107E+04  0.12984844107E+04  0.00000000000E+00 0. -1.
         25    1    1    2    0    0 -0.67216528585E+02  0.26536508506E+02 -0.32486453350E+03  0.35550557397E+03  0.12500000000E+03 0.  0.
         25    1    1    2    0    0  0.62816869699E+02 -0.10703592078E+03 -0.31637912994E+03  0.36210965372E+03  0.12500000000E+03 0.  0.
         25    1    1    2    0    0  0.43996588855E+01  0.80499412273E+02 -0.61012017197E+03  0.62798975838E+03  0.12500000000E+03 0.  0.
</event>
<event>
 5    0  0.5778896E-005  0.2356581E+03  0.7546771E-02  0.1122720E+00
         21   -1    0    0  502  501  0.00000000000E+00  0.00000000000E+00  0.10444991536E+03  0.10444991536E+03  0.00000000000E+00 0. -1.
         21   -1    0    0  501  502 -0.00000000000E+00 -0.00000000000E+00 -0.53168756431E+03  0.53168756431E+03  0.00000000000E+00 0. -1.
         25    1    1    2    0    0  0.11484018541E+03 -0.24434953382E+02 -0.12700222938E+03  0.21340079990E+03  0.12500000000E+03 0.  0.
         25    1    1    2    0    0 -0.49011864841E+02  0.55326174806E+02 -0.10243402480E+03  0.17771009524E+03  0.12500000000E+03 0.  0.
         25    1    1    2    0    0 -0.65828320566E+02 -0.30891221425E+02 -0.19780139477E+03  0.24502658452E+03  0.12500000000E+03 0.  0.
</event>
<event>
 5    0  0.5778896E-005  0.2709161E+03  0.7546771E-02  0.1100756E+00
         21   -1    0    0  502  501  0.00000000000E+00  0.00000000000E+00  0.24721227743E+03  0.24721227743E+03  0.00000000000E+00 0.  1.
         21   -1    0    0  501  502 -0.00000000000E+00 -0.00000000000E+00 -0.29689274866E+03  0.29689274866E+03  0.00000000000E+00 0.  1.
         25    1    1    2    0    0  0.39863281807E+02 -0.64173390708E+02  0.45121706990E+02  0.15286684975E+03  0.12500000000E+03 0.  0.
         25    1    1    2    0    0 -0.29033263439E+02 -0.10519116345E+03 -0.65690156783E+02  0.17846094237E+03  0.12500000000E+03 0.  0.
         25    1    1    2    0    0 -0.10830018369E+02  0.16936455416E+03 -0.29112021437E+02  0.21277723397E+03  0.12500000000E+03 0.  0.
</event>
<event>
 5    0  0.5778896E-005  0.3437961E+03  0.7546771E-02  0.1065191E+00
         21   -1    0    0  502  501  0.00000000000E+00  0.00000000000E+00  0.17888899636E+03  0.17888899636E+03  0.00000000000E+00 0.  1.
         21   -1    0    0  501  502 -0.00000000000E+00 -0.00000000000E+00 -0.66072108112E+03  0.66072108112E+03  0.00000000000E+00 0.  1.
         25    1    1    2    0    0  0.93282926133E+01  0.10170726436E+03 -0.42601130637E+03  0.45556779717E+03  0.12500000000E+03 0.  0.
         25    1    1    2    0    0 -0.88441641948E+02 -0.82211249329E+02 -0.13035480434E+03  0.21725098058E+03  0.12500000000E+03 0.  0.
         25    1    1    2    0    0  0.79113349335E+02 -0.19496015028E+02  0.74534025941E+02  0.16679129974E+03  0.12500000000E+03 0.  0.
</event>
<event>
 5    0  0.5778896E-005  0.4138405E+03  0.7546771E-02  0.1039090E+00
         21   -1    0    0  502  501  0.00000000000E+00  0.00000000000E+00  0.34608933703E+03  0.34608933703E+03  0.00000000000E+00 0. -1.
         21   -1    0    0  501  502 -0.00000000000E+00 -0.00000000000E+00 -0.49485479121E+03  0.49485479121E+03  0.00000000000E+00 0. -1.
         25    1    1    2    0    0  0.26906860848E+03 -0.98129792246E+02 -0.11406132339E+03  0.33265952217E+03  0.12500000000E+03 0.  0.
         25    1    1    2    0    0 -0.31580391550E+03  0.41136805397E+02  0.41068679895E+02  0.34458088495E+03  0.12500000000E+03 0.  0.
         25    1    1    2    0    0  0.46735307017E+02  0.56992986849E+02 -0.75772810685E+02  0.16370372113E+03  0.12500000000E+03 0.  0.
</event>
<event>
 5    0  0.5778896E-005  0.2677109E+03  0.7546771E-02  0.1102597E+00
         21   -1    0    0  502  501  0.00000000000E+00  0.00000000000E+00  0.28288150579E+03  0.28288150579E+03  0.00000000000E+00 0.  1.
         21   -1    0    0  501  502 -0.00000000000E+00 -0.00000000000E+00 -0.25335385214E+03  0.25335385214E+03  0.00000000000E+00 0.  1.
         25    1    1    2    0    0  0.12444208531E+03 -0.10050610462E+02 -0.32153801573E+02  0.17957091725E+03  0.12500000000E+03 0.  0.
         25    1    1    2    0    0 -0.17398270435E+03  0.12677787852E+02  0.18430785159E+02  0.21539591816E+03  0.12500000000E+03 0.  0.
         25    1    1    2    0    0  0.49540619044E+02 -0.26271773905E+01  0.43250670056E+02  0.14126852253E+03  0.12500000000E+03 0.  0.
</event>
<event>
 5    0  0.5778896E-005  0.2516990E+03  0.7546771E-02  0.1112236E+00
         21   -1    0    0  502  501  0.00000000000E+00  0.00000000000E+00  0.35413576057E+03  0.35413576057E+03  0.00000000000E+00 0.  1.
         21   -1    0    0  501  502 -0.00000000000E+00 -0.00000000000E+00 -0.17889296502E+03  0.17889296502E+03  0.00000000000E+00 0.  1.
         25    1    1    2    0    0  0.50370404721E+02  0.48258823945E+02  0.20177926711E+02  0.14456223742E+03  0.12500000000E+03 0.  0.
         25    1    1    2    0    0  0.43197877897E+02  0.74247906282E+02  0.10283379451E+03  0.18324463849E+03  0.12500000000E+03 0.  0.
         25    1    1    2    0    0 -0.93568282618E+02 -0.12250673023E+03  0.52231074330E+02  0.20522184969E+03  0.12500000000E+03 0.  0.
</event>
<event>
 5    0  0.5778896E-005  0.2685296E+03  0.7546771E-02  0.1102124E+00
         21   -1    0    0  502  501  0.00000000000E+00  0.00000000000E+00  0.84283660805E+03  0.84283660805E+03  0.00000000000E+00 0. -1.
         21   -1    0    0  501  502 -0.00000000000E+00 -0.00000000000E+00 -0.85554135611E+02  0.85554135611E+02  0.00000000000E+00 0. -1.
         25    1    1    2    0    0 -0.30030438342E+02  0.16108696442E+03  0.28328779261E+03  0.35032529280E+03  0.12500000000E+03 0.  0.
         25    1    1    2    0    0 -0.23836178983E+02 -0.12848988522E+03  0.19509277101E+03  0.26601504343E+03  0.12500000000E+03 0.  0.
         25    1    1    2    0    0  0.53866617325E+02 -0.32597079203E+02  0.27890190881E+03  0.31205040742E+03  0.12500000000E+03 0.  0.
</event>
<event>
 5    0  0.5778896E-005  0.4009406E+03  0.7546771E-02  0.1043454E+00
         21   -1    0    0  502  501  0.00000000000E+00  0.00000000000E+00  0.88473376966E+02  0.88473376966E+02  0.00000000000E+00 0. -1.
         21   -1    0    0  501  502 -0.00000000000E+00 -0.00000000000E+00 -0.18169690526E+04  0.18169690526E+04  0.00000000000E+00 0. -1.
         25    1    1    2    0    0 -0.15133626733E+03 -0.14322083552E+03 -0.67093424057E+03  0.71357734598E+03  0.12500000000E+03 0.  0.
         25    1    1    2    0    0  0.14540790018E+03 -0.37833482011E+02 -0.12118164337E+03  0.22996699869E+03  0.12500000000E+03 0.  0.
         25    1    1    2    0    0  0.59283671489E+01  0.18105431753E+03 -0.93637979172E+03  0.96189808492E+03  0.12500000000E+03 0.  0.
</event>
<event>
 5    0  0.5778896E-005  0.2061800E+03  0.7546771E-02  0.1144627E+00
         21   -1    0    0  502  501  0.00000000000E+00  0.00000000000E+00  0.21428007636E+02  0.21428007636E+02  0.00000000000E+00 0.  1.
         21   -1    0    0  501  502 -0.00000000000E+00 -0.00000000000E+00 -0.19838617181E+04  0.19838617181E+04  0.00000000000E+00 0.  1.
         25    1    1    2    0    0  0.15986824561E+02 -0.25361748870E+02 -0.80425640690E+03  0.81446434231E+03  0.12500000000E+03 0.  0.
         25    1    1    2    0    0 -0.16728197751E+02  0.15961330448E+01 -0.81729579658E+03  0.82697025300E+03  0.12500000000E+03 0.  0.
         25    1    1    2    0    0  0.74137319005E+00  0.23765615825E+02 -0.34088150702E+03  0.36385513046E+03  0.12500000000E+03 0.  0.
</event>
<event>
 5    0  0.5778896E-005  0.3988602E+03  0.7546771E-02  0.1044175E+00
         21   -1    0    0  502  501  0.00000000000E+00  0.00000000000E+00  0.14285947106E+04  0.14285947106E+04  0.00000000000E+00 0. -1.
         21   -1    0    0  501  502 -0.00000000000E+00 -0.00000000000E+00 -0.11136079090E+03  0.11136079090E+03  0.00000000000E+00 0. -1.
         25    1    1    2    0    0 -0.25645514389E+03 -0.55093727099E+02  0.43855798378E+03  0.52608237448E+03  0.12500000000E+03 0.  0.
         25    1    1    2    0    0  0.27314891201E+03  0.49706216433E+02  0.32237507818E+03  0.44343176151E+03  0.12500000000E+03 0.  0.
         25    1    1    2    0    0 -0.16693768115E+02  0.53875106655E+01  0.55630085775E+03  0.57044136552E+03  0.12500000000E+03 0.  0.
</event>
<event>
 5    0  0.5778896E-005  0.2728914E+03  0.7546771E-02  0.1099636E+00
         21   -1    0    0  502  501  0.00000000000E+00  0.00000000000E+00  0.11710885577E+04  0.11710885577E+04  0.00000000000E+00 0. -1.
         21   -1    0    0  501  502 -0.00000000000E+00 -0.00000000000E+00 -0.63590186669E+02  0.63590186669E+02  0.00000000000E+00 0. -1.
         25    1    1    2    0    0 -0.84131835627E+02 -0.59292505328E+02  0.18879255736E+03  0.24871951405E+03  0.12500000000E+03 0.  0.
         25    1    1    2    0    0  0.15876347228E+03  0.49007818218E+02  0.46532696067E+03  0.50966831048E+03  0.12500000000E+03 0.  0.
         25    1    1    2    0    0 -0.74631636655E+02  0.10284687110E+02  0.45337885301E+03  0.47629091986E+03  0.12500000000E+03 0.  0.
</event>
<event>
 5    0  0.5778896E-005  0.3229789E+03  0.7546771E-02  0.1074286E+00
         21   -1    0    0  502  501  0.00000000000E+00  0.00000000000E+00  0.23689048633E+03  0.23689048633E+03  0.00000000000E+00 0. -1.
         21   -1    0    0  501  502 -0.00000000000E+00 -0.00000000000E+00 -0.44035282892E+03  0.44035282892E+03  0.00000000000E+00 0. -1.
         25    1    1    2    0    0 -0.34742253365E+02  0.39952583340E+02 -0.30354428454E+03  0.33251671501E+03  0.12500000000E+03 0.  0.
         25    1    1    2    0    0  0.10414626544E+03  0.22875382407E+02  0.10381948479E+02  0.16462840757E+03  0.12500000000E+03 0.  0.
         25    1    1    2    0    0 -0.69404012074E+02 -0.62827965747E+02  0.89699993472E+02  0.18009819266E+03  0.12500000000E+03 0.  0.
</event>
<event>
 5    0  0.5778896E-005  0.3216250E+03  0.7546771E-02  0.1074904E+00
         21   -1    0    0  502  501  0.00000000000E+00  0.00000000000E+00  0.11292626282E+04  0.11292626282E+04  0.00000000000E+00 0.  1.
         21   -1    0    0  501  502 -0.00000000000E+00 -0.00000000000E+00 -0.91601909516E+02  0.91601909516E+02  0.00000000000E+00 0.  1.
         25    1    1    2    0    0 -0.46519514012E+02 -0.25527131671E+02  0.35273885722E+03  0.37797539738E+03  0.12500000000E+03 0.  0.
         25    1    1    2    0    0  0.17765024831E+03 -0.12824824020E+03  0.38424323424E+03  0.45964669574E+03  0.12500000000E+03 0.  0.
         25    1    1    2    0    0 -0.13113073430E+03  0.15377537188E+03  0.30067862725E+03  0.38324244462E+03  0.12500000000E+03 0.  0.
</event>
<event>
 5    0  0.5778896E-005  0.3079448E+03  0.7546771E-02  0.1081335E+00
         21   -1    0    0  502  501  0.00000000000E+00  0.00000000000E+00  0.14688340642E+03  0.14688340642E+03  0.00000000000E+00 0.  1.
         21   -1    0    0  501  502 -0.00000000000E+00 -0.00000000000E+00 -0.64561393938E+03  0.64561393938E+03  0.00000000000E+00 0. -1.
         25    1    1    2    0    0 -0.12657025755E+03 -0.90795868693E+02 -0.81548070765E+02  0.21572901454E+03  0.12500000000E+03 0.  0.
         25    1    1    2    0    0 -0.74233061316E+02  0.57502707686E+01 -0.17681497646E+03  0.22898067365E+03  0.12500000000E+03 0.  0.
         25    1    1    2    0    0  0.20080331886E+03  0.85045597924E+02 -0.24036748574E+03  0.34778765762E+03  0.12500000000E+03 0.  0.
</event>
<event>
 5    0  0.5778896E-005  0.3637104E+03  0.7546771E-02  0.1057124E+00
         21   -1    0    0  502  501  0.00000000000E+00  0.00000000000E+00  0.59712717327E+03  0.59712717327E+03  0.00000000000E+00 0. -1.
         21   -1    0    0  501  502 -0.00000000000E+00 -0.00000000000E+00 -0.22153614782E+03  0.22153614782E+03  0.00000000000E+00 0. -1.
         25    1    1    2    0    0  0.14918082801E+03  0.89848876323E+02  0.56141187706E+02  0.22159551661E+03  0.12500000000E+03 0.  0.
         25    1    1    2    0    0 -0.21394864806E+03 -0.19998642051E+03  0.15484843886E+03  0.35407856673E+03  0.12500000000E+03 0.  0.
         25    1    1    2    0    0  0.64767820048E+02  0.11013754419E+03  0.16460139888E+03  0.24298923776E+03  0.12500000000E+03 0.  0.
</event>
<event>
 5    0  0.5778896E-005  0.2254743E+03  0.7546771E-02  0.1129866E+00
         21   -1    0    0  502  501  0.00000000000E+00  0.00000000000E+00  0.82256133546E+02  0.82256133546E+02  0.00000000000E+00 0. -1.
         21   -1    0    0  501  502 -0.00000000000E+00 -0.00000000000E+00 -0.61805330446E+03  0.61805330446E+03  0.00000000000E+00 0. -1.
         25    1    1    2    0    0 -0.14138696506E+01 -0.70826221973E+02 -0.90605147508E+02  0.16986066496E+03  0.12500000000E+03 0.  0.
         25    1    1    2    0    0 -0.66913892534E+01  0.46569954043E+02 -0.11423804531E+03  0.17575228677E+03  0.12500000000E+03 0.  0.
         25    1    1    2    0    0  0.81052589040E+01  0.24256267930E+02 -0.33095397810E+03  0.35469648627E+03  0.12500000000E+03 0.  0.
</event>
<event>
 5    0  0.5778896E-005  0.3518206E+03  0.7546771E-02  0.1061870E+00
         21   -1    0    0  502  501  0.00000000000E+00  0.00000000000E+00  0.60998017631E+03  0.60998017631E+03  0.00000000000E+00 0.  1.
         21   -1    0    0  501  502 -0.00000000000E+00 -0.00000000000E+00 -0.20292085945E+03  0.20292085945E+03  0.00000000000E+00 0.  1.
         25    1    1    2    0    0 -0.89593299389E+02 -0.95237532356E+02 -0.68525895785E+02  0.19343718685E+03  0.12500000000E+03 0.  0.
         25    1    1    2    0    0  0.10591276005E+03  0.17459969110E+03  0.35303657397E+03  0.42657049527E+03  0.12500000000E+03 0.  0.
         25    1    1    2    0    0 -0.16319460664E+02 -0.79362158741E+02  0.12254863868E+03  0.19289335364E+03  0.12500000000E+03 0.  0.
</event>
<event>
 5    0  0.5778896E-005  0.3375015E+03  0.7546771E-02  0.1067865E+00
         21   -1    0    0  502  501  0.00000000000E+00  0.00000000000E+00  0.10198725003E+03  0.10198725003E+03  0.00000000000E+00 0. -1.
         21   -1    0    0  501  502 -0.00000000000E+00 -0.00000000000E+00 -0.11168775939E+04  0.11168775939E+04  0.00000000000E+00 0. -1.
         25    1    1    2    0    0 -0.35637767695E+02  0.45786065039E+02 -0.52743543539E+03  0.54514177306E+03  0.12500000000E+03 0.  0.
         25    1    1    2    0    0  0.20481702177E+03 -0.48141100232E+00 -0.18722557790E+03  0.30434957070E+03  0.12500000000E+03 0.  0.
         25    1    1    2    0    0 -0.16917925408E+03 -0.45304654037E+02 -0.30022933056E+03  0.36937350015E+03  0.12500000000E+03 0.  0.
</event>
<event>
 5    0  0.5778896E-005  0.2980739E+03  0.7546771E-02  0.1086207E+00
         21   -1    0    0  502  501  0.00000000000E+00  0.00000000000E+00  0.27187896734E+03  0.27187896734E+03  0.00000000000E+00 0. -1.
         21   -1    0    0  501  502 -0.00000000000E+00 -0.00000000000E+00 -0.32679260584E+03  0.32679260584E+03  0.00000000000E+00 0. -1.
         25    1    1    2    0    0 -0.64662102629E+02  0.33950780834E+02 -0.11756704629E+03  0.18649625575E+03  0.12500000000E+03 0.  0.
         25    1    1    2    0    0 -0.44776494348E+02  0.22083376168E+01 -0.10808084968E+03  0.17121997917E+03  0.12500000000E+03 0.  0.
         25    1    1    2    0    0  0.10943859698E+03 -0.36159118451E+02  0.17073425747E+03  0.24095533825E+03  0.12500000000E+03 0.  0.
</event>
<event>
 5    0  0.5778896E-005  0.2369075E+03  0.7546771E-02  0.1121870E+00
         21   -1    0    0  502  501  0.00000000000E+00  0.00000000000E+00  0.45423031083E+03  0.45423031083E+03  0.00000000000E+00 0. -1.
         21   -1    0    0  501  502 -0.00000000000E+00 -0.00000000000E+00 -0.12356106152E+03  0.12356106152E+03  0.00000000000E+00 0. -1.
         25    1    1    2    0    0 -0.67649547314E+02  0.30056185003E+02  0.83411132863E+02  0.16751791723E+03  0.12500000000E+03 0.  0.
         25    1    1    2    0    0  0.58576109704E+02  0.51119411613E+02  0.20985919445E+03  0.25634007951E+03  0.12500000000E+03 0.  0.
         25    1    1    2    0    0  0.90734376100E+01 -0.81175596616E+02  0.37398922001E+02  0.15393337560E+03  0.12500000000E+03 0.  0.
</event>
<event>
 5    0  0.5778896E-005  0.2329310E+03  0.7546771E-02  0.1124594E+00
         21   -1    0    0  502  501  0.00000000000E+00  0.00000000000E+00  0.24819990050E+03  0.24819990050E+03  0.00000000000E+00 0. -1.
         21   -1    0    0  501  502 -0.00000000000E+00 -0.00000000000E+00 -0.21860135585E+03  0.21860135585E+03  0.00000000000E+00 0. -1.
         25    1    1    2    0    0 -0.31473992169E+02  0.63735569160E+02  0.46695155338E+02  0.15118952507E+03  0.12500000000E+03 0.  0.
         25    1    1    2    0    0 -0.39734285605E+02  0.38525664461E+02 -0.24827510849E+02  0.13894043893E+03  0.12500000000E+03 0.  0.
         25    1    1    2    0    0  0.71208277773E+02 -0.10226123362E+03  0.77309001610E+01  0.17667129236E+03  0.12500000000E+03 0.  0.
</event>
<event>
 5    0  0.6213174E-005  0.2754863E+03  0.7546771E-02  0.1098180E+00
         21   -1    0    0  502  501  0.00000000000E+00  0.00000000000E+00  0.34694118832E+03  0.34694118832E+03  0.00000000000E+00 0.  1.
         21   -1    0    0  501  502 -0.00000000000E+00 -0.00000000000E+00 -0.21874810045E+03  0.21874810045E+03  0.00000000000E+00 0.  1.
         25    1    1    2    0    0  0.29623723769E+02 -0.99596643139E+02  0.15238294930E+03  0.22280623773E+03  0.12500000000E+03 0.  0.
         25    1    1    2    0    0 -0.14860951823E+02  0.15877139068E+03 -0.21687234627E+02  0.20377570644E+03  0.12500000000E+03 0.  0.
         25    1    1    2    0    0 -0.14762771946E+02 -0.59174747544E+02 -0.25026267980E+01  0.13910734461E+03  0.12500000000E+03 0.  0.
</event>
<event>
 5    0  0.5778896E-005  0.3430989E+03  0.7546771E-02  0.1065484E+00
         21   -1    0    0  502  501  0.00000000000E+00  0.00000000000E+00  0.14336680206E+04  0.14336680206E+04  0.00000000000E+00 0.  1.
         21   -1    0    0  501  502 -0.00000000000E+00 -0.00000000000E+00 -0.82108850250E+02  0.82108850250E+02  0.00000000000E+00 0.  1.
         25    1    1    2    0    0  0.59341641239E+02 -0.85718820901E+01  0.48457592350E+03  0.50401759214E+03  0.12500000000E+03 0.  0.
         25    1    1    2    0    0  0.70110811606E+02  0.17830817006E+03  0.62566302667E+03  0.66617456597E+03  0.12500000000E+03 0.  0.
         25    1    1    2    0    0 -0.12945245284E+03 -0.16973628797E+03  0.24132022014E+03  0.34558471269E+03  0.12500000000E+03 0.  0.
</event>
<event>
 5    0  0.5778896E-005  0.4153522E+03  0.7546771E-02  0.1038590E+00
         21   -1    0    0  502  501  0.00000000000E+00  0.00000000000E+00  0.18691407508E+03  0.18691407508E+03  0.00000000000E+00 0.  1.
         21   -1    0    0  501  502 -0.00000000000E+00 -0.00000000000E+00 -0.92297752275E+03  0.92297752275E+03  0.00000000000E+00 0.  1.
         25    1    1    2    0    0  0.28771265745E+03 -0.72136566809E+02 -0.55799682787E+03  0.64417987972E+03  0.12500000000E+03 0.  0.
         25    1    1    2    0    0 -0.15419619064E+03  0.44449817766E+02  0.76904263542E+01  0.20355931363E+03  0.12500000000E+03 0.  0.
         25    1    1    2    0    0 -0.13351646680E+03  0.27686749043E+02 -0.18575704614E+03  0.26215240447E+03  0.12500000000E+03 0.  0.
</event>
<event>
 5    0  0.5778896E-005  0.2880437E+03  0.7546771E-02  0.1091375E+00
         21   -1    0    0  502  501  0.00000000000E+00  0.00000000000E+00  0.49963885486E+02  0.49963885486E+02  0.00000000000E+00 0. -1.
         21   -1    0    0  501  502 -0.00000000000E+00 -0.00000000000E+00 -0.16605825631E+04  0.16605825631E+04  0.00000000000E+00 0. -1.
         25    1    1    2    0    0 -0.76002200339E+02  0.11121953558E+03 -0.77419338140E+03  0.79570504042E+03  0.12500000000E+03 0.  0.
         25    1    1    2    0    0 -0.53219175372E+02 -0.44844271032E+01 -0.50501439264E+03  0.52298845828E+03  0.12500000000E+03 0.  0.
         25    1    1    2    0    0  0.12922137571E+03 -0.10673510848E+03 -0.33141090353E+03  0.39185294985E+03  0.12500000000E+03 0.  0.
</event>
<event>
 5    0  0.6123387E-005  0.2679938E+03  0.7546771E-02  0.1102433E+00
         21   -1    0    0  502  501  0.00000000000E+00  0.00000000000E+00  0.27174684073E+03  0.27174684073E+03  0.00000000000E+00 0. -1.
         21   -1    0    0  501  502 -0.00000000000E+00 -0.00000000000E+00 -0.26429264636E+03  0.26429264636E+03  0.00000000000E+00 0. -1.
         25    1    1    2    0    0 -0.12258567553E+03  0.72135770430E+02 -0.43484641410E+02  0.19428518023E+03  0.12500000000E+03 0.  0.
         25    1    1    2    0    0  0.12570315996E+02 -0.88190618570E+02  0.78184252167E+02  0.17225961609E+03  0.12500000000E+03 0.  0.
         25    1    1    2    0    0  0.11001535953E+03  0.16054848139E+02 -0.27245416385E+02  0.16949469076E+03  0.12500000000E+03 0.  0.
</event>
<event>
 5    0  0.5778896E-005  0.2597042E+03  0.7546771E-02  0.1107321E+00
         21   -1    0    0  502  501  0.00000000000E+00  0.00000000000E+00  0.46115702523E+03  0.46115702523E+03  0.00000000000E+00 0. -1.
         21   -1    0    0  501  502 -0.00000000000E+00 -0.00000000000E+00 -0.14625443797E+03  0.14625443797E+03  0.00000000000E+00 0. -1.
         25    1    1    2    0    0 -0.90090339784E+02  0.35175308671E+02  0.20677115991E+02  0.15939295715E+03  0.12500000000E+03 0.  0.
         25    1    1    2    0    0  0.41339191411E+02  0.21260463673E+02  0.16394452894E+02  0.13436783152E+03  0.12500000000E+03 0.  0.
         25    1    1    2    0    0  0.48751148373E+02 -0.56435772344E+02  0.27783101837E+03  0.31365067453E+03  0.12500000000E+03 0.  0.
</event>
<event>
 5    0  0.5778896E-005  0.3879341E+03  0.7546771E-02  0.1048040E+00
         21   -1    0    0  502  501  0.00000000000E+00  0.00000000000E+00  0.12501380991E+04  0.12501380991E+04  0.00000000000E+00 0.  1.
         21   -1    0    0  501  502 -0.00000000000E+00 -0.00000000000E+00 -0.12038097595E+03  0.12038097595E+03  0.00000000000E+00 0.  1.
         25    1    1    2    0    0  0.30723336677E+03  0.57102396132E-01  0.67114260001E+03  0.74863190853E+03  0.12500000000E+03 0.  0.
         25    1    1    2    0    0 -0.19095034512E+03 -0.65048887016E+02  0.26270127984E+03  0.35402027405E+03  0.12500000000E+03 0.  0.
         25    1    1    2    0    0 -0.11628302165E+03  0.64991784620E+02  0.19591324333E+03  0.26786689251E+03  0.12500000000E+03 0.  0.
</event>
<event>
 5    0  0.5778896E-005  0.3278568E+03  0.7546771E-02  0.1072089E+00
         21   -1    0    0  502  501  0.00000000000E+00  0.00000000000E+00  0.38304491036E+03  0.38304491036E+03  0.00000000000E+00 0.  1.
         21   -1    0    0  501  502 -0.00000000000E+00 -0.00000000000E+00 -0.28061997059E+03  0.28061997059E+03  0.00000000000E+00 0.  1.
         25    1    1    2    0    0 -0.16897850275E+03 -0.14631748292E+02 -0.14320962802E+03  0.25475835611E+03  0.12500000000E+03 0.  0.
         25    1    1    2    0    0  0.13201369613E+02  0.13473942587E+02  0.10891298565E+03  0.16686180429E+03  0.12500000000E+03 0.  0.
         25    1    1    2    0    0  0.15577713314E+03  0.11578057058E+01  0.13672158213E+03  0.24204472054E+03  0.12500000000E+03 0.  0.
</event>
<event>
 5    0  0.6634513E-005  0.4019785E+03  0.7546771E-02  0.1043097E+00
         21   -1    0    0  502  501  0.00000000000E+00  0.00000000000E+00  0.22149139336E+03  0.22149139336E+03  0.00000000000E+00 0. -1.
         21   -1    0    0  501  502 -0.00000000000E+00 -0.00000000000E+00 -0.72953935951E+03  0.72953935951E+03  0.00000000000E+00 0. -1.
         25    1    1    2    0    0  0.13590716627E+03  0.10140606408E+03 -0.91839736817E+01  0.21086320933E+03  0.12500000000E+03 0.  0.
         25    1    1    2    0    0 -0.15890976807E+03  0.12951764343E+03 -0.95690652989E+02  0.25847405173E+03  0.12500000000E+03 0.  0.
         25    1    1    2    0    0  0.23002601803E+02 -0.23092370751E+03 -0.40317333948E+03  0.48169349180E+03  0.12500000000E+03 0.  0.
</event>
<event>
 5    0  0.5778896E-005  0.2752272E+03  0.7546771E-02  0.1098325E+00
         21   -1    0    0  502  501  0.00000000000E+00  0.00000000000E+00  0.18690242547E+03  0.18690242547E+03  0.00000000000E+00 0. -1.
         21   -1    0    0  501  502 -0.00000000000E+00 -0.00000000000E+00 -0.40529187314E+03  0.40529187314E+03  0.00000000000E+00 0. -1.
         25    1    1    2    0    0  0.36992499002E+02 -0.58871292768E+02 -0.54538749135E+02  0.15308085854E+03  0.12500000000E+03 0.  0.
         25    1    1    2    0    0  0.86252384381E+02  0.18230263646E+02  0.48644990857E+02  0.16050903856E+03  0.12500000000E+03 0.  0.
         25    1    1    2    0    0 -0.12324488338E+03  0.40641029122E+02 -0.21249568939E+03  0.27860440150E+03  0.12500000000E+03 0.  0.
</event>
<event>
 5    0  0.5778896E-005  0.2776131E+03  0.7546771E-02  0.1097000E+00
         21   -1    0    0  502  501  0.00000000000E+00  0.00000000000E+00  0.73598114487E+02  0.73598114487E+02  0.00000000000E+00 0.  1.
         21   -1    0    0  501  502 -0.00000000000E+00 -0.00000000000E+00 -0.10471607604E+04  0.10471607604E+04  0.00000000000E+00 0.  1.
         25    1    1    2    0    0 -0.16295855108E+03 -0.87105314338E+02 -0.39438395400E+03  0.45310763438E+03  0.12500000000E+03 0.  0.
         25    1    1    2    0    0  0.12310028035E+03  0.14738331807E+01 -0.30311211909E+03  0.35022536736E+03  0.12500000000E+03 0.  0.
         25    1    1    2    0    0  0.39858270728E+02  0.85631481157E+02 -0.27606657278E+03  0.31742587311E+03  0.12500000000E+03 0.  0.
</event>
<event>
 5    0  0.5778896E-005  0.2655322E+03  0.7546771E-02  0.1103864E+00
         21   -1    0    0  502  501  0.00000000000E+00  0.00000000000E+00  0.72146101300E+03  0.72146101300E+03  0.00000000000E+00 0. -1.
         21   -1    0    0  501  502 -0.00000000000E+00 -0.00000000000E+00 -0.97728532632E+02  0.97728532632E+02  0.00000000000E+00 0. -1.
         25    1    1    2    0    0 -0.81546292258E+01 -0.57466938607E+02  0.18128744588E+02  0.13900574949E+03  0.12500000000E+03 0.  0.
         25    1    1    2    0    0  0.23639371588E+02  0.87394008288E+02  0.18947419161E+03  0.24438085412E+03  0.12500000000E+03 0.  0.
         25    1    1    2    0    0 -0.15484742362E+02 -0.29927069682E+02  0.41612954417E+03  0.43580294202E+03  0.12500000000E+03 0.  0.
</event>
<event>
 5    0  0.5778896E-005  0.3451031E+03  0.7546771E-02  0.1064643E+00
         21   -1    0    0  502  501  0.00000000000E+00  0.00000000000E+00  0.54914602930E+03  0.54914602930E+03  0.00000000000E+00 0.  1.
         21   -1    0    0  501  502 -0.00000000000E+00 -0.00000000000E+00 -0.21687516587E+03  0.21687516587E+03  0.00000000000E+00 0.  1.
         25    1    1    2    0    0  0.77543409667E+02  0.13718692149E+03  0.21443253001E+01  0.20115374703E+03  0.12500000000E+03 0.  0.
         25    1    1    2    0    0 -0.42315239976E+02 -0.25167974055E+03  0.22346243459E+03  0.36151587933E+03  0.12500000000E+03 0.  0.
         25    1    1    2    0    0 -0.35228169692E+02  0.11449281906E+03  0.10666410354E+03  0.20335156881E+03  0.12500000000E+03 0.  0.
</event>
<event>
 5    0  0.5778896E-005  0.3306034E+03  0.7546771E-02  0.1070870E+00
         21   -1    0    0  502  501  0.00000000000E+00  0.00000000000E+00  0.14163908408E+03  0.14163908408E+03  0.00000000000E+00 0.  1.
         21   -1    0    0  501  502 -0.00000000000E+00 -0.00000000000E+00 -0.77166972412E+03  0.77166972412E+03  0.00000000000E+00 0.  1.
         25    1    1    2    0    0  0.20810713932E+03  0.13127294307E+02 -0.32579996255E+03  0.40651140561E+03  0.12500000000E+03 0.  0.
         25    1    1    2    0    0  0.37986903819E+01 -0.41568516806E+02 -0.19676842484E+03  0.23682310836E+03  0.12500000000E+03 0.  0.
         25    1    1    2    0    0 -0.21190582970E+03  0.28441222498E+02 -0.10746225265E+03  0.26997429423E+03  0.12500000000E+03 0.  0.
</event>
<event>
 5    0  0.5778896E-005  0.4855585E+03  0.7546771E-02  0.1017619E+00
         21   -1    0    0  502  501  0.00000000000E+00  0.00000000000E+00  0.66856276301E+03  0.66856276301E+03  0.00000000000E+00 0.  1.
         21   -1    0    0  501  502 -0.00000000000E+00 -0.00000000000E+00 -0.35264764178E+03  0.35264764178E+03  0.00000000000E+00 0.  1.
         25    1    1    2    0    0 -0.20925044896E+03  0.22134505560E+03 -0.33365663284E+02  0.33093451242E+03  0.12500000000E+03 0.  0.
         25    1    1    2    0    0 -0.84762101511E+02  0.19646595924E+02 -0.97921201716E+01  0.15261549135E+03  0.12500000000E+03 0.  0.
         25    1    1    2    0    0  0.29401255047E+03 -0.24099165152E+03  0.35907290469E+03  0.53766040101E+03  0.12500000000E+03 0.  0.
</event>
<event>
 5    0  0.5778896E-005  0.7992804E+03  0.7546771E-02  0.9561059E-01
         21   -1    0    0  502  501  0.00000000000E+00  0.00000000000E+00  0.38882448686E+03  0.38882448686E+03  0.00000000000E+00 0. -1.
         21   -1    0    0  501  502 -0.00000000000E+00 -0.00000000000E+00 -0.16430270219E+04  0.16430270219E+04  0.00000000000E+00 0. -1.
         25    1    1    2    0    0  0.27697519752E+03  0.41756531677E+03 -0.51590240758E+03  0.72997010073E+03  0.12500000000E+03 0.  0.
         25    1    1    2    0    0  0.33350137435E+01  0.17440700706E+03  0.94952768768E+02  0.23466988457E+03  0.12500000000E+03 0.  0.
         25    1    1    2    0    0 -0.28031021127E+03 -0.59197232384E+03 -0.83325289624E+03  0.10672115235E+04  0.12500000000E+03 0.  0.
</event>
<event>
 5    0  0.5778896E-005  0.2681507E+03  0.7546771E-02  0.1102343E+00
         21   -1    0    0  502  501  0.00000000000E+00  0.00000000000E+00  0.88365044744E+02  0.88365044744E+02  0.00000000000E+00 0. -1.
         21   -1    0    0  501  502 -0.00000000000E+00 -0.00000000000E+00 -0.81372434496E+03  0.81372434496E+03  0.00000000000E+00 0. -1.
         25    1    1    2    0    0  0.13202170021E+03 -0.79980651782E+02 -0.43683067633E+03  0.47986735018E+03  0.12500000000E+03 0.  0.
         25    1    1    2    0    0 -0.14556023551E+02  0.28278224449E+02 -0.12661245800E+03  0.18074083744E+03  0.12500000000E+03 0.  0.
         25    1    1    2    0    0 -0.11746567665E+03  0.51702427333E+02 -0.16191616589E+03  0.24148120209E+03  0.12500000000E+03 0.  0.
</event>
<event>
 5    0  0.5778896E-005  0.8137768E+03  0.7546771E-02  0.9540287E-01
         21   -1    0    0  502  501  0.00000000000E+00  0.00000000000E+00  0.31035228577E+04  0.31035228577E+04  0.00000000000E+00 0.  1.
         21   -1    0    0  501  502 -0.00000000000E+00 -0.00000000000E+00 -0.21338094788E+03  0.21338094788E+03  0.00000000000E+00 0.  1.
         25    1    1    2    0    0 -0.43493699372E+03  0.47667139869E+03  0.91642157736E+03  0.11277585372E+04  0.12500000000E+03 0.  0.
         25    1    1    2    0    0  0.52879936058E+03 -0.31785401777E+03  0.17990444929E+04  0.19060026306E+04  0.12500000000E+03 0.  0.
         25    1    1    2    0    0 -0.93862366857E+02 -0.15881738092E+03  0.17467583955E+03  0.28314263776E+03  0.12500000000E+03 0.  0.
</event>
<event>
 5    0  0.5778896E-005  0.2529408E+03  0.7546771E-02  0.1111460E+00
         21   -1    0    0  502  501  0.00000000000E+00  0.00000000000E+00  0.11902576847E+04  0.11902576847E+04  0.00000000000E+00 0.  1.
         21   -1    0    0  501  502 -0.00000000000E+00 -0.00000000000E+00 -0.53752257550E+02  0.53752257550E+02  0.00000000000E+00 0.  1.
         25    1    1    2    0    0  0.62988960826E+02 -0.31576783491E+02  0.34207357617E+03  0.37095017718E+03  0.12500000000E+03 0.  0.
         25    1    1    2    0    0 -0.67912125433E+02  0.10177585730E+03  0.22039149396E+03  0.28136771762E+03  0.12500000000E+03 0.  0.
         25    1    1    2    0    0  0.49231646066E+01 -0.70199073811E+02  0.57404035698E+03  0.59169204740E+03  0.12500000000E+03 0.  0.
</event>
<event>
 5    0  0.5778896E-005  0.4989206E+03  0.7546771E-02  0.1014061E+00
         21   -1    0    0  502  501  0.00000000000E+00  0.00000000000E+00  0.54816588333E+03  0.54816588333E+03  0.00000000000E+00 0. -1.
         21   -1    0    0  501  502 -0.00000000000E+00 -0.00000000000E+00 -0.45409941737E+03  0.45409941737E+03  0.00000000000E+00 0. -1.
         25    1    1    2    0    0  0.21586359018E+03 -0.38479065055E+02 -0.28788370846E+03  0.38285735935E+03  0.12500000000E+03 0.  0.
         25    1    1    2    0    0 -0.45592362189E+02 -0.45583614317E+02 -0.34615708158E+02  0.14484397342E+03  0.12500000000E+03 0.  0.
         25    1    1    2    0    0 -0.17027122799E+03  0.84062679373E+02  0.41656588257E+03  0.47456396794E+03  0.12500000000E+03 0.  0.
</event>
<event>
 5    0  0.5778896E-005  0.3402413E+03  0.7546771E-02  0.1066693E+00
         21   -1    0    0  502  501  0.00000000000E+00  0.00000000000E+00  0.26331110374E+03  0.26331110374E+03  0.00000000000E+00 0.  1.
         21   -1    0    0  501  502 -0.00000000000E+00 -0.00000000000E+00 -0.43964778674E+03  0.43964778674E+03  0.00000000000E+00 0.  1.
         25    1    1    2    0    0 -0.28787879104E+02 -0.21874548972E+03  0.65324790940E+02  0.26185999994E+03  0.12500000000E+03 0.  0.
         25    1    1    2    0    0  0.49366150042E+01  0.88521886759E+02 -0.20402951752E+03  0.25517354609E+03  0.12500000000E+03 0.  0.
         25    1    1    2    0    0  0.23851264100E+02  0.13022360296E+03 -0.37631956417E+02  0.18592534446E+03  0.12500000000E+03 0.  0.
</event>
<event>
 5    0  0.5778896E-005  0.2150523E+03  0.7546771E-02  0.1137626E+00
         21   -1    0    0  502  501  0.00000000000E+00  0.00000000000E+00  0.39364963819E+03  0.39364963819E+03  0.00000000000E+00 0. -1.
         21   -1    0    0  501  502 -0.00000000000E+00 -0.00000000000E+00 -0.11748387833E+03  0.11748387833E+03  0.00000000000E+00 0. -1.
         25    1    1    2    0    0  0.13759026704E+02  0.50343839731E+02  0.20948776189E+02  0.13706810073E+03  0.12500000000E+03 0.  0.
         25    1    1    2    0    0  0.30949162259E+02 -0.21866940896E+02  0.16755046410E+03  0.21244804487E+03  0.12500000000E+03 0.  0.
         25    1    1    2    0    0 -0.44708188963E+02 -0.28476898835E+02  0.87666519575E+02  0.16161737092E+03  0.12500000000E+03 0.  0.
</event>
<event>
 5    0  0.5778896E-005  0.3276539E+03  0.7546771E-02  0.1072180E+00
         21   -1    0    0  502  501  0.00000000000E+00  0.00000000000E+00  0.16839963641E+03  0.16839963641E+03  0.00000000000E+00 0.  1.
         21   -1    0    0  501  502 -0.00000000000E+00 -0.00000000000E+00 -0.63751380466E+03  0.63751380466E+03  0.00000000000E+00 0.  1.
         25    1    1    2    0    0  0.36630809665E+02  0.41619371212E+02 -0.16417056889E+01  0.13675409857E+03  0.12500000000E+03 0.  0.
         25    1    1    2    0    0  0.14384128520E+03  0.99445072980E+02 -0.17486630837E+03  0.27709720979E+03  0.12500000000E+03 0.  0.
         25    1    1    2    0    0 -0.18047209486E+03 -0.14106444419E+03 -0.29260615419E+03  0.39206213271E+03  0.12500000000E+03 0.  0.
</event>
<event>
 5    0  0.5800480E-005  0.3046969E+03  0.7546771E-02  0.1082916E+00
         21   -1    0    0  502  501  0.00000000000E+00  0.00000000000E+00  0.34178931529E+03  0.34178931529E+03  0.00000000000E+00 0.  1.
         21   -1    0    0  501  502 -0.00000000000E+00 -0.00000000000E+00 -0.27162982332E+03  0.27162982332E+03  0.00000000000E+00 0.  1.
         25    1    1    2    0    0 -0.53388490042E+02  0.28394429301E+02 -0.54288620968E+02  0.14909335616E+03  0.12500000000E+03 0.  0.
         25    1    1    2    0    0  0.84801076272E+02  0.10331199102E+03  0.19461479455E+03  0.26714136386E+03  0.12500000000E+03 0.  0.
         25    1    1    2    0    0 -0.31412586230E+02 -0.13170642032E+03 -0.70166681614E+02  0.19718441860E+03  0.12500000000E+03 0.  0.
</event>
<event>
 5    0  0.5778896E-005  0.2035019E+03  0.7546771E-02  0.1146818E+00
         21   -1    0    0  502  501  0.00000000000E+00  0.00000000000E+00  0.93790058890E+02  0.93790058890E+02  0.00000000000E+00 0. -1.
         21   -1    0    0  501  502 -0.00000000000E+00 -0.00000000000E+00 -0.44155004415E+03  0.44155004415E+03  0.00000000000E+00 0. -1.
         25    1    1    2    0    0  0.57632883841E+02  0.93183615514E+01 -0.86912111008E+02  0.16305550037E+03  0.12500000000E+03 0.  0.
         25    1    1    2    0    0 -0.49715617314E+02  0.20272301371E+02 -0.11889039461E+03  0.18067245152E+03  0.12500000000E+03 0.  0.
         25    1    1    2    0    0 -0.79172665270E+01 -0.29590662922E+02 -0.14195747965E+03  0.19161215115E+03  0.12500000000E+03 0.  0.
</event>
<event>
 5    0  0.6088772E-005  0.4230957E+03  0.7546771E-02  0.1036063E+00
         21   -1    0    0  502  501  0.00000000000E+00  0.00000000000E+00  0.66716987088E+03  0.66716987088E+03  0.00000000000E+00 0. -1.
         21   -1    0    0  501  502 -0.00000000000E+00 -0.00000000000E+00 -0.26831246803E+03  0.26831246803E+03  0.00000000000E+00 0. -1.
         25    1    1    2    0    0  0.20800258341E+03  0.24782767487E+02  0.12320911161E+03  0.27328509922E+03  0.12500000000E+03 0.  0.
         25    1    1    2    0    0 -0.13698774042E+03 -0.15792309062E+03  0.37136800637E+03  0.44412221261E+03  0.12500000000E+03 0.  0.
         25    1    1    2    0    0 -0.71014842994E+02  0.13314032313E+03 -0.95719715133E+02  0.21807502707E+03  0.12500000000E+03 0.  0.
</event>
<event>
 5    0  0.5778896E-005  0.3594649E+03  0.7546771E-02  0.1058796E+00
         21   -1    0    0  502  501  0.00000000000E+00  0.00000000000E+00  0.91834605949E+02  0.91834605949E+02  0.00000000000E+00 0. -1.
         21   -1    0    0  501  502 -0.00000000000E+00 -0.00000000000E+00 -0.14070404233E+04  0.14070404233E+04  0.00000000000E+00 0. -1.
         25    1    1    2    0    0  0.16451446948E+03  0.31948199658E+02 -0.49773839241E+03  0.53986498813E+03  0.12500000000E+03 0.  0.
         25    1    1    2    0    0  0.11851462869E+03 -0.67922652850E+02 -0.24271184176E+03  0.30527568216E+03  0.12500000000E+03 0.  0.
         25    1    1    2    0    0 -0.28302909817E+03  0.35974453192E+02 -0.57475558320E+03  0.65373435898E+03  0.12500000000E+03 0.  0.
</event>
<event>
 5    0  0.5778896E-005  0.4131763E+03  0.7546771E-02  0.1039310E+00
         21   -1    0    0  502  501  0.00000000000E+00  0.00000000000E+00  0.16845190163E+04  0.16845190163E+04  0.00000000000E+00 0. -1.
         21   -1    0    0  501  502 -0.00000000000E+00 -0.00000000000E+00 -0.10134326915E+03  0.10134326915E+03  0.00000000000E+00 0. -1.
         25    1    1    2    0    0 -0.79186481714E+02  0.31509217779E+03  0.10111832008E+04  0.10694251003E+04  0.12500000000E+03 0.  0.
         25    1    1    2    0    0  0.27083181448E+02 -0.12492901637E+03  0.35607103471E+03  0.39843737225E+03  0.12500000000E+03 0.  0.
         25    1    1    2    0    0  0.52103300265E+02 -0.19016316142E+03  0.21592151161E+03  0.31799981295E+03  0.12500000000E+03 0.  0.
</event>
<event>
 5    0  0.5778896E-005  0.2793562E+03  0.7546771E-02  0.1096041E+00
         21   -1    0    0  502  501  0.00000000000E+00  0.00000000000E+00  0.18462823256E+03  0.18462823256E+03  0.00000000000E+00 0. -1.
         21   -1    0    0  501  502 -0.00000000000E+00 -0.00000000000E+00 -0.42268653166E+03  0.42268653166E+03  0.00000000000E+00 0. -1.
         25    1    1    2    0    0 -0.64737367759E+02 -0.54582990613E+02 -0.99560686721E+02  0.18085231541E+03  0.12500000000E+03 0.  0.
         25    1    1    2    0    0 -0.94465176065E+02  0.96003912432E+01  0.29346672366E+02  0.15969365729E+03  0.12500000000E+03 0.  0.
         25    1    1    2    0    0  0.15920254382E+03  0.44982599370E+02 -0.16784428475E+03  0.26676879152E+03  0.12500000000E+03 0.  0.
</event>
<event>
 5    0  0.5778896E-005  0.3431221E+03  0.7546771E-02  0.1065474E+00
         21   -1    0    0  502  501  0.00000000000E+00  0.00000000000E+00  0.14929586870E+04  0.14929586870E+04  0.00000000000E+00 0.  1.
         21   -1    0    0  501  502 -0.00000000000E+00 -0.00000000000E+00 -0.78858679642E+02  0.78858679642E+02  0.00000000000E+00 0.  1.
         25    1    1    2    0    0  0.14120806556E+03  0.15821639364E+03  0.70241081022E+03  0.74429704507E+03  0.12500000000E+03 0.  0.
         25    1    1    2    0    0 -0.25781887870E+02 -0.15364351262E+03  0.17868611744E+03  0.26800142402E+03  0.12500000000E+03 0.  0.
         25    1    1    2    0    0 -0.11542617769E+03 -0.45728810201E+01  0.53300307967E+03  0.55951889751E+03  0.12500000000E+03 0.  0.
</event>
<event>
 5    0  0.5778896E-005  0.3652274E+03  0.7546771E-02  0.1056533E+00
         21   -1    0    0  502  501  0.00000000000E+00  0.00000000000E+00  0.11087064229E+04  0.11087064229E+04  0.00000000000E+00 0. -1.
         21   -1    0    0  501  502 -0.00000000000E+00 -0.00000000000E+00 -0.12031234611E+03  0.12031234611E+03  0.00000000000E+00 0. -1.
         25    1    1    2    0    0  0.97452580516E+02  0.92160736818E+02  0.12217636379E+03  0.22032401306E+03  0.12500000000E+03 0.  0.
         25    1    1    2    0    0 -0.66164202201E+02 -0.25643124557E+03  0.62136167755E+03  0.68691340043E+03  0.12500000000E+03 0.  0.
         25    1    1    2    0    0 -0.31288378315E+02  0.16427050875E+03  0.24485603541E+03  0.32178135549E+03  0.12500000000E+03 0.  0.
</event>
<event>
 5    0  0.5778896E-005  0.3652590E+03  0.7546771E-02  0.1056521E+00
         21   -1    0    0  502  501  0.00000000000E+00  0.00000000000E+00  0.16349027686E+04  0.16349027686E+04  0.00000000000E+00 0.  1.
         21   -1    0    0  501  502 -0.00000000000E+00 -0.00000000000E+00 -0.81603700197E+02  0.81603700197E+02  0.00000000000E+00 0.  1.
         25    1    1    2    0    0  0.16033225895E+03  0.21002157499E+03  0.50014721403E+03  0.57929934484E+03  0.12500000000E+03 0.  0.
         25    1    1    2    0    0 -0.19387692755E+03 -0.18794971871E+03  0.71310064475E+03  0.77269068154E+03  0.12500000000E+03 0.  0.
         25    1    1    2    0    0  0.33544668596E+02 -0.22071856283E+02  0.34005120962E+03  0.36451644242E+03  0.12500000000E+03 0.  0.
</event>
<event>
 5    0  0.5778896E-005  0.3692550E+03  0.7546771E-02  0.1054978E+00
         21   -1    0    0  502  501  0.00000000000E+00  0.00000000000E+00  0.13484996513E+03  0.13484996513E+03  0.00000000000E+00 0.  1.
         21   -1    0    0  501  502 -0.00000000000E+00 -0.00000000000E+00 -0.10111181031E+04  0.10111181031E+04  0.00000000000E+00 0. -1.
         25    1    1    2    0    0  0.17977663084E+03  0.11082649956E+02 -0.49510038234E+03  0.54147192976E+03  0.12500000000E+03 0.  0.
         25    1    1    2    0    0 -0.26042194596E+03  0.40874879197E+02 -0.15940363027E+03  0.33245279820E+03  0.12500000000E+03 0.  0.
         25    1    1    2    0    0  0.80645315119E+02 -0.51957529154E+02 -0.22176412540E+03  0.27204334030E+03  0.12500000000E+03 0.  0.
</event>
<event>
 5    0  0.5778896E-005  0.3109537E+03  0.7546771E-02  0.1079890E+00
         21   -1    0    0  502  501  0.00000000000E+00  0.00000000000E+00  0.40473694756E+03  0.40473694756E+03  0.00000000000E+00 0. -1.
         21   -1    0    0  501  502 -0.00000000000E+00 -0.00000000000E+00 -0.23890128578E+03  0.23890128578E+03  0.00000000000E+00 0. -1.
         25    1    1    2    0    0 -0.23025196515E+02  0.19084725936E+03  0.10051702868E+03  0.25036275509E+03  0.12500000000E+03 0.  0.
         25    1    1    2    0    0  0.93714670011E+02 -0.18739925377E+03  0.47031594862E+02  0.24847110618E+03  0.12500000000E+03 0.  0.
         25    1    1    2    0    0 -0.70689473496E+02 -0.34480055880E+01  0.18287038241E+02  0.14480437208E+03  0.12500000000E+03 0.  0.
</event>
<event>
 5    0  0.6184389E-005  0.5386375E+03  0.7546771E-02  0.1004159E+00
         21   -1    0    0  502  501  0.00000000000E+00  0.00000000000E+00  0.83770739965E+03  0.83770739965E+03  0.00000000000E+00 0.  1.
         21   -1    0    0  501  502 -0.00000000000E+00 -0.00000000000E+00 -0.34633848658E+03  0.34633848658E+03  0.00000000000E+00 0.  1.
         25    1    1    2    0    0  0.15286866378E+03  0.68195860535E+02 -0.20699860074E+03  0.29409679439E+03  0.12500000000E+03 0.  0.
         25    1    1    2    0    0 -0.28532318837E+02  0.19485848894E+03  0.33100983799E+03  0.40494004097E+03  0.12500000000E+03 0.  0.
         25    1    1    2    0    0 -0.12433634495E+03 -0.26305434948E+03  0.36735767582E+03  0.48500905088E+03  0.12500000000E+03 0.  0.
</event>
<event>
 5    0  0.5778896E-005  0.2733480E+03  0.7546771E-02  0.1099379E+00
         21   -1    0    0  502  501  0.00000000000E+00  0.00000000000E+00  0.19545617645E+03  0.19545617645E+03  0.00000000000E+00 0. -1.
         21   -1    0    0  501  502 -0.00000000000E+00 -0.00000000000E+00 -0.38228067904E+03  0.38228067904E+03  0.00000000000E+00 0. -1.
         25    1    1    2    0    0  0.14110620951E+03 -0.37788033856E+01 -0.10689500074E+01  0.18855074747E+03  0.12500000000E+03 0.  0.
         25    1    1    2    0    0 -0.32124701367E+02 -0.84297736387E+02 -0.79906226676E+02  0.17363211068E+03  0.12500000000E+03 0.  0.
         25    1    1    2    0    0 -0.10898150814E+03  0.88076539773E+02 -0.10584932590E+03  0.21555399734E+03  0.12500000000E+03 0.  0.
</event>
<event>
 5    0  0.5778896E-005  0.3505408E+03  0.7546771E-02  0.1062393E+00
         21   -1    0    0  502  501  0.00000000000E+00  0.00000000000E+00  0.82234206447E+03  0.82234206447E+03  0.00000000000E+00 0.  1.
         21   -1    0    0  501  502 -0.00000000000E+00 -0.00000000000E+00 -0.14942546138E+03  0.14942546138E+03  0.00000000000E+00 0.  1.
         25    1    1    2    0    0  0.22734756980E+01  0.13147177904E+03  0.21242266769E+03  0.27935351640E+03  0.12500000000E+03 0.  0.
         25    1    1    2    0    0  0.21410951262E+01  0.12721464257E+02 -0.59099676694E+02  0.13886753302E+03  0.12500000000E+03 0.  0.
         25    1    1    2    0    0 -0.44145708242E+01 -0.14419324330E+03  0.51959361210E+03  0.55354647644E+03  0.12500000000E+03 0.  0.
</event>
<event>
 5    0  0.5778896E-005  0.3262286E+03  0.7546771E-02  0.1072818E+00
         21   -1    0    0  502  501  0.00000000000E+00  0.00000000000E+00  0.28225643085E+03  0.28225643085E+03  0.00000000000E+00 0. -1.
         21   -1    0    0  501  502 -0.00000000000E+00 -0.00000000000E+00 -0.37705104925E+03  0.37705104925E+03  0.00000000000E+00 0. -1.
         25    1    1    2    0    0 -0.19434814786E+03  0.11962971076E+02  0.12959192841E+03  0.26520441769E+03  0.12500000000E+03 0.  0.
         25    1    1    2    0    0  0.60650393649E+02  0.98850560439E+01 -0.10593321980E+03  0.17499437603E+03  0.12500000000E+03 0.  0.
         25    1    1    2    0    0  0.13369775421E+03 -0.21848027120E+02 -0.11845332700E+03  0.21910868638E+03  0.12500000000E+03 0.  0.
</event>
<event>
 5    0  0.5778896E-005  0.3452926E+03  0.7546771E-02  0.1064564E+00
         21   -1    0    0  502  501  0.00000000000E+00  0.00000000000E+00  0.37788779413E+03  0.37788779413E+03  0.00000000000E+00 0.  1.
         21   -1    0    0  501  502 -0.00000000000E+00 -0.00000000000E+00 -0.31550894431E+03  0.31550894431E+03  0.00000000000E+00 0.  1.
         25    1    1    2    0    0 -0.81600452787E+02 -0.40981829973E+02 -0.71553027544E+02  0.17053732739E+03  0.12500000000E+03 0.  0.
         25    1    1    2    0    0  0.12681073375E+03 -0.41026728471E+01 -0.13231561486E+03  0.22187883192E+03  0.12500000000E+03 0.  0.
         25    1    1    2    0    0 -0.45210280959E+02  0.45084502821E+02  0.26624749222E+03  0.30098057913E+03  0.12500000000E+03 0.  0.
</event>
<event>
 5    0  0.5778896E-005  0.3094936E+03  0.7546771E-02  0.1080589E+00
         21   -1    0    0  502  501  0.00000000000E+00  0.00000000000E+00  0.34910103512E+03  0.34910103512E+03  0.00000000000E+00 0.  1.
         21   -1    0    0  501  502 -0.00000000000E+00 -0.00000000000E+00 -0.27437978531E+03  0.27437978531E+03  0.00000000000E+00 0.  1.
         25    1    1    2    0    0  0.44847429177E+02 -0.41675540251E+02  0.20020339574E+02  0.14061990099E+03  0.12500000000E+03 0.  0.
         25    1    1    2    0    0  0.90628975256E+02  0.72096510431E+02  0.18771379286E+03  0.25352117466E+03  0.12500000000E+03 0.  0.
         25    1    1    2    0    0 -0.13547640443E+03 -0.30420970180E+02 -0.13301288263E+03  0.22933974477E+03  0.12500000000E+03 0.  0.
</event>
<event>
 5    0  0.5778896E-005  0.4583862E+03  0.7546771E-02  0.1025250E+00
         21   -1    0    0  502  501  0.00000000000E+00  0.00000000000E+00  0.10897396916E+04  0.10897396916E+04  0.00000000000E+00 0. -1.
         21   -1    0    0  501  502 -0.00000000000E+00 -0.00000000000E+00 -0.19281480120E+03  0.19281480120E+03  0.00000000000E+00 0. -1.
         25    1    1    2    0    0  0.20270019058E+03  0.35530761390E+02  0.50008450797E+03  0.55503091569E+03  0.12500000000E+03 0.  0.
         25    1    1    2    0    0  0.17559951928E+01  0.19495954715E+03  0.30426703820E+03  0.38238166677E+03  0.12500000000E+03 0.  0.
         25    1    1    2    0    0 -0.20445618577E+03 -0.23049030854E+03  0.92573344253E+02  0.34514191037E+03  0.12500000000E+03 0.  0.
</event>
<event>
 5    0  0.5778896E-005  0.4878435E+03  0.7546771E-02  0.1017002E+00
         21   -1    0    0  502  501  0.00000000000E+00  0.00000000000E+00  0.94692492532E+03  0.94692492532E+03  0.00000000000E+00 0.  1.
         21   -1    0    0  501  502 -0.00000000000E+00 -0.00000000000E+00 -0.25133062487E+03  0.25133062487E+03  0.00000000000E+00 0.  1.
         25    1    1    2    0    0 -0.25181261025E+03  0.21937963707E+02 -0.11138409522E+03  0.30318687571E+03  0.12500000000E+03 0.  0.
         25    1    1    2    0    0  0.22190628692E+03 -0.19897685180E+02  0.48039131842E+03  0.54409478665E+03  0.12500000000E+03 0.  0.
         25    1    1    2    0    0  0.29906323331E+02 -0.20402785276E+01  0.32658707724E+03  0.35097388783E+03  0.12500000000E+03 0.  0.
</event>
<event>
 5    0  0.5778896E-005  0.2632043E+03  0.7546771E-02  0.1105233E+00
         21   -1    0    0  502  501  0.00000000000E+00  0.00000000000E+00  0.52364304428E+03  0.52364304428E+03  0.00000000000E+00 0. -1.
         21   -1    0    0  501  502 -0.00000000000E+00 -0.00000000000E+00 -0.13229720974E+03  0.13229720974E+03  0.00000000000E+00 0. -1.
         25    1    1    2    0    0 -0.85199139768E+02 -0.30958411234E+02  0.12941816707E+03  0.20147302204E+03  0.12500000000E+03 0.  0.
         25    1    1    2    0    0  0.59269836372E+02 -0.57154621862E+02 -0.43220082196E+00  0.14968216694E+03  0.12500000000E+03 0.  0.
         25    1    1    2    0    0  0.25929303396E+02  0.88113033096E+02  0.26235986829E+03  0.30478506503E+03  0.12500000000E+03 0.  0.
</event>
<event>
 5    0  0.6235087E-005  0.3709778E+03  0.7546771E-02  0.1054320E+00
         21   -1    0    0  502  501  0.00000000000E+00  0.00000000000E+00  0.60150768431E+03  0.60150768431E+03  0.00000000000E+00 0. -1.
         21   -1    0    0  501  502 -0.00000000000E+00 -0.00000000000E+00 -0.22879927475E+03  0.22879927475E+03  0.00000000000E+00 0. -1.
         25    1    1    2    0    0 -0.37023914287E+02 -0.93016468492E+02 -0.12265459634E+03  0.20172254123E+03  0.12500000000E+03 0.  0.
         25    1    1    2    0    0 -0.69957519080E+02  0.15464209692E+03  0.28555091057E+03  0.35492612632E+03  0.12500000000E+03 0.  0.
         25    1    1    2    0    0  0.10698143337E+03 -0.61625628431E+02  0.20981209533E+03  0.27365829151E+03  0.12500000000E+03 0.  0.
</event>
<event>
 5    0  0.5778896E-005  0.2849758E+03  0.7546771E-02  0.1093002E+00
         21   -1    0    0  502  501  0.00000000000E+00  0.00000000000E+00  0.10208010323E+04  0.10208010323E+04  0.00000000000E+00 0. -1.
         21   -1    0    0  501  502 -0.00000000000E+00 -0.00000000000E+00 -0.79556375026E+02  0.79556375026E+02  0.00000000000E+00 0. -1.
         25    1    1    2    0    0 -0.10385193901E+03 -0.10483438041E+03  0.38882094027E+03  0.43426051644E+03  0.12500000000E+03 0.  0.
         25    1    1    2    0    0  0.23399883475E+02 -0.25981403363E+02  0.76601136141E+02  0.15071603075E+03  0.12500000000E+03 0.  0.
         25    1    1    2    0    0  0.80452055537E+02  0.13081578377E+03  0.47582258082E+03  0.51538086008E+03  0.12500000000E+03 0.  0.
</event>
<event>
 5    0  0.5778896E-005  0.4881736E+03  0.7546771E-02  0.1016913E+00
         21   -1    0    0  502  501  0.00000000000E+00  0.00000000000E+00  0.33265275214E+03  0.33265275214E+03  0.00000000000E+00 0.  1.
         21   -1    0    0  501  502 -0.00000000000E+00 -0.00000000000E+00 -0.71640315130E+03  0.71640315130E+03  0.00000000000E+00 0.  1.
         25    1    1    2    0    0  0.39843945016E+02  0.26352400824E+03 -0.20561123148E+03  0.35907300287E+03  0.12500000000E+03 0.  0.
         25    1    1    2    0    0  0.51282292356E+02  0.15936233348E+03 -0.94849373791E+01  0.20914394775E+03  0.12500000000E+03 0.  0.
         25    1    1    2    0    0 -0.91126237372E+02 -0.42288634172E+03 -0.16865423030E+03  0.48083895282E+03  0.12500000000E+03 0.  0.
</event>
<event>
 5    0  0.5778896E-005  0.3062715E+03  0.7546771E-02  0.1082147E+00
         21   -1    0    0  502  501  0.00000000000E+00  0.00000000000E+00  0.68587744345E+02  0.68587744345E+02  0.00000000000E+00 0.  1.
         21   -1    0    0  501  502 -0.00000000000E+00 -0.00000000000E+00 -0.13676242457E+04  0.13676242457E+04  0.00000000000E+00 0.  1.
         25    1    1    2    0    0  0.63366455853E+02 -0.84489368232E+01 -0.44283779616E+03  0.46456108960E+03  0.12500000000E+03 0.  0.
         25    1    1    2    0    0 -0.14621978115E+03 -0.13763272167E+03 -0.33601390177E+03  0.41091767139E+03  0.12500000000E+03 0.  0.
         25    1    1    2    0    0  0.82853325301E+02  0.14608165849E+03 -0.52018480344E+03  0.56073322907E+03  0.12500000000E+03 0.  0.
</event>
<event>
 5    0  0.5778896E-005  0.3389455E+03  0.7546771E-02  0.1067246E+00
         21   -1    0    0  502  501  0.00000000000E+00  0.00000000000E+00  0.95968908426E+02  0.95968908426E+02  0.00000000000E+00 0.  1.
         21   -1    0    0  501  502 -0.00000000000E+00 -0.00000000000E+00 -0.11970965482E+04  0.11970965482E+04  0.00000000000E+00 0.  1.
         25    1    1    2    0    0  0.12798910894E+03 -0.64672343131E+02 -0.54263952091E+02  0.19782138527E+03  0.12500000000E+03 0.  0.
         25    1    1    2    0    0 -0.87804297839E+02 -0.34376425298E+02 -0.47022206237E+03  0.49560581239E+03  0.12500000000E+03 0.  0.
         25    1    1    2    0    0 -0.40184811105E+02  0.99048768429E+02 -0.57664162534E+03  0.59963825899E+03  0.12500000000E+03 0.  0.
</event>
<event>
 5    0  0.5778896E-005  0.3081827E+03  0.7546771E-02  0.1081220E+00
         21   -1    0    0  502  501  0.00000000000E+00  0.00000000000E+00  0.10788029428E+04  0.10788029428E+04  0.00000000000E+00 0. -1.
         21   -1    0    0  501  502 -0.00000000000E+00 -0.00000000000E+00 -0.88038880823E+02  0.88038880823E+02  0.00000000000E+00 0. -1.
         25    1    1    2    0    0  0.16909697735E+03  0.21724527750E+02  0.38897382591E+03  0.44270913712E+03  0.12500000000E+03 0.  0.
         25    1    1    2    0    0  0.45637698675E+02 -0.67644351625E+02  0.24598005498E+03  0.28773207206E+03  0.12500000000E+03 0.  0.
         25    1    1    2    0    0 -0.21473467602E+03  0.45919823874E+02  0.35581018110E+03  0.43640061445E+03  0.12500000000E+03 0.  0.
</event>
<event>
 5    0  0.5778896E-005  0.6022212E+03  0.7546771E-02  0.9900809E-01
         21   -1    0    0  502  501  0.00000000000E+00  0.00000000000E+00  0.18038103008E+04  0.18038103008E+04  0.00000000000E+00 0. -1.
         21   -1    0    0  501  502 -0.00000000000E+00 -0.00000000000E+00 -0.20105792031E+03  0.20105792031E+03  0.00000000000E+00 0. -1.
         25    1    1    2    0    0  0.27162339673E+02  0.24315499939E+03  0.62752942391E+03  0.68504038151E+03  0.12500000000E+03 0.  0.
         25    1    1    2    0    0 -0.27881582985E+03  0.19853640799E+03  0.43737012037E+03  0.56927374300E+03  0.12500000000E+03 0.  0.
         25    1    1    2    0    0  0.25165349018E+03 -0.44169140739E+03  0.53785283618E+03  0.75055409656E+03  0.12500000000E+03 0.  0.
</event>
<event>
 5    0  0.5778896E-005  0.2732575E+03  0.7546771E-02  0.1099430E+00
         21   -1    0    0  502  501  0.00000000000E+00  0.00000000000E+00  0.10316649096E+03  0.10316649096E+03  0.00000000000E+00 0. -1.
         21   -1    0    0  501  502 -0.00000000000E+00 -0.00000000000E+00 -0.72377824158E+03  0.72377824158E+03  0.00000000000E+00 0. -1.
         25    1    1    2    0    0 -0.67788467883E+02 -0.72986685707E+02 -0.96857185370E+02  0.18689207320E+03  0.12500000000E+03 0.  0.
         25    1    1    2    0    0 -0.67067275110E+02  0.86739225442E+02 -0.15290253966E+03  0.22588913045E+03  0.12500000000E+03 0.  0.
         25    1    1    2    0    0  0.13485574299E+03 -0.13752539735E+02 -0.37085202560E+03  0.41416352888E+03  0.12500000000E+03 0.  0.
</event>
<event>
 5    0  0.5778896E-005  0.3089432E+03  0.7546771E-02  0.1080854E+00
         21   -1    0    0  502  501  0.00000000000E+00  0.00000000000E+00  0.91839865172E+03  0.91839865172E+03  0.00000000000E+00 0.  1.
         21   -1    0    0  501  502 -0.00000000000E+00 -0.00000000000E+00 -0.10392641525E+03  0.10392641525E+03  0.00000000000E+00 0.  1.
         25    1    1    2    0    0 -0.17419613109E+03 -0.11568325614E+03  0.17408598060E+03  0.29942918442E+03  0.12500000000E+03 0.  0.
         25    1    1    2    0    0  0.10109175436E+03  0.10083545145E+03  0.35618803853E+03  0.40358673152E+03  0.12500000000E+03 0.  0.
         25    1    1    2    0    0  0.73104376727E+02  0.14847804691E+02  0.28419821734E+03  0.31930915104E+03  0.12500000000E+03 0.  0.
</event>
<event>
 5    0  0.6975017E-005  0.4446447E+03  0.7546771E-02  0.1029331E+00
         21   -1    0    0  502  501  0.00000000000E+00  0.00000000000E+00  0.32900629225E+03  0.32900629225E+03  0.00000000000E+00 0.  1.
         21   -1    0    0  501  502 -0.00000000000E+00 -0.00000000000E+00 -0.60092746717E+03  0.60092746717E+03  0.00000000000E+00 0.  1.
         25    1    1    2    0    0  0.20891508412E+02  0.24114133805E+03 -0.81896853267E+02  0.28446035684E+03  0.12500000000E+03 0.  0.
         25    1    1    2    0    0 -0.99947659878E+02 -0.24074206669E+03 -0.33216183526E+03  0.44034391354E+03  0.12500000000E+03 0.  0.
         25    1    1    2    0    0  0.79056151466E+02 -0.39927135487E+00  0.14213751360E+03  0.20512948905E+03  0.12500000000E+03 0.  0.
</event>
<event>
 5    0  0.5778896E-005  0.4647858E+03  0.7546771E-02  0.1023402E+00
         21   -1    0    0  502  501  0.00000000000E+00  0.00000000000E+00  0.17023931524E+03  0.17023931524E+03  0.00000000000E+00 0. -1.
         21   -1    0    0  501  502 -0.00000000000E+00 -0.00000000000E+00 -0.12689540827E+04  0.12689540827E+04  0.00000000000E+00 0. -1.
         25    1    1    2    0    0  0.32121749198E+03 -0.19614939688E+02 -0.49624304427E+03  0.60452260669E+03  0.12500000000E+03 0.  0.
         25    1    1    2    0    0  0.25398615615E+02 -0.12770773466E+03 -0.17510552548E+03  0.25147823011E+03  0.12500000000E+03 0.  0.
         25    1    1    2    0    0 -0.34661610760E+03  0.14732267435E+03 -0.42736619770E+03  0.58319256113E+03  0.12500000000E+03 0.  0.
</event>
<event>
 5    0  0.5778896E-005  0.2494160E+03  0.7546771E-02  0.1113674E+00
         21   -1    0    0  502  501  0.00000000000E+00  0.00000000000E+00  0.17119588010E+04  0.17119588010E+04  0.00000000000E+00 0.  1.
         21   -1    0    0  501  502 -0.00000000000E+00 -0.00000000000E+00 -0.36337516059E+02  0.36337516059E+02  0.00000000000E+00 0.  1.
         25    1    1    2    0    0 -0.25621909406E+01 -0.71479129452E+02  0.94049095679E+03  0.95145366181E+03  0.12500000000E+03 0.  0.
         25    1    1    2    0    0 -0.49171560079E+02 -0.22652762590E+02  0.25330152453E+03  0.28760676679E+03  0.12500000000E+03 0.  0.
         25    1    1    2    0    0  0.51733751020E+02  0.94131892042E+02  0.48182880360E+03  0.50923588844E+03  0.12500000000E+03 0.  0.
</event>
<event>
 5    0  0.5778896E-005  0.2812113E+03  0.7546771E-02  0.1095029E+00
         21   -1    0    0  502  501  0.00000000000E+00  0.00000000000E+00  0.91863489495E+02  0.91863489495E+02  0.00000000000E+00 0.  1.
         21   -1    0    0  501  502 -0.00000000000E+00 -0.00000000000E+00 -0.86084051296E+03  0.86084051296E+03  0.00000000000E+00 0.  1.
         25    1    1    2    0    0 -0.40422246101E+02  0.79846962848E+02 -0.41862569338E+03  0.44596184435E+03  0.12500000000E+03 0.  0.
         25    1    1    2    0    0  0.97464265075E+02  0.52985122686E+02 -0.21611609871E+03  0.27319933073E+03  0.12500000000E+03 0.  0.
         25    1    1    2    0    0 -0.57042018974E+02 -0.13283208553E+03 -0.13423523138E+03  0.23354282738E+03  0.12500000000E+03 0.  0.
</event>
<event>
 5    0  0.5778896E-005  0.4507596E+03  0.7546771E-02  0.1027496E+00
         21   -1    0    0  502  501  0.00000000000E+00  0.00000000000E+00  0.29611492322E+04  0.29611492322E+04  0.00000000000E+00 0.  1.
         21   -1    0    0  501  502 -0.00000000000E+00 -0.00000000000E+00 -0.68616663463E+02  0.68616663463E+02  0.00000000000E+00 0.  1.
         25    1    1    2    0    0  0.12516526754E+03 -0.25647642261E+03  0.12053424432E+04  0.12449585957E+04  0.12500000000E+03 0.  0.
         25    1    1    2    0    0  0.12879270269E+03  0.23704237342E+03  0.80772543187E+03  0.86071018372E+03  0.12500000000E+03 0.  0.
         25    1    1    2    0    0 -0.25395797023E+03  0.19434049191E+02  0.87946469370E+03  0.92409711631E+03  0.12500000000E+03 0.  0.
</event>
<event>
 5    0  0.5778896E-005  0.3552700E+03  0.7546771E-02  0.1060473E+00
         21   -1    0    0  502  501  0.00000000000E+00  0.00000000000E+00  0.17764299819E+03  0.17764299819E+03  0.00000000000E+00 0.  1.
         21   -1    0    0  501  502 -0.00000000000E+00 -0.00000000000E+00 -0.71050784656E+03  0.71050784656E+03  0.00000000000E+00 0.  1.
         25    1    1    2    0    0  0.16253874470E+03  0.11865141857E+03 -0.84664052869E+02  0.25157504746E+03  0.12500000000E+03 0.  0.
         25    1    1    2    0    0 -0.82954739934E+02  0.76225620974E+02 -0.62037383502E+02  0.17934734769E+03  0.12500000000E+03 0.  0.
         25    1    1    2    0    0 -0.79584004763E+02 -0.19487703954E+03 -0.38616341200E+03  0.45722844960E+03  0.12500000000E+03 0.  0.
</event>
<event>
 5    0  0.7373039E-005  0.5653251E+03  0.7546771E-02  0.9980077E-01
         21   -1    0    0  502  501  0.00000000000E+00  0.00000000000E+00  0.33137101399E+03  0.33137101399E+03  0.00000000000E+00 0. -1.
         21   -1    0    0  501  502 -0.00000000000E+00 -0.00000000000E+00 -0.96445528119E+03  0.96445528119E+03  0.00000000000E+00 0. -1.
         25    1    1    2    0    0  0.17299819414E+03  0.19042251307E+03  0.83998595651E+02  0.29811050423E+03  0.12500000000E+03 0.  0.
         25    1    1    2    0    0 -0.44128348977E+02 -0.38527227452E+03 -0.30982499027E+03  0.51185795031E+03  0.12500000000E+03 0.  0.
         25    1    1    2    0    0 -0.12886984517E+03  0.19484976145E+03 -0.40725787258E+03  0.48585784064E+03  0.12500000000E+03 0.  0.
</event>
<event>
 5    0  0.7099090E-005  0.3730619E+03  0.7546771E-02  0.1053528E+00
         21   -1    0    0  502  501  0.00000000000E+00  0.00000000000E+00  0.34934027183E+03  0.34934027183E+03  0.00000000000E+00 0.  1.
         21   -1    0    0  501  502 -0.00000000000E+00 -0.00000000000E+00 -0.39839423531E+03  0.39839423531E+03  0.00000000000E+00 0.  1.
         25    1    1    2    0    0 -0.45851197684E+02 -0.11326347254E+03 -0.18029053788E+03  0.25111874600E+03  0.12500000000E+03 0.  0.
         25    1    1    2    0    0 -0.30422050799E+02  0.19186044832E+03 -0.64505813838E+02  0.23983730490E+03  0.12500000000E+03 0.  0.
         25    1    1    2    0    0  0.76273248483E+02 -0.78596975774E+02  0.19574238824E+03  0.25677845624E+03  0.12500000000E+03 0.  0.
</event>
<event>
 5    0  0.8227131E-005  0.4519507E+03  0.7546771E-02  0.1027142E+00
         21   -1    0    0  502  501  0.00000000000E+00  0.00000000000E+00  0.90052001735E+03  0.90052001735E+03  0.00000000000E+00 0. -1.
         21   -1    0    0  501  502 -0.00000000000E+00 -0.00000000000E+00 -0.22682387711E+03  0.22682387711E+03  0.00000000000E+00 0. -1.
         25    1    1    2    0    0  0.19621790409E+03  0.48329478834E+01  0.49542687782E+03  0.54735510826E+03  0.12500000000E+03 0.  0.
         25    1    1    2    0    0 -0.21111154613E+03  0.18409121110E+03  0.17458975248E+03  0.35293659570E+03  0.12500000000E+03 0.  0.
         25    1    1    2    0    0  0.14893642041E+02 -0.18892415898E+03  0.36795099442E+01  0.22705219050E+03  0.12500000000E+03 0.  0.
</event>
<event>
 5    0  0.5778896E-005  0.3358420E+03  0.7546771E-02  0.1068581E+00
         21   -1    0    0  502  501  0.00000000000E+00  0.00000000000E+00  0.96335330374E+03  0.96335330374E+03  0.00000000000E+00 0. -1.
         21   -1    0    0  501  502 -0.00000000000E+00 -0.00000000000E+00 -0.11708042650E+03  0.11708042650E+03  0.00000000000E+00 0. -1.
         25    1    1    2    0    0 -0.42094617497E+02 -0.15690363323E+03  0.40789121031E+02  0.20899631417E+03  0.12500000000E+03 0.  0.
         25    1    1    2    0    0  0.62776668418E+02  0.11251612492E+03  0.31138473432E+03  0.35942487565E+03  0.12500000000E+03 0.  0.
         25    1    1    2    0    0 -0.20682050921E+02  0.44387508312E+02  0.49409902188E+03  0.51201254042E+03  0.12500000000E+03 0.  0.
</event>
<event>
 5    0  0.5778896E-005  0.2949684E+03  0.7546771E-02  0.1087783E+00
         21   -1    0    0  502  501  0.00000000000E+00  0.00000000000E+00  0.21476807754E+04  0.21476807754E+04  0.00000000000E+00 0. -1.
         21   -1    0    0  501  502 -0.00000000000E+00 -0.00000000000E+00 -0.40511768857E+02  0.40511768857E+02  0.00000000000E+00 0. -1.
         25    1    1    2    0    0 -0.23355629980E+01 -0.17133551799E+03  0.96687365526E+03  0.98986412190E+03  0.12500000000E+03 0.  0.
         25    1    1    2    0    0  0.52704117938E+01  0.12170212077E+02  0.73091585652E+03  0.74164606155E+03  0.12500000000E+03 0.  0.
         25    1    1    2    0    0 -0.29348487959E+01  0.15916530592E+03  0.40937949479E+03  0.45668236084E+03  0.12500000000E+03 0.  0.
</event>
<event>
 5    0  0.5778896E-005  0.3697932E+03  0.7546771E-02  0.1054772E+00
         21   -1    0    0  502  501  0.00000000000E+00  0.00000000000E+00  0.27821837332E+04  0.27821837332E+04  0.00000000000E+00 0. -1.
         21   -1    0    0  501  502 -0.00000000000E+00 -0.00000000000E+00 -0.49150956802E+02  0.49150956802E+02  0.00000000000E+00 0. -1.
         25    1    1    2    0    0  0.26372210338E+03 -0.43269307021E+02  0.94793058716E+03  0.99278345012E+03  0.12500000000E+03 0.  0.
         25    1    1    2    0    0 -0.17245268147E+03  0.87479196111E+02  0.14332534625E+04  0.14516311601E+04  0.12500000000E+03 0.  0.
         25    1    1    2    0    0 -0.91269421913E+02 -0.44209889090E+02  0.35184872677E+03  0.38692007986E+03  0.12500000000E+03 0.  0.
</event>
<event>
 5    0  0.5778896E-005  0.4020024E+03  0.7546771E-02  0.1043089E+00
         21   -1    0    0  502  501  0.00000000000E+00  0.00000000000E+00  0.44805680649E+03  0.44805680649E+03  0.00000000000E+00 0.  1.
         21   -1    0    0  501  502 -0.00000000000E+00 -0.00000000000E+00 -0.36068172730E+03  0.36068172730E+03  0.00000000000E+00 0.  1.
         25    1    1    2    0    0 -0.20618964327E+03 -0.18214589443E+03  0.24174266764E+03  0.38698296243E+03  0.12500000000E+03 0.  0.
         25    1    1    2    0    0  0.14753961202E+03  0.46957001747E+02 -0.70641510404E+02  0.21115899252E+03  0.12500000000E+03 0.  0.
         25    1    1    2    0    0  0.58650031251E+02  0.13518889269E+03 -0.83726078047E+02  0.21059657883E+03  0.12500000000E+03 0.  0.
</event>
<event>
 5    0  0.5778896E-005  0.4019861E+03  0.7546771E-02  0.1043094E+00
         21   -1    0    0  502  501  0.00000000000E+00  0.00000000000E+00  0.92364177979E+03  0.92364177979E+03  0.00000000000E+00 0. -1.
         21   -1    0    0  501  502 -0.00000000000E+00 -0.00000000000E+00 -0.17495186232E+03  0.17495186232E+03  0.00000000000E+00 0. -1.
         25    1    1    2    0    0  0.10492008846E+03  0.93862614514E+02  0.12699419898E+02  0.18869205238E+03  0.12500000000E+03 0.  0.
         25    1    1    2    0    0  0.94548228969E+02  0.90714390168E+02  0.99504843912E+02  0.20662691535E+03  0.12500000000E+03 0.  0.
         25    1    1    2    0    0 -0.19946831743E+03 -0.18457700468E+03  0.63648565366E+03  0.70327467438E+03  0.12500000000E+03 0.  0.
</event>
<event>
 5    0  0.5849884E-005  0.3305298E+03  0.7546771E-02  0.1070903E+00
         21   -1    0    0  502  501  0.00000000000E+00  0.00000000000E+00  0.29073477184E+03  0.29073477184E+03  0.00000000000E+00 0.  1.
         21   -1    0    0  501  502 -0.00000000000E+00 -0.00000000000E+00 -0.37577186690E+03  0.37577186690E+03  0.00000000000E+00 0.  1.
         25    1    1    2    0    0  0.37469582706E+02 -0.13682946548E+03 -0.45498628440E+02  0.19447724145E+03  0.12500000000E+03 0.  0.
         25    1    1    2    0    0  0.14825962124E+03  0.13419005021E+03  0.29675752538E+02  0.23768368719E+03  0.12500000000E+03 0.  0.
         25    1    1    2    0    0 -0.18572920395E+03  0.26394152607E+01 -0.69214219161E+02  0.23434571011E+03  0.12500000000E+03 0.  0.
</event>
<event>
 5    0  0.5778896E-005  0.2659262E+03  0.7546771E-02  0.1103634E+00
         21   -1    0    0  502  501  0.00000000000E+00  0.00000000000E+00  0.87144249254E+02  0.87144249254E+02  0.00000000000E+00 0.  1.
         21   -1    0    0  501  502 -0.00000000000E+00 -0.00000000000E+00 -0.81149088968E+03  0.81149088968E+03  0.00000000000E+00 0.  1.
         25    1    1    2    0    0  0.81116908634E+02 -0.12172111376E+03 -0.40224337911E+03  0.44589316931E+03  0.12500000000E+03 0.  0.
         25    1    1    2    0    0 -0.19458579342E+01  0.30820925911E+02 -0.69821912802E+02  0.14647120995E+03  0.12500000000E+03 0.  0.
         25    1    1    2    0    0 -0.79171050700E+02  0.90900187853E+02 -0.25228134852E+03  0.30627075967E+03  0.12500000000E+03 0.  0.
</event>
<event>
 5    0  0.7722465E-005  0.3145471E+03  0.7546771E-02  0.1078187E+00
         21   -1    0    0  502  501  0.00000000000E+00  0.00000000000E+00  0.54853249697E+03  0.54853249697E+03  0.00000000000E+00 0. -1.
         21   -1    0    0  501  502 -0.00000000000E+00 -0.00000000000E+00 -0.18037191966E+03  0.18037191966E+03  0.00000000000E+00 0. -1.
         25    1    1    2    0    0 -0.10343282914E+03  0.16649613325E+02  0.24220954508E+03  0.29200346486E+03  0.12500000000E+03 0.  0.
         25    1    1    2    0    0  0.17812223093E+03 -0.10830737944E+03  0.10025127809E+03  0.26293218964E+03  0.12500000000E+03 0.  0.
         25    1    1    2    0    0 -0.74689401793E+02  0.91657766117E+02  0.25699754145E+02  0.17396876212E+03  0.12500000000E+03 0.  0.
</event>
<event>
 5    0  0.5778896E-005  0.4356980E+03  0.7546771E-02  0.1032075E+00
         21   -1    0    0  502  501  0.00000000000E+00  0.00000000000E+00  0.53478552305E+03  0.53478552305E+03  0.00000000000E+00 0.  1.
         21   -1    0    0  501  502 -0.00000000000E+00 -0.00000000000E+00 -0.35496992738E+03  0.35496992738E+03  0.00000000000E+00 0.  1.
         25    1    1    2    0    0 -0.12391537207E+03 -0.84185183348E+02  0.80305082323E+02  0.21098831905E+03  0.12500000000E+03 0.  0.
         25    1    1    2    0    0  0.13355158777E+03 -0.44444637438E+02  0.33399533009E+03  0.38339174863E+03  0.12500000000E+03 0.  0.
         25    1    1    2    0    0 -0.96362156993E+01  0.12862982079E+03 -0.23448481675E+03  0.29537538275E+03  0.12500000000E+03 0.  0.
</event>
<event>
 5    0  0.5778896E-005  0.3644568E+03  0.7546771E-02  0.1056833E+00
         21   -1    0    0  502  501  0.00000000000E+00  0.00000000000E+00  0.59263819178E+03  0.59263819178E+03  0.00000000000E+00 0.  1.
         21   -1    0    0  501  502 -0.00000000000E+00 -0.00000000000E+00 -0.22413131759E+03  0.22413131759E+03  0.00000000000E+00 0.  1.
         25    1    1    2    0    0 -0.26867998744E+02  0.15750534181E+03  0.70059453113E+02  0.21462327233E+03  0.12500000000E+03 0.  0.
         25    1    1    2    0    0 -0.18478370440E+03 -0.13717133583E+03  0.22369360761E+03  0.34441954485E+03  0.12500000000E+03 0.  0.
         25    1    1    2    0    0  0.21165170314E+03 -0.20334005977E+02  0.74753813463E+02  0.25772669220E+03  0.12500000000E+03 0.  0.
</event>
<event>
 5    0  0.5778896E-005  0.2552844E+03  0.7546771E-02  0.1110010E+00
         21   -1    0    0  502  501  0.00000000000E+00  0.00000000000E+00  0.10101096341E+04  0.10101096341E+04  0.00000000000E+00 0.  1.
         21   -1    0    0  501  502 -0.00000000000E+00 -0.00000000000E+00 -0.64517867002E+02  0.64517867002E+02  0.00000000000E+00 0.  1.
         25    1    1    2    0    0 -0.44813765055E+02  0.20891404471E+02  0.47722462038E+03  0.49579538382E+03  0.12500000000E+03 0.  0.
         25    1    1    2    0    0  0.56924368174E+02 -0.82431190560E+02  0.11048604708E+03  0.19459561010E+03  0.12500000000E+03 0.  0.
         25    1    1    2    0    0 -0.12110603119E+02  0.61539786089E+02  0.35788109967E+03  0.38423650722E+03  0.12500000000E+03 0.  0.
</event>
<event>
 5    0  0.5951274E-005  0.3115768E+03  0.7546771E-02  0.1079593E+00
         21   -1    0    0  502  501  0.00000000000E+00  0.00000000000E+00  0.13113632720E+03  0.13113632720E+03  0.00000000000E+00 0. -1.
         21   -1    0    0  501  502 -0.00000000000E+00 -0.00000000000E+00 -0.74029908769E+03  0.74029908769E+03  0.00000000000E+00 0. -1.
         25    1    1    2    0    0  0.11356425173E+03  0.10244029651E+03 -0.20061737239E+03  0.28153718000E+03  0.12500000000E+03 0.  0.
         25    1    1    2    0    0 -0.26126170690E+02  0.95144098243E+02 -0.24243734593E+03  0.29006179157E+03  0.12500000000E+03 0.  0.
         25    1    1    2    0    0 -0.87438081037E+02 -0.19758439476E+03 -0.16610804218E+03  0.29983644332E+03  0.12500000000E+03 0.  0.
</event>
<event>
 5    0  0.5778896E-005  0.2655876E+03  0.7546771E-02  0.1103832E+00
         21   -1    0    0  502  501  0.00000000000E+00  0.00000000000E+00  0.25993105018E+03  0.25993105018E+03  0.00000000000E+00 0.  1.
         21   -1    0    0  501  502 -0.00000000000E+00 -0.00000000000E+00 -0.27136727095E+03  0.27136727095E+03  0.00000000000E+00 0.  1.
         25    1    1    2    0    0  0.17054993799E+02  0.41628514602E+02 -0.13653295173E+03  0.19049948281E+03  0.12500000000E+03 0.  0.
         25    1    1    2    0    0  0.56176875547E+01  0.43706062162E+02 -0.14914347661E+02  0.13337621995E+03  0.12500000000E+03 0.  0.
         25    1    1    2    0    0 -0.22672681354E+02 -0.85334576764E+02  0.14001107863E+03  0.20742261836E+03  0.12500000000E+03 0.  0.
</event>
<event>
 5    0  0.5778896E-005  0.3144024E+03  0.7546771E-02  0.1078255E+00
         21   -1    0    0  502  501  0.00000000000E+00  0.00000000000E+00  0.67993270584E+03  0.67993270584E+03  0.00000000000E+00 0.  1.
         21   -1    0    0  501  502 -0.00000000000E+00 -0.00000000000E+00 -0.14538034194E+03  0.14538034194E+03  0.00000000000E+00 0.  1.
         25    1    1    2    0    0 -0.12634774155E+03  0.13293490804E+03  0.42364601805E+03  0.47826393359E+03  0.12500000000E+03 0.  0.
         25    1    1    2    0    0  0.10435284677E+03 -0.59603106102E+02  0.99750586774E+02  0.20004306149E+03  0.12500000000E+03 0.  0.
         25    1    1    2    0    0  0.21994894773E+02 -0.73331801934E+02  0.11155759084E+02  0.14700605270E+03  0.12500000000E+03 0.  0.
</event>
<event>
 5    0  0.5778896E-005  0.4506814E+03  0.7546771E-02  0.1027519E+00
         21   -1    0    0  502  501  0.00000000000E+00  0.00000000000E+00  0.39275686055E+03  0.39275686055E+03  0.00000000000E+00 0. -1.
         21   -1    0    0  501  502 -0.00000000000E+00 -0.00000000000E+00 -0.51714871045E+03  0.51714871045E+03  0.00000000000E+00 0. -1.
         25    1    1    2    0    0  0.26329781171E+03 -0.19375117427E+03 -0.58212195098E+01  0.35003448656E+03  0.12500000000E+03 0.  0.
         25    1    1    2    0    0 -0.11089816669E+02  0.33769293433E+02  0.10444508152E+03  0.16672469603E+03  0.12500000000E+03 0.  0.
         25    1    1    2    0    0 -0.25220799505E+03  0.15998188084E+03 -0.22301571191E+03  0.39314638841E+03  0.12500000000E+03 0.  0.
</event>
<event>
 5    0  0.5778896E-005  0.2920417E+03  0.7546771E-02  0.1089288E+00
         21   -1    0    0  502  501  0.00000000000E+00  0.00000000000E+00  0.65040370596E+03  0.65040370596E+03  0.00000000000E+00 0. -1.
         21   -1    0    0  501  502 -0.00000000000E+00 -0.00000000000E+00 -0.13113139935E+03  0.13113139935E+03  0.00000000000E+00 0. -1.
         25    1    1    2    0    0 -0.11006887093E+02 -0.35924767119E+02  0.16884958856E+03  0.21341725332E+03  0.12500000000E+03 0.  0.
         25    1    1    2    0    0  0.12851571430E+02  0.69933034559E+02  0.40331010306E+03  0.42818200738E+03  0.12500000000E+03 0.  0.
         25    1    1    2    0    0 -0.18446843367E+01 -0.34008267439E+02 -0.52887385016E+02  0.13993584462E+03  0.12500000000E+03 0.  0.
</event>
<event>
 5    0  0.5832368E-005  0.3803732E+03  0.7546771E-02  0.1050796E+00
         21   -1    0    0  502  501  0.00000000000E+00  0.00000000000E+00  0.21966225896E+03  0.21966225896E+03  0.00000000000E+00 0.  1.
         21   -1    0    0  501  502 -0.00000000000E+00 -0.00000000000E+00 -0.65866450674E+03  0.65866450674E+03  0.00000000000E+00 0.  1.
         25    1    1    2    0    0 -0.98654665322E+02 -0.75393589479E+02 -0.28091765406E+03  0.33159714216E+03  0.12500000000E+03 0.  0.
         25    1    1    2    0    0  0.21516895618E+03  0.20417846435E+02 -0.24277073251E+03  0.34824875696E+03  0.12500000000E+03 0.  0.
         25    1    1    2    0    0 -0.11651429086E+03  0.54975743044E+02  0.84686138792E+02  0.19848086659E+03  0.12500000000E+03 0.  0.
</event>
<event>
 5    0  0.5778896E-005  0.3956145E+03  0.7546771E-02  0.1045309E+00
         21   -1    0    0  502  501  0.00000000000E+00  0.00000000000E+00  0.19334112269E+03  0.19334112269E+03  0.00000000000E+00 0.  1.
         21   -1    0    0  501  502 -0.00000000000E+00 -0.00000000000E+00 -0.80950597491E+03  0.80950597491E+03  0.00000000000E+00 0.  1.
         25    1    1    2    0    0  0.24750715444E+02 -0.10301398363E+03 -0.21273790880E+03  0.26852727344E+03  0.12500000000E+03 0.  0.
         25    1    1    2    0    0 -0.13048328708E+03  0.29268551601E+03 -0.14176193104E+03  0.37203782682E+03  0.12500000000E+03 0.  0.
         25    1    1    2    0    0  0.10573257164E+03 -0.18967153238E+03 -0.26166501237E+03  0.36228199734E+03  0.12500000000E+03 0.  0.
</event>
<event>
 5    0  0.5778896E-005  0.3296337E+03  0.7546771E-02  0.1071299E+00
         21   -1    0    0  502  501  0.00000000000E+00  0.00000000000E+00  0.40473534123E+03  0.40473534123E+03  0.00000000000E+00 0. -1.
         21   -1    0    0  501  502 -0.00000000000E+00 -0.00000000000E+00 -0.26846766098E+03  0.26846766098E+03  0.00000000000E+00 0. -1.
         25    1    1    2    0    0 -0.11088565837E+03 -0.11979757136E+03 -0.84232471492E+02  0.22218730069E+03  0.12500000000E+03 0.  0.
         25    1    1    2    0    0  0.16931308473E+03  0.48005134531E+02  0.19973928850E+03  0.29409555756E+03  0.12500000000E+03 0.  0.
         25    1    1    2    0    0 -0.58427426358E+02  0.71792436826E+02  0.20760863242E+02  0.15692014395E+03  0.12500000000E+03 0.  0.
</event>
<event>
 5    0  0.6130553E-005  0.3953087E+03  0.7546771E-02  0.1045416E+00
         21   -1    0    0  502  501  0.00000000000E+00  0.00000000000E+00  0.46785771188E+03  0.46785771188E+03  0.00000000000E+00 0.  1.
         21   -1    0    0  501  502 -0.00000000000E+00 -0.00000000000E+00 -0.33400956892E+03  0.33400956892E+03  0.00000000000E+00 0.  1.
         25    1    1    2    0    0 -0.64942730366E+02  0.22440161431E+03  0.21428103310E+01  0.26495892959E+03  0.12500000000E+03 0.  0.
         25    1    1    2    0    0  0.10919562668E+03 -0.27339513424E+03 -0.31044221214E+02  0.32133678281E+03  0.12500000000E+03 0.  0.
         25    1    1    2    0    0 -0.44252896317E+02  0.48993519933E+02  0.16274955384E+03  0.21557156840E+03  0.12500000000E+03 0.  0.
</event>
<event>
 5    0  0.5778896E-005  0.3780033E+03  0.7546771E-02  0.1051674E+00
         21   -1    0    0  502  501  0.00000000000E+00  0.00000000000E+00  0.13715467766E+03  0.13715467766E+03  0.00000000000E+00 0. -1.
         21   -1    0    0  501  502 -0.00000000000E+00 -0.00000000000E+00 -0.10417911396E+04  0.10417911396E+04  0.00000000000E+00 0. -1.
         25    1    1    2    0    0  0.17835475507E+03  0.86431160349E+01 -0.49385630684E+03  0.53981864910E+03  0.12500000000E+03 0.  0.
         25    1    1    2    0    0  0.95791634391E+02  0.25109684726E+02 -0.48423323052E+02  0.16666238838E+03  0.12500000000E+03 0.  0.
         25    1    1    2    0    0 -0.27414638946E+03 -0.33752800761E+02 -0.36235683209E+03  0.47246477983E+03  0.12500000000E+03 0.  0.
</event>
<event>
 5    0  0.5778896E-005  0.3496655E+03  0.7546771E-02  0.1062752E+00
         21   -1    0    0  502  501  0.00000000000E+00  0.00000000000E+00  0.20483325113E+03  0.20483325113E+03  0.00000000000E+00 0. -1.
         21   -1    0    0  501  502 -0.00000000000E+00 -0.00000000000E+00 -0.59690499234E+03  0.59690499234E+03  0.00000000000E+00 0. -1.
         25    1    1    2    0    0  0.18205717599E+03 -0.14541119952E+03 -0.20501030787E+03  0.33457952509E+03  0.12500000000E+03 0.  0.
         25    1    1    2    0    0  0.27590231815E+02 -0.17691179620E+02 -0.91847201385E+02  0.15854055358E+03  0.12500000000E+03 0.  0.
         25    1    1    2    0    0 -0.20964740781E+03  0.16310237914E+03 -0.95214231957E+02  0.30861816480E+03  0.12500000000E+03 0.  0.
</event>
<event>
 5    0  0.5778896E-005  0.3049761E+03  0.7546771E-02  0.1082779E+00
         21   -1    0    0  502  501  0.00000000000E+00  0.00000000000E+00  0.29153857071E+04  0.29153857071E+04  0.00000000000E+00 0.  1.
         21   -1    0    0  501  502 -0.00000000000E+00 -0.00000000000E+00 -0.31903307499E+02  0.31903307499E+02  0.00000000000E+00 0.  1.
         25    1    1    2    0    0  0.67688389651E+02  0.11147579425E+02  0.18827792132E+04  0.18881706894E+04  0.12500000000E+03 0.  0.
         25    1    1    2    0    0 -0.48889468685E+02  0.21199204564E+02  0.16715186437E+03  0.21541664788E+03  0.12500000000E+03 0.  0.
         25    1    1    2    0    0 -0.18798920966E+02 -0.32346783989E+02  0.83355132204E+03  0.84370167734E+03  0.12500000000E+03 0.  0.
</event>
<event>
 5    0  0.5778896E-005  0.2251973E+03  0.7546771E-02  0.1130067E+00
         21   -1    0    0  502  501  0.00000000000E+00  0.00000000000E+00  0.24198632984E+03  0.24198632984E+03  0.00000000000E+00 0. -1.
         21   -1    0    0  501  502 -0.00000000000E+00 -0.00000000000E+00 -0.20957311468E+03  0.20957311468E+03  0.00000000000E+00 0. -1.
         25    1    1    2    0    0 -0.27033479458E+02  0.34856503588E+02  0.97380047848E+02  0.16447996405E+03  0.12500000000E+03 0.  0.
         25    1    1    2    0    0  0.20669722278E+01  0.27439785928E+02  0.66216715344E+01  0.12816419453E+03  0.12500000000E+03 0.  0.
         25    1    1    2    0    0  0.24966507230E+02 -0.62296289515E+02 -0.71588504218E+02  0.15891528594E+03  0.12500000000E+03 0.  0.
</event>
<event>
 5    0  0.5778896E-005  0.2361489E+03  0.7546771E-02  0.1122385E+00
         21   -1    0    0  502  501  0.00000000000E+00  0.00000000000E+00  0.82015394925E+03  0.82015394925E+03  0.00000000000E+00 0.  1.
         21   -1    0    0  501  502 -0.00000000000E+00 -0.00000000000E+00 -0.67994937082E+02  0.67994937082E+02  0.00000000000E+00 0.  1.
         25    1    1    2    0    0 -0.71605301030E+02  0.20364775839E+02  0.11043573992E+03  0.18265567575E+03  0.12500000000E+03 0.  0.
         25    1    1    2    0    0  0.76112800579E+02 -0.37460044699E+02  0.23274582617E+03  0.27747438253E+03  0.12500000000E+03 0.  0.
         25    1    1    2    0    0 -0.45074995491E+01  0.17095268859E+02  0.40897744608E+03  0.42801882806E+03  0.12500000000E+03 0.  0.
</event>
<event>
 5    0  0.5778896E-005  0.3081365E+03  0.7546771E-02  0.1081243E+00
         21   -1    0    0  502  501  0.00000000000E+00  0.00000000000E+00  0.12290662290E+03  0.12290662290E+03  0.00000000000E+00 0.  1.
         21   -1    0    0  501  502 -0.00000000000E+00 -0.00000000000E+00 -0.77252235799E+03  0.77252235799E+03  0.00000000000E+00 0.  1.
         25    1    1    2    0    0  0.42692930211E+02  0.10910989944E+03 -0.67169095400E+01  0.17145778874E+03  0.12500000000E+03 0.  0.
         25    1    1    2    0    0 -0.31735707678E+02  0.38935182606E+02 -0.32061726947E+03  0.34776937339E+03  0.12500000000E+03 0.  0.
         25    1    1    2    0    0 -0.10957222532E+02 -0.14804508205E+03 -0.32228155608E+03  0.37620181876E+03  0.12500000000E+03 0.  0.
</event>
<event>
 5    0  0.5778896E-005  0.3276505E+03  0.7546771E-02  0.1072181E+00
         21   -1    0    0  502  501  0.00000000000E+00  0.00000000000E+00  0.58665821600E+03  0.58665821600E+03  0.00000000000E+00 0. -1.
         21   -1    0    0  501  502 -0.00000000000E+00 -0.00000000000E+00 -0.18299382069E+03  0.18299382069E+03  0.00000000000E+00 0. -1.
         25    1    1    2    0    0  0.20338180278E+03  0.51233040480E+02  0.82073095709E+02  0.25758488926E+03  0.12500000000E+03 0.  0.
         25    1    1    2    0    0 -0.17279995133E+03 -0.49452640575E+02  0.31446744038E+03  0.38317118616E+03  0.12500000000E+03 0.  0.
         25    1    1    2    0    0 -0.30581851444E+02 -0.17803999051E+01  0.71238592204E+01  0.12889596127E+03  0.12500000000E+03 0.  0.
</event>
<event>
 5    0  0.5778896E-005  0.4039614E+03  0.7546771E-02  0.1042417E+00
         21   -1    0    0  502  501  0.00000000000E+00  0.00000000000E+00  0.22030849164E+03  0.22030849164E+03  0.00000000000E+00 0. -1.
         21   -1    0    0  501  502 -0.00000000000E+00 -0.00000000000E+00 -0.74071064513E+03  0.74071064513E+03  0.00000000000E+00 0. -1.
         25    1    1    2    0    0  0.24604341350E+03 -0.59066692702E+02  0.27541935480E+02  0.28356620695E+03  0.12500000000E+03 0.  0.
         25    1    1    2    0    0 -0.22310175203E+02 -0.23139306147E+02 -0.18663667171E+03  0.22691720656E+03  0.12500000000E+03 0.  0.
         25    1    1    2    0    0 -0.22373323829E+03  0.82205998849E+02 -0.36130741726E+03  0.45053572326E+03  0.12500000000E+03 0.  0.
</event>
<event>
 5    0  0.5778896E-005  0.2776060E+03  0.7546771E-02  0.1097004E+00
         21   -1    0    0  502  501  0.00000000000E+00  0.00000000000E+00  0.17139890144E+03  0.17139890144E+03  0.00000000000E+00 0.  1.
         21   -1    0    0  501  502 -0.00000000000E+00 -0.00000000000E+00 -0.44962410644E+03  0.44962410644E+03  0.00000000000E+00 0.  1.
         25    1    1    2    0    0 -0.18857034034E+03 -0.52119679823E+02 -0.12640011851E+03  0.26434300490E+03  0.12500000000E+03 0.  0.
         25    1    1    2    0    0  0.84297672134E+02  0.38831534929E+02 -0.10120752100E+03  0.18569315534E+03  0.12500000000E+03 0.  0.
         25    1    1    2    0    0  0.10427266821E+03  0.13288144894E+02 -0.50617565494E+02  0.17098684764E+03  0.12500000000E+03 0.  0.
</event>
<event>
 5    0  0.5778896E-005  0.3376348E+03  0.7546771E-02  0.1067808E+00
         21   -1    0    0  502  501  0.00000000000E+00  0.00000000000E+00  0.43121591164E+03  0.43121591164E+03  0.00000000000E+00 0.  1.
         21   -1    0    0  501  502 -0.00000000000E+00 -0.00000000000E+00 -0.26436229699E+03  0.26436229699E+03  0.00000000000E+00 0.  1.
         25    1    1    2    0    0 -0.62455876108E+02  0.63328636737E+02 -0.11914606402E+03  0.19424736102E+03  0.12500000000E+03 0.  0.
         25    1    1    2    0    0  0.90649374334E+02  0.72688953615E+02  0.13882351914E+02  0.17122707946E+03  0.12500000000E+03 0.  0.
         25    1    1    2    0    0 -0.28193498226E+02 -0.13601759035E+03  0.27211732676E+03  0.33010376816E+03  0.12500000000E+03 0.  0.
</event>
<event>
 5    0  0.5778896E-005  0.3749515E+03  0.7546771E-02  0.1052816E+00
         21   -1    0    0  502  501  0.00000000000E+00  0.00000000000E+00  0.58505849826E+03  0.58505849826E+03  0.00000000000E+00 0.  1.
         21   -1    0    0  501  502 -0.00000000000E+00 -0.00000000000E+00 -0.24029837207E+03  0.24029837207E+03  0.00000000000E+00 0.  1.
         25    1    1    2    0    0 -0.12846793778E+03  0.27930907977E+03  0.15913959643E+03  0.36805975633E+03  0.12500000000E+03 0.  0.
         25    1    1    2    0    0  0.47323623207E+02 -0.12066469130E+03  0.15480333047E+03  0.23746276374E+03  0.12500000000E+03 0.  0.
         25    1    1    2    0    0  0.81144314571E+02 -0.15864438847E+03  0.30817199288E+02  0.21983435025E+03  0.12500000000E+03 0.  0.
</event>
<event>
 5    0  0.5778896E-005  0.3985013E+03  0.7546771E-02  0.1044300E+00
         21   -1    0    0  502  501  0.00000000000E+00  0.00000000000E+00  0.79175102618E+03  0.79175102618E+03  0.00000000000E+00 0.  1.
         21   -1    0    0  501  502 -0.00000000000E+00 -0.00000000000E+00 -0.20057221762E+03  0.20057221762E+03  0.00000000000E+00 0.  1.
         25    1    1    2    0    0 -0.78522218200E+02  0.55550214158E+02 -0.33611249674E+02  0.16126463080E+03  0.12500000000E+03 0.  0.
         25    1    1    2    0    0  0.12639434296E+03  0.70853805871E+02  0.61786698172E+03  0.64682331346E+03  0.12500000000E+03 0.  0.
         25    1    1    2    0    0 -0.47872124758E+02 -0.12640402003E+03  0.69230765106E+01  0.18423529954E+03  0.12500000000E+03 0.  0.
</event>
<event>
 5    0  0.5965196E-005  0.4105322E+03  0.7546771E-02  0.1040193E+00
         21   -1    0    0  502  501  0.00000000000E+00  0.00000000000E+00  0.15350406983E+03  0.15350406983E+03  0.00000000000E+00 0.  1.
         21   -1    0    0  501  502 -0.00000000000E+00 -0.00000000000E+00 -0.10979297137E+04  0.10979297137E+04  0.00000000000E+00 0.  1.
         25    1    1    2    0    0  0.10053815670E+03  0.21954852833E+03 -0.15420437525E+03  0.31259153314E+03  0.12500000000E+03 0.  0.
         25    1    1    2    0    0 -0.17332185522E+03  0.14522401637E+02 -0.47090517346E+03  0.51732779554E+03  0.12500000000E+03 0.  0.
         25    1    1    2    0    0  0.72783698517E+02 -0.23407092996E+03 -0.31931609522E+03  0.42151445490E+03  0.12500000000E+03 0.  0.
</event>
<event>
 5    0  0.6997150E-005  0.3265875E+03  0.7546771E-02  0.1072657E+00
         21   -1    0    0  502  501  0.00000000000E+00  0.00000000000E+00  0.31969169250E+03  0.31969169250E+03  0.00000000000E+00 0.  1.
         21   -1    0    0  501  502 -0.00000000000E+00 -0.00000000000E+00 -0.33363209190E+03  0.33363209190E+03  0.00000000000E+00 0.  1.
         25    1    1    2    0    0  0.14157561253E+03  0.21256903120E+02 -0.43066234844E+02  0.19487229300E+03  0.12500000000E+03 0.  0.
         25    1    1    2    0    0 -0.14834654583E+03 -0.60367537105E+02 -0.13830274468E+03  0.24577141084E+03  0.12500000000E+03 0.  0.
         25    1    1    2    0    0  0.67709332995E+01  0.39110633985E+02  0.16742858013E+03  0.21268008057E+03  0.12500000000E+03 0.  0.
</event>
<event>
 5    0  0.5778896E-005  0.3076536E+03  0.7546771E-02  0.1081476E+00
         21   -1    0    0  502  501  0.00000000000E+00  0.00000000000E+00  0.17629938366E+04  0.17629938366E+04  0.00000000000E+00 0.  1.
         21   -1    0    0  501  502 -0.00000000000E+00 -0.00000000000E+00 -0.53687519277E+02  0.53687519277E+02  0.00000000000E+00 0.  1.
         25    1    1    2    0    0 -0.69554561072E+01 -0.86877058323E+02  0.23426488073E+03  0.27946562575E+03  0.12500000000E+03 0.  0.
         25    1    1    2    0    0  0.13781159090E+03 -0.64384228458E+02  0.67952527932E+03  0.70747223881E+03  0.12500000000E+03 0.  0.
         25    1    1    2    0    0 -0.13085613479E+03  0.15126128678E+03  0.79551615731E+03  0.82974349134E+03  0.12500000000E+03 0.  0.
</event>
<event>
 5    0  0.5778896E-005  0.2986401E+03  0.7546771E-02  0.1085922E+00
         21   -1    0    0  502  501  0.00000000000E+00  0.00000000000E+00  0.29036784610E+03  0.29036784610E+03  0.00000000000E+00 0.  1.
         21   -1    0    0  501  502 -0.00000000000E+00 -0.00000000000E+00 -0.30714794469E+03  0.30714794469E+03  0.00000000000E+00 0.  1.
         25    1    1    2    0    0  0.94659947977E+02  0.23838489692E+02 -0.13757297237E+03  0.20995261862E+03  0.12500000000E+03 0.  0.
         25    1    1    2    0    0  0.17568229982E+02 -0.45758635607E+02 -0.53471754064E+02  0.14452239937E+03  0.12500000000E+03 0.  0.
         25    1    1    2    0    0 -0.11222817796E+03  0.21920145914E+02  0.17426462784E+03  0.24304077280E+03  0.12500000000E+03 0.  0.
</event>
<event>
 5    0  0.6936414E-005  0.2736555E+03  0.7546771E-02  0.1099206E+00
         21   -1    0    0  502  501  0.00000000000E+00  0.00000000000E+00  0.56792897722E+03  0.56792897722E+03  0.00000000000E+00 0.  1.
         21   -1    0    0  501  502 -0.00000000000E+00 -0.00000000000E+00 -0.13186037060E+03  0.13186037060E+03  0.00000000000E+00 0.  1.
         25    1    1    2    0    0  0.55021964214E+02 -0.25792470765E+02  0.18948779052E+03  0.23499636349E+03  0.12500000000E+03 0.  0.
         25    1    1    2    0    0  0.71722238698E+02 -0.88074946143E+02  0.17104815702E+03  0.24038250286E+03  0.12500000000E+03 0.  0.
         25    1    1    2    0    0 -0.12674420291E+03  0.11386741691E+03  0.75532659072E+02  0.22441048147E+03  0.12500000000E+03 0.  0.
</event>
<event>
 5    0  0.6479275E-005  0.2811283E+03  0.7546771E-02  0.1095074E+00
         21   -1    0    0  502  501  0.00000000000E+00  0.00000000000E+00  0.12286964105E+03  0.12286964105E+03  0.00000000000E+00 0.  1.
         21   -1    0    0  501  502 -0.00000000000E+00 -0.00000000000E+00 -0.64322720202E+03  0.64322720202E+03  0.00000000000E+00 0.  1.
         25    1    1    2    0    0  0.49509613231E+02  0.81802109199E+02 -0.68513457487E+02  0.17164463501E+03  0.12500000000E+03 0.  0.
         25    1    1    2    0    0 -0.77325688409E+02 -0.17450776038E+03 -0.26357177656E+03  0.34860766188E+03  0.12500000000E+03 0.  0.
         25    1    1    2    0    0  0.27816075179E+02  0.92705651185E+02 -0.18827232693E+03  0.24584454618E+03  0.12500000000E+03 0.  0.
</event>
<event>
 5    0  0.5778896E-005  0.2963153E+03  0.7546771E-02  0.1087097E+00
         21   -1    0    0  502  501  0.00000000000E+00  0.00000000000E+00  0.10198677300E+04  0.10198677300E+04  0.00000000000E+00 0.  1.
         21   -1    0    0  501  502 -0.00000000000E+00 -0.00000000000E+00 -0.86092324734E+02  0.86092324734E+02  0.00000000000E+00 0.  1.
         25    1    1    2    0    0 -0.72864193723E+02  0.76446345099E+01  0.21035195835E+03  0.25542235131E+03  0.12500000000E+03 0.  0.
         25    1    1    2    0    0  0.10944462597E+03  0.15820487657E+03  0.45135431512E+03  0.50631277576E+03  0.12500000000E+03 0.  0.
         25    1    1    2    0    0 -0.36580432246E+02 -0.16584951108E+03  0.27206913177E+03  0.34422492765E+03  0.12500000000E+03 0.  0.
</event>
<event>
 5    0  0.5778896E-005  0.2561786E+03  0.7546771E-02  0.1109461E+00
         21   -1    0    0  502  501  0.00000000000E+00  0.00000000000E+00  0.20570993393E+04  0.20570993393E+04  0.00000000000E+00 0.  1.
         21   -1    0    0  501  502 -0.00000000000E+00 -0.00000000000E+00 -0.31902931493E+02  0.31902931493E+02  0.00000000000E+00 0.  1.
         25    1    1    2    0    0 -0.74484111355E+02  0.10004574660E+03  0.73900685457E+03  0.75981126957E+03  0.12500000000E+03 0.  0.
         25    1    1    2    0    0  0.24141094773E+02 -0.11193019437E+03  0.42702727564E+03  0.45944363638E+03  0.12500000000E+03 0.  0.
         25    1    1    2    0    0  0.50343016582E+02  0.11884447764E+02  0.85916227756E+03  0.86974736481E+03  0.12500000000E+03 0.  0.
</event>
<event>
 5    0  0.5778896E-005  0.2155127E+03  0.7546771E-02  0.1137273E+00
         21   -1    0    0  502  501  0.00000000000E+00  0.00000000000E+00  0.17391846530E+02  0.17391846530E+02  0.00000000000E+00 0. -1.
         21   -1    0    0  501  502 -0.00000000000E+00 -0.00000000000E+00 -0.26705468869E+04  0.26705468869E+04  0.00000000000E+00 0. -1.
         25    1    1    2    0    0  0.49381615425E+02  0.32090338862E+02 -0.88121345693E+03  0.89198121643E+03  0.12500000000E+03 0.  0.
         25    1    1    2    0    0  0.41991697879E+02  0.35303328945E+01 -0.90740248851E+03  0.91694058809E+03  0.12500000000E+03 0.  0.
         25    1    1    2    0    0 -0.91373313304E+02 -0.35620671757E+02 -0.86453909495E+03  0.87901692892E+03  0.12500000000E+03 0.  0.
</event>
<event>
 5    0  0.5778896E-005  0.3713017E+03  0.7546771E-02  0.1054196E+00
         21   -1    0    0  502  501  0.00000000000E+00  0.00000000000E+00  0.14988257422E+04  0.14988257422E+04  0.00000000000E+00 0. -1.
         21   -1    0    0  501  502 -0.00000000000E+00 -0.00000000000E+00 -0.91981985341E+02  0.91981985341E+02  0.00000000000E+00 0. -1.
         25    1    1    2    0    0 -0.23569420944E+02  0.27809559561E+02  0.33265089224E+02  0.13438919364E+03  0.12500000000E+03 0.  0.
         25    1    1    2    0    0  0.15666009916E+03 -0.16032194597E+03  0.66585007150E+03  0.71360131078E+03  0.12500000000E+03 0.  0.
         25    1    1    2    0    0 -0.13309067821E+03  0.13251238641E+03  0.70772859616E+03  0.74281722314E+03  0.12500000000E+03 0.  0.
</event>
<event>
 5    0  0.5778896E-005  0.6790812E+03  0.7546771E-02  0.9753690E-01
         21   -1    0    0  502  501  0.00000000000E+00  0.00000000000E+00  0.24818599334E+04  0.24818599334E+04  0.00000000000E+00 0.  1.
         21   -1    0    0  501  502 -0.00000000000E+00 -0.00000000000E+00 -0.18580874100E+03  0.18580874100E+03  0.00000000000E+00 0.  1.
         25    1    1    2    0    0  0.30764829802E+02 -0.52715207354E+03  0.73454204075E+03  0.91324300874E+03  0.12500000000E+03 0.  0.
         25    1    1    2    0    0  0.11131784046E+03  0.27185758995E+03  0.13123066374E+04  0.13505820677E+04  0.12500000000E+03 0.  0.
         25    1    1    2    0    0 -0.14208267027E+03  0.25529448359E+03  0.24920251417E+03  0.40384359795E+03  0.12500000000E+03 0.  0.
</event>
<event>
 5    0  0.5778896E-005  0.2399723E+03  0.7546771E-02  0.1119811E+00
         21   -1    0    0  502  501  0.00000000000E+00  0.00000000000E+00  0.38635634299E+02  0.38635634299E+02  0.00000000000E+00 0. -1.
         21   -1    0    0  501  502 -0.00000000000E+00 -0.00000000000E+00 -0.14905071014E+04  0.14905071014E+04  0.00000000000E+00 0. -1.
         25    1    1    2    0    0  0.93633258589E+02  0.36516010394E+02 -0.62551851713E+03  0.64575461392E+03  0.12500000000E+03 0.  0.
         25    1    1    2    0    0 -0.12525159493E+03 -0.20317102384E+02 -0.40465635444E+03  0.44212273395E+03  0.12500000000E+03 0.  0.
         25    1    1    2    0    0  0.31618336346E+02 -0.16198908010E+02 -0.42169659551E+03  0.44126538781E+03  0.12500000000E+03 0.  0.
</event>
<event>
 5    0  0.5778896E-005  0.2280460E+03  0.7546771E-02  0.1128023E+00
         21   -1    0    0  502  501  0.00000000000E+00  0.00000000000E+00  0.18914725509E+03  0.18914725509E+03  0.00000000000E+00 0. -1.
         21   -1    0    0  501  502 -0.00000000000E+00 -0.00000000000E+00 -0.27494443252E+03  0.27494443252E+03  0.00000000000E+00 0. -1.
         25    1    1    2    0    0 -0.58725963867E+02 -0.21042674757E+02 -0.11230003117E+03  0.17924237779E+03  0.12500000000E+03 0.  0.
         25    1    1    2    0    0  0.38864422217E+02 -0.22020604967E+02  0.62024313096E+02  0.14651745893E+03  0.12500000000E+03 0.  0.
         25    1    1    2    0    0  0.19861541650E+02  0.43063279725E+02 -0.35521459353E+02  0.13833185089E+03  0.12500000000E+03 0.  0.
</event>
<event>
 5    0  0.5778896E-005  0.2726857E+03  0.7546771E-02  0.1099752E+00
         21   -1    0    0  502  501  0.00000000000E+00  0.00000000000E+00  0.77446686706E+03  0.77446686706E+03  0.00000000000E+00 0. -1.
         21   -1    0    0  501  502 -0.00000000000E+00 -0.00000000000E+00 -0.96011166889E+02  0.96011166889E+02  0.00000000000E+00 0. -1.
         25    1    1    2    0    0 -0.12398672483E+03 -0.10223637410E+02  0.48020477304E+03  0.51156510314E+03  0.12500000000E+03 0.  0.
         25    1    1    2    0    0  0.56415214280E+02 -0.42390028463E+02  0.12620462281E+03  0.19113397849E+03  0.12500000000E+03 0.  0.
         25    1    1    2    0    0  0.67571510551E+02  0.52613665873E+02  0.72046304314E+02  0.16777895232E+03  0.12500000000E+03 0.  0.
</event>
<event>
 5    0  0.5778896E-005  0.3233121E+03  0.7546771E-02  0.1074135E+00
         21   -1    0    0  502  501  0.00000000000E+00  0.00000000000E+00  0.77448745471E+03  0.77448745471E+03  0.00000000000E+00 0. -1.
         21   -1    0    0  501  502 -0.00000000000E+00 -0.00000000000E+00 -0.13496760586E+03  0.13496760586E+03  0.00000000000E+00 0. -1.
         25    1    1    2    0    0  0.12760493935E+03  0.12883070008E+03  0.66812629247E+02  0.23015059690E+03  0.12500000000E+03 0.  0.
         25    1    1    2    0    0 -0.13138899046E+03 -0.11644264520E+03  0.23444028197E+03  0.31844811547E+03  0.12500000000E+03 0.  0.
         25    1    1    2    0    0  0.37840511136E+01 -0.12388054872E+02  0.33826693763E+03  0.36085634821E+03  0.12500000000E+03 0.  0.
</event>
<event>
 5    0  0.5778896E-005  0.2790654E+03  0.7546771E-02  0.1096201E+00
         21   -1    0    0  502  501  0.00000000000E+00  0.00000000000E+00  0.73401571893E+02  0.73401571893E+02  0.00000000000E+00 0.  1.
         21   -1    0    0  501  502 -0.00000000000E+00 -0.00000000000E+00 -0.10609782333E+04  0.10609782333E+04  0.00000000000E+00 0.  1.
         25    1    1    2    0    0  0.36877974652E+01 -0.11603491220E+03 -0.38058405379E+03  0.41706944589E+03  0.12500000000E+03 0.  0.
         25    1    1    2    0    0 -0.87316464928E+02  0.16441060147E+03 -0.35816018575E+03  0.42256210145E+03  0.12500000000E+03 0.  0.
         25    1    1    2    0    0  0.83628667463E+02 -0.48375689276E+02 -0.24883242188E+03  0.29474825786E+03  0.12500000000E+03 0.  0.
</event>
<event>
 5    0  0.5778896E-005  0.3429607E+03  0.7546771E-02  0.1065542E+00
         21   -1    0    0  502  501  0.00000000000E+00  0.00000000000E+00  0.35294696041E+03  0.35294696041E+03  0.00000000000E+00 0.  1.
         21   -1    0    0  501  502 -0.00000000000E+00 -0.00000000000E+00 -0.33325695161E+03  0.33325695161E+03  0.00000000000E+00 0.  1.
         25    1    1    2    0    0 -0.63115656484E+02 -0.13210671515E+03  0.14162245067E+03  0.23899307273E+03  0.12500000000E+03 0.  0.
         25    1    1    2    0    0 -0.24686411871E+02  0.63268024273E+02  0.96514095576E+02  0.17190762773E+03  0.12500000000E+03 0.  0.
         25    1    1    2    0    0  0.87802068355E+02  0.68838690872E+02 -0.21844653745E+03  0.27530321156E+03  0.12500000000E+03 0.  0.
</event>
<event>
 5    0  0.5778896E-005  0.3088020E+03  0.7546771E-02  0.1080922E+00
         21   -1    0    0  502  501  0.00000000000E+00  0.00000000000E+00  0.10175253339E+03  0.10175253339E+03  0.00000000000E+00 0. -1.
         21   -1    0    0  501  502 -0.00000000000E+00 -0.00000000000E+00 -0.93716264590E+03  0.93716264590E+03  0.00000000000E+00 0. -1.
         25    1    1    2    0    0  0.27797103802E+02 -0.44455861611E+02 -0.16114877397E+03  0.21057761031E+03  0.12500000000E+03 0.  0.
         25    1    1    2    0    0 -0.44107996820E+02 -0.17338646723E+03 -0.40296251724E+03  0.45827085081E+03  0.12500000000E+03 0.  0.
         25    1    1    2    0    0  0.16310893017E+02  0.21784232884E+03 -0.27129882129E+03  0.37006671817E+03  0.12500000000E+03 0.  0.
</event>
<event>
 5    0  0.5778896E-005  0.2936999E+03  0.7546771E-02  0.1088433E+00
         21   -1    0    0  502  501  0.00000000000E+00  0.00000000000E+00  0.91836765246E+02  0.91836765246E+02  0.00000000000E+00 0.  1.
         21   -1    0    0  501  502 -0.00000000000E+00 -0.00000000000E+00 -0.93927132895E+03  0.93927132895E+03  0.00000000000E+00 0.  1.
         25    1    1    2    0    0  0.69070683889E+02 -0.29539944499E+02 -0.35977895733E+03  0.38821291301E+03  0.12500000000E+03 0.  0.
         25    1    1    2    0    0 -0.15393996479E+03 -0.18280083788E+02 -0.43067539946E+03  0.47448706402E+03  0.12500000000E+03 0.  0.
         25    1    1    2    0    0  0.84869280898E+02  0.47820028287E+02 -0.56980206912E+02  0.16840811716E+03  0.12500000000E+03 0.  0.
</event>
<event>
 5    0  0.5778896E-005  0.2917133E+03  0.7546771E-02  0.1089458E+00
         21   -1    0    0  502  501  0.00000000000E+00  0.00000000000E+00  0.97752246565E+02  0.97752246565E+02  0.00000000000E+00 0.  1.
         21   -1    0    0  501  502 -0.00000000000E+00 -0.00000000000E+00 -0.87053419450E+03  0.87053419450E+03  0.00000000000E+00 0.  1.
         25    1    1    2    0    0 -0.76005586975E+01 -0.64680720604E+02 -0.44719146361E+02  0.14787212774E+03  0.12500000000E+03 0.  0.
         25    1    1    2    0    0  0.12127111894E+03  0.23058371197E+02 -0.20936566995E+03  0.27330817135E+03  0.12500000000E+03 0.  0.
         25    1    1    2    0    0 -0.11367056025E+03  0.41622349407E+02 -0.51869713162E+03  0.54710614197E+03  0.12500000000E+03 0.  0.
</event>
<event>
 5    0  0.5778896E-005  0.4192630E+03  0.7546771E-02  0.1037306E+00
         21   -1    0    0  502  501  0.00000000000E+00  0.00000000000E+00  0.13473430170E+04  0.13473430170E+04  0.00000000000E+00 0. -1.
         21   -1    0    0  501  502 -0.00000000000E+00 -0.00000000000E+00 -0.13046524160E+03  0.13046524160E+03  0.00000000000E+00 0. -1.
         25    1    1    2    0    0  0.33856718061E+02  0.88630989654E+02  0.17040401674E+03  0.23165547394E+03  0.12500000000E+03 0.  0.
         25    1    1    2    0    0  0.21083514524E+03 -0.19625155741E+03  0.80760053259E+03  0.86649278848E+03  0.12500000000E+03 0.  0.
         25    1    1    2    0    0 -0.24469186330E+03  0.10762056775E+03  0.23887322605E+03  0.37965999617E+03  0.12500000000E+03 0.  0.
</event>
<event>
 5    0  0.5778896E-005  0.2364934E+03  0.7546771E-02  0.1122151E+00
         21   -1    0    0  502  501  0.00000000000E+00  0.00000000000E+00  0.20081883185E+03  0.20081883185E+03  0.00000000000E+00 0.  1.
         21   -1    0    0  501  502 -0.00000000000E+00 -0.00000000000E+00 -0.27850529672E+03  0.27850529672E+03  0.00000000000E+00 0.  1.
         25    1    1    2    0    0 -0.94176772983E+02  0.30971571361E+01  0.23652967732E+02  0.15831399128E+03  0.12500000000E+03 0.  0.
         25    1    1    2    0    0  0.95890795973E+02  0.14919014152E+01 -0.11516226352E+03  0.19515280541E+03  0.12500000000E+03 0.  0.
         25    1    1    2    0    0 -0.17140229896E+01 -0.45890585512E+01  0.13822830918E+02  0.12585733188E+03  0.12500000000E+03 0.  0.
</event>
<event>
 5    0  0.5778896E-005  0.4106624E+03  0.7546771E-02  0.1040149E+00
         21   -1    0    0  502  501  0.00000000000E+00  0.00000000000E+00  0.99386276562E+02  0.99386276562E+02  0.00000000000E+00 0.  1.
         21   -1    0    0  501  502 -0.00000000000E+00 -0.00000000000E+00 -0.16968496522E+04  0.16968496522E+04  0.00000000000E+00 0.  1.
         25    1    1    2    0    0  0.55637816599E+02  0.11998776777E+02 -0.75992151715E+03  0.77223393444E+03  0.12500000000E+03 0.  0.
         25    1    1    2    0    0 -0.13736366909E+03  0.23329666213E+03 -0.36868562659E+03  0.47418372115E+03  0.12500000000E+03 0.  0.
         25    1    1    2    0    0  0.81725852488E+02 -0.24529543891E+03 -0.46885623186E+03  0.54981827313E+03  0.12500000000E+03 0.  0.
</event>
<event>
 5    0  0.5911608E-005  0.3188917E+03  0.7546771E-02  0.1076161E+00
         21   -1    0    0  502  501  0.00000000000E+00  0.00000000000E+00  0.26451946324E+03  0.26451946324E+03  0.00000000000E+00 0.  1.
         21   -1    0    0  501  502 -0.00000000000E+00 -0.00000000000E+00 -0.38444022485E+03  0.38444022485E+03  0.00000000000E+00 0.  1.
         25    1    1    2    0    0 -0.19741122345E+03 -0.12337489307E+02 -0.15677913911E+03  0.28165245116E+03  0.12500000000E+03 0.  0.
         25    1    1    2    0    0  0.78617219940E+02  0.85009305330E+02  0.55621810751E+02  0.17923737081E+03  0.12500000000E+03 0.  0.
         25    1    1    2    0    0  0.11879400351E+03 -0.72671816023E+02 -0.18763433250E+02  0.18806986611E+03  0.12500000000E+03 0.  0.
</event>
<event>
 5    0  0.5778896E-005  0.2395242E+03  0.7546771E-02  0.1120110E+00
         21   -1    0    0  502  501  0.00000000000E+00  0.00000000000E+00  0.16503165230E+03  0.16503165230E+03  0.00000000000E+00 0.  1.
         21   -1    0    0  501  502 -0.00000000000E+00 -0.00000000000E+00 -0.34764140106E+03  0.34764140106E+03  0.00000000000E+00 0.  1.
         25    1    1    2    0    0 -0.50511240667E+02  0.38503094568E+02  0.55263067621E+02  0.15070793067E+03  0.12500000000E+03 0.  0.
         25    1    1    2    0    0  0.67224028699E+02 -0.36138084544E+01 -0.12293522703E+03  0.18780362002E+03  0.12500000000E+03 0.  0.
         25    1    1    2    0    0 -0.16712788032E+02 -0.34889286113E+02 -0.11493758934E+03  0.17416150267E+03  0.12500000000E+03 0.  0.
</event>
<event>
 5    0  0.5778896E-005  0.2857901E+03  0.7546771E-02  0.1092568E+00
         21   -1    0    0  502  501  0.00000000000E+00  0.00000000000E+00  0.20839718586E+03  0.20839718586E+03  0.00000000000E+00 0. -1.
         21   -1    0    0  501  502 -0.00000000000E+00 -0.00000000000E+00 -0.39192459147E+03  0.39192459147E+03  0.00000000000E+00 0. -1.
         25    1    1    2    0    0 -0.59109151231E+02  0.83545103494E+02 -0.15650865385E+03  0.22493028877E+03  0.12500000000E+03 0.  0.
         25    1    1    2    0    0  0.12548300044E+03  0.13283131184E+02 -0.81556690187E+02  0.19544543660E+03  0.12500000000E+03 0.  0.
         25    1    1    2    0    0 -0.66373849211E+02 -0.96828234678E+02  0.54537938428E+02  0.17994605197E+03  0.12500000000E+03 0.  0.
</event>
<event>
 5    0  0.5778896E-005  0.3327703E+03  0.7546771E-02  0.1069918E+00
         21   -1    0    0  502  501  0.00000000000E+00  0.00000000000E+00  0.55913799954E+03  0.55913799954E+03  0.00000000000E+00 0.  1.
         21   -1    0    0  501  502 -0.00000000000E+00 -0.00000000000E+00 -0.19804783027E+03  0.19804783027E+03  0.00000000000E+00 0.  1.
         25    1    1    2    0    0 -0.12102011757E+03  0.17407065879E+03  0.52205332296E+01  0.24616806672E+03  0.12500000000E+03 0.  0.
         25    1    1    2    0    0  0.13699634353E+03 -0.10351668183E+03  0.26803694773E+03  0.34198319682E+03  0.12500000000E+03 0.  0.
         25    1    1    2    0    0 -0.15976225958E+02 -0.70553976955E+02  0.87832688306E+02  0.16903456627E+03  0.12500000000E+03 0.  0.
</event>
<event>
 5    0  0.5778896E-005  0.2772571E+03  0.7546771E-02  0.1097197E+00
         21   -1    0    0  502  501  0.00000000000E+00  0.00000000000E+00  0.33161477619E+03  0.33161477619E+03  0.00000000000E+00 0.  1.
         21   -1    0    0  501  502 -0.00000000000E+00 -0.00000000000E+00 -0.23180970120E+03  0.23180970120E+03  0.00000000000E+00 0.  1.
         25    1    1    2    0    0  0.13956858953E+02 -0.52692626459E+02  0.27465169904E+02  0.13910658630E+03  0.12500000000E+03 0.  0.
         25    1    1    2    0    0  0.25778856520E+01  0.17123453573E+03  0.12155436380E+03  0.24439389330E+03  0.12500000000E+03 0.  0.
         25    1    1    2    0    0 -0.16534744605E+02 -0.11854190927E+03 -0.49214458725E+02  0.17992399779E+03  0.12500000000E+03 0.  0.
</event>
<event>
 5    0  0.5778896E-005  0.3024573E+03  0.7546771E-02  0.1084019E+00
         21   -1    0    0  502  501  0.00000000000E+00  0.00000000000E+00  0.19041415308E+03  0.19041415308E+03  0.00000000000E+00 0.  1.
         21   -1    0    0  501  502 -0.00000000000E+00 -0.00000000000E+00 -0.48042881421E+03  0.48042881421E+03  0.00000000000E+00 0.  1.
         25    1    1    2    0    0  0.18473895534E+02 -0.15637543116E+02  0.11325318222E+03  0.17040276070E+03  0.12500000000E+03 0.  0.
         25    1    1    2    0    0 -0.34139019134E+02 -0.29634002187E+02 -0.92138643387E+02  0.16173489518E+03  0.12500000000E+03 0.  0.
         25    1    1    2    0    0  0.15665123600E+02  0.45271545303E+02 -0.31112919996E+03  0.33870531141E+03  0.12500000000E+03 0.  0.
</event>
<event>
 5    0  0.5778896E-005  0.2052045E+03  0.7546771E-02  0.1145421E+00
         21   -1    0    0  502  501  0.00000000000E+00  0.00000000000E+00  0.96035603705E+02  0.96035603705E+02  0.00000000000E+00 0.  1.
         21   -1    0    0  501  502 -0.00000000000E+00 -0.00000000000E+00 -0.43847163339E+03  0.43847163339E+03  0.00000000000E+00 0.  1.
         25    1    1    2    0    0 -0.43482633957E+02  0.34932896864E+02 -0.11825854943E+03  0.18088983181E+03  0.12500000000E+03 0.  0.
         25    1    1    2    0    0 -0.64938042208E+00 -0.58889188930E+02 -0.10190780306E+03  0.17169321068E+03  0.12500000000E+03 0.  0.
         25    1    1    2    0    0  0.44132014379E+02  0.23956292066E+02 -0.12226967719E+03  0.18192419461E+03  0.12500000000E+03 0.  0.
</event>
<event>
 5    0  0.5778896E-005  0.2894422E+03  0.7546771E-02  0.1090641E+00
         21   -1    0    0  502  501  0.00000000000E+00  0.00000000000E+00  0.16772468359E+03  0.16772468359E+03  0.00000000000E+00 0. -1.
         21   -1    0    0  501  502 -0.00000000000E+00 -0.00000000000E+00 -0.49948974176E+03  0.49948974176E+03  0.00000000000E+00 0. -1.
         25    1    1    2    0    0 -0.13932845508E+03 -0.68332079900E+02 -0.13495201156E+03  0.24066311924E+03  0.12500000000E+03 0.  0.
         25    1    1    2    0    0  0.12271173801E+03 -0.63861207000E+02 -0.14633800838E+03  0.23701526766E+03  0.12500000000E+03 0.  0.
         25    1    1    2    0    0  0.16616717063E+02  0.13219328690E+03 -0.50475038231E+02  0.18953603845E+03  0.12500000000E+03 0.  0.
</event>
<event>
 5    0  0.5778896E-005  0.2302191E+03  0.7546771E-02  0.1126486E+00
         21   -1    0    0  502  501  0.00000000000E+00  0.00000000000E+00  0.27981396335E+03  0.27981396335E+03  0.00000000000E+00 0.  1.
         21   -1    0    0  501  502 -0.00000000000E+00 -0.00000000000E+00 -0.18941448073E+03  0.18941448073E+03  0.00000000000E+00 0.  1.
         25    1    1    2    0    0  0.27213135798E+02  0.12223566710E+02 -0.26629092012E+02  0.13124053827E+03  0.12500000000E+03 0.  0.
         25    1    1    2    0    0  0.60016955152E+02 -0.54034589252E+02  0.14353138533E+02  0.14950847577E+03  0.12500000000E+03 0.  0.
         25    1    1    2    0    0 -0.87230090950E+02  0.41811022542E+02  0.10267543609E+03  0.18847943004E+03  0.12500000000E+03 0.  0.
</event>
<event>
 5    0  0.7132504E-005  0.4024400E+03  0.7546771E-02  0.1042938E+00
         21   -1    0    0  502  501  0.00000000000E+00  0.00000000000E+00  0.19418959350E+03  0.19418959350E+03  0.00000000000E+00 0.  1.
         21   -1    0    0  501  502 -0.00000000000E+00 -0.00000000000E+00 -0.83401960705E+03  0.83401960705E+03  0.00000000000E+00 0.  1.
         25    1    1    2    0    0 -0.30188414443E+02 -0.20857418573E+03 -0.52867202944E+03  0.58269515703E+03  0.12500000000E+03 0.  0.
         25    1    1    2    0    0 -0.40897818232E+02 -0.11774076490E+02  0.45049920087E+02  0.13951973234E+03  0.12500000000E+03 0.  0.
         25    1    1    2    0    0  0.71086232675E+02  0.22034826222E+03 -0.15620790420E+03  0.30599431118E+03  0.12500000000E+03 0.  0.
</event>
<event>
 5    0  0.5778896E-005  0.2746240E+03  0.7546771E-02  0.1098662E+00
         21   -1    0    0  502  501  0.00000000000E+00  0.00000000000E+00  0.10368763213E+04  0.10368763213E+04  0.00000000000E+00 0.  1.
         21   -1    0    0  501  502 -0.00000000000E+00 -0.00000000000E+00 -0.72736107523E+02  0.72736107523E+02  0.00000000000E+00 0.  1.
         25    1    1    2    0    0  0.67167879756E+02  0.64355574960E+02  0.20158322885E+03  0.25478218590E+03  0.12500000000E+03 0.  0.
         25    1    1    2    0    0  0.35260942112E+02  0.52632224752E+02  0.53100134882E+03  0.54918204411E+03  0.12500000000E+03 0.  0.
         25    1    1    2    0    0 -0.10242882187E+03 -0.11698779971E+03  0.23155563615E+03  0.30564819886E+03  0.12500000000E+03 0.  0.
</event>
<event>
 5    0  0.6873326E-005  0.3767164E+03  0.7546771E-02  0.1052154E+00
         21   -1    0    0  502  501  0.00000000000E+00  0.00000000000E+00  0.38336440236E+03  0.38336440236E+03  0.00000000000E+00 0.  1.
         21   -1    0    0  501  502 -0.00000000000E+00 -0.00000000000E+00 -0.37018373982E+03  0.37018373982E+03  0.00000000000E+00 0.  1.
         25    1    1    2    0    0  0.59763161022E+01 -0.66084189467E+02 -0.22701704057E+03  0.26751555686E+03  0.12500000000E+03 0.  0.
         25    1    1    2    0    0  0.85101715346E+02 -0.98880865658E+02  0.17296146043E+03  0.25012075952E+03  0.12500000000E+03 0.  0.
         25    1    1    2    0    0 -0.91078031448E+02  0.16496505512E+03  0.67236242674E+02  0.23591182580E+03  0.12500000000E+03 0.  0.
</event>
<event>
 5    0  0.5778896E-005  0.3249577E+03  0.7546771E-02  0.1073390E+00
         21   -1    0    0  502  501  0.00000000000E+00  0.00000000000E+00  0.97679186549E+02  0.97679186549E+02  0.00000000000E+00 0. -1.
         21   -1    0    0  501  502 -0.00000000000E+00 -0.00000000000E+00 -0.10810644339E+04  0.10810644339E+04  0.00000000000E+00 0. -1.
         25    1    1    2    0    0 -0.13641132478E+03 -0.57720283099E+01 -0.36204841790E+03  0.40662688394E+03  0.12500000000E+03 0.  0.
         25    1    1    2    0    0 -0.64757485319E+02  0.98618688072E+02 -0.11905874211E+03  0.20909127580E+03  0.12500000000E+03 0.  0.
         25    1    1    2    0    0  0.20116881010E+03 -0.92846659762E+02 -0.50227808734E+03  0.56302546071E+03  0.12500000000E+03 0.  0.
</event>
<event>
 5    0  0.5778896E-005  0.3792486E+03  0.7546771E-02  0.1051212E+00
         21   -1    0    0  502  501  0.00000000000E+00  0.00000000000E+00  0.29037124128E+03  0.29037124128E+03  0.00000000000E+00 0. -1.
         21   -1    0    0  501  502 -0.00000000000E+00 -0.00000000000E+00 -0.49532974619E+03  0.49532974619E+03  0.00000000000E+00 0. -1.
         25    1    1    2    0    0 -0.16823692540E+02 -0.27956303532E+03 -0.24902925944E+01  0.30670788856E+03  0.12500000000E+03 0.  0.
         25    1    1    2    0    0  0.67953637845E+01  0.27499580690E+03 -0.17943306591E+03  0.35141157625E+03  0.12500000000E+03 0.  0.
         25    1    1    2    0    0  0.10028328756E+02  0.45672284209E+01 -0.23035146407E+02  0.12758152266E+03  0.12500000000E+03 0.  0.
</event>
<event>
 5    0  0.6412528E-005  0.2890872E+03  0.7546771E-02  0.1090827E+00
         21   -1    0    0  502  501  0.00000000000E+00  0.00000000000E+00  0.28390828492E+03  0.28390828492E+03  0.00000000000E+00 0.  1.
         21   -1    0    0  501  502 -0.00000000000E+00 -0.00000000000E+00 -0.29436048574E+03  0.29436048574E+03  0.00000000000E+00 0.  1.
         25    1    1    2    0    0  0.53477487994E+02 -0.27785902794E+02 -0.92427044871E+02  0.16673229063E+03  0.12500000000E+03 0.  0.
         25    1    1    2    0    0  0.25071980202E+02  0.29578654415E+02  0.18849799579E+03  0.22947765775E+03  0.12500000000E+03 0.  0.
         25    1    1    2    0    0 -0.78549468196E+02 -0.17927516209E+01 -0.10652315174E+03  0.18205882227E+03  0.12500000000E+03 0.  0.
</event>
<event>
 5    0  0.5778896E-005  0.2593040E+03  0.7546771E-02  0.1107562E+00
         21   -1    0    0  502  501  0.00000000000E+00  0.00000000000E+00  0.85448421168E+03  0.85448421168E+03  0.00000000000E+00 0. -1.
         21   -1    0    0  501  502 -0.00000000000E+00 -0.00000000000E+00 -0.78689061446E+02  0.78689061446E+02  0.00000000000E+00 0. -1.
         25    1    1    2    0    0 -0.26957295892E+02 -0.34636480259E+02  0.20447150142E+03  0.24363902901E+03  0.12500000000E+03 0.  0.
         25    1    1    2    0    0  0.13777979123E+03 -0.44774552490E+02  0.36725894478E+03  0.41411612374E+03  0.12500000000E+03 0.  0.
         25    1    1    2    0    0 -0.11082249534E+03  0.79411032749E+02  0.20406470404E+03  0.27541812037E+03  0.12500000000E+03 0.  0.
</event>
<event>
 5    0  0.5778896E-005  0.3669852E+03  0.7546771E-02  0.1055852E+00
         21   -1    0    0  502  501  0.00000000000E+00  0.00000000000E+00  0.44731942923E+03  0.44731942923E+03  0.00000000000E+00 0.  1.
         21   -1    0    0  501  502 -0.00000000000E+00 -0.00000000000E+00 -0.30107816721E+03  0.30107816721E+03  0.00000000000E+00 0.  1.
         25    1    1    2    0    0 -0.16623662551E+03  0.54677965951E+02  0.15299205957E+03  0.26392397753E+03  0.12500000000E+03 0.  0.
         25    1    1    2    0    0 -0.25482924146E+02  0.13311439301E+03  0.27622719224E+02  0.18643185260E+03  0.12500000000E+03 0.  0.
         25    1    1    2    0    0  0.19171954966E+03 -0.18779235896E+03 -0.34373516775E+02  0.29804176630E+03  0.12500000000E+03 0.  0.
</event>
<event>
 5    0  0.6829337E-005  0.3798572E+03  0.7546771E-02  0.1050987E+00
         21   -1    0    0  502  501  0.00000000000E+00  0.00000000000E+00  0.63337946982E+03  0.63337946982E+03  0.00000000000E+00 0. -1.
         21   -1    0    0  501  502 -0.00000000000E+00 -0.00000000000E+00 -0.22781210769E+03  0.22781210769E+03  0.00000000000E+00 0. -1.
         25    1    1    2    0    0 -0.67398166373E+02  0.18320886498E+03  0.11900711244E+02  0.23210908635E+03  0.12500000000E+03 0.  0.
         25    1    1    2    0    0 -0.91881413392E+02 -0.76576532771E+02  0.35782955711E+03  0.39745836441E+03  0.12500000000E+03 0.  0.
         25    1    1    2    0    0  0.15927957976E+03 -0.10663233221E+03  0.35837093783E+02  0.23162412675E+03  0.12500000000E+03 0.  0.
</event>
<event>
 5    0  0.5778896E-005  0.4330350E+03  0.7546771E-02  0.1032906E+00
         21   -1    0    0  502  501  0.00000000000E+00  0.00000000000E+00  0.71280560199E+03  0.71280560199E+03  0.00000000000E+00 0.  1.
         21   -1    0    0  501  502 -0.00000000000E+00 -0.00000000000E+00 -0.26307210250E+03  0.26307210250E+03  0.00000000000E+00 0.  1.
         25    1    1    2    0    0 -0.11879442101E+03 -0.36571038733E+02  0.10743839678E+03  0.20644022002E+03  0.12500000000E+03 0.  0.
         25    1    1    2    0    0 -0.16948512905E+03 -0.13185674974E+03  0.32952305528E+03  0.41270068498E+03  0.12500000000E+03 0.  0.
         25    1    1    2    0    0  0.28827955006E+03  0.16842778847E+03  0.12772047435E+02  0.35673679949E+03  0.12500000000E+03 0.  0.
</event>
<event>
 5    0  0.5957435E-005  0.3405805E+03  0.7546771E-02  0.1066549E+00
         21   -1    0    0  502  501  0.00000000000E+00  0.00000000000E+00  0.33410879746E+03  0.33410879746E+03  0.00000000000E+00 0.  1.
         21   -1    0    0  501  502 -0.00000000000E+00 -0.00000000000E+00 -0.34717754965E+03  0.34717754965E+03  0.00000000000E+00 0.  1.
         25    1    1    2    0    0  0.14293403313E+03  0.10833396849E+03  0.26317049892E+02  0.22019076655E+03  0.12500000000E+03 0.  0.
         25    1    1    2    0    0  0.76540991171E+02 -0.61729332938E+02 -0.11160901019E+03  0.19429514927E+03  0.12500000000E+03 0.  0.
         25    1    1    2    0    0 -0.21947502430E+03 -0.46604635555E+02  0.72223208118E+02  0.26680043129E+03  0.12500000000E+03 0.  0.
</event>
<event>
 5    0  0.5778896E-005  0.2733980E+03  0.7546771E-02  0.1099350E+00
         21   -1    0    0  502  501  0.00000000000E+00  0.00000000000E+00  0.12267347142E+04  0.12267347142E+04  0.00000000000E+00 0.  1.
         21   -1    0    0  501  502 -0.00000000000E+00 -0.00000000000E+00 -0.60931245310E+02  0.60931245310E+02  0.00000000000E+00 0.  1.
         25    1    1    2    0    0 -0.42334430244E+02 -0.79380107553E+02  0.42124491449E+03  0.44851497572E+03  0.12500000000E+03 0.  0.
         25    1    1    2    0    0 -0.75081726243E+02  0.43556833435E+02  0.57697370154E+03  0.59670605462E+03  0.12500000000E+03 0.  0.
         25    1    1    2    0    0  0.11741615649E+03  0.35823274119E+02  0.16758485286E+03  0.24244492917E+03  0.12500000000E+03 0.  0.
</event>
<event>
 5    0  0.5778896E-005  0.3632353E+03  0.7546771E-02  0.1057310E+00
         21   -1    0    0  502  501  0.00000000000E+00  0.00000000000E+00  0.70737264105E+03  0.70737264105E+03  0.00000000000E+00 0. -1.
         21   -1    0    0  501  502 -0.00000000000E+00 -0.00000000000E+00 -0.18652103133E+03  0.18652103133E+03  0.00000000000E+00 0. -1.
         25    1    1    2    0    0  0.23394194696E+03 -0.77999285062E+02  0.22995687325E+03  0.35960796233E+03  0.12500000000E+03 0.  0.
         25    1    1    2    0    0 -0.17782845819E+03  0.16433970442E+03  0.24375757665E+03  0.36561353252E+03  0.12500000000E+03 0.  0.
         25    1    1    2    0    0 -0.56113488767E+02 -0.86340419355E+02  0.47137159828E+02  0.16867217753E+03  0.12500000000E+03 0.  0.
</event>
<event>
 5    0  0.5778896E-005  0.2483408E+03  0.7546771E-02  0.1114358E+00
         21   -1    0    0  502  501  0.00000000000E+00  0.00000000000E+00  0.58545957984E+02  0.58545957984E+02  0.00000000000E+00 0.  1.
         21   -1    0    0  501  502 -0.00000000000E+00 -0.00000000000E+00 -0.10534144144E+04  0.10534144144E+04  0.00000000000E+00 0.  1.
         25    1    1    2    0    0  0.62628316139E+02  0.30903010511E+02 -0.71345127195E+03  0.72767782671E+03  0.12500000000E+03 0.  0.
         25    1    1    2    0    0 -0.47002970237E+02 -0.95288984731E+01 -0.14138617740E+03  0.19471807897E+03  0.12500000000E+03 0.  0.
         25    1    1    2    0    0 -0.15625345902E+02 -0.21374112038E+02 -0.14003100710E+03  0.18956446674E+03  0.12500000000E+03 0.  0.
</event>
<event>
 5    0  0.5778896E-005  0.2855239E+03  0.7546771E-02  0.1092710E+00
         21   -1    0    0  502  501  0.00000000000E+00  0.00000000000E+00  0.52600184510E+03  0.52600184510E+03  0.00000000000E+00 0. -1.
         21   -1    0    0  501  502 -0.00000000000E+00 -0.00000000000E+00 -0.15498786731E+03  0.15498786731E+03  0.00000000000E+00 0. -1.
         25    1    1    2    0    0 -0.29949331062E+02  0.15628252978E+03  0.16546644715E+03  0.26139115646E+03  0.12500000000E+03 0.  0.
         25    1    1    2    0    0 -0.68305052489E+01 -0.14675648612E+02 -0.14963829699E+02  0.12692890397E+03  0.12500000000E+03 0.  0.
         25    1    1    2    0    0  0.36779836310E+02 -0.14160688116E+03  0.22051136034E+03  0.29266965198E+03  0.12500000000E+03 0.  0.
</event>
<event>
 5    0  0.5778896E-005  0.3047146E+03  0.7546771E-02  0.1082907E+00
         21   -1    0    0  502  501  0.00000000000E+00  0.00000000000E+00  0.31083186162E+03  0.31083186162E+03  0.00000000000E+00 0. -1.
         21   -1    0    0  501  502 -0.00000000000E+00 -0.00000000000E+00 -0.29871769670E+03  0.29871769670E+03  0.00000000000E+00 0. -1.
         25    1    1    2    0    0 -0.22271634648E+02  0.10913690131E+03  0.41119054437E+02  0.17240262636E+03  0.12500000000E+03 0.  0.
         25    1    1    2    0    0 -0.65602086116E+02  0.30254009606E+02 -0.14112057280E+03  0.20188847136E+03  0.12500000000E+03 0.  0.
         25    1    1    2    0    0  0.87873720765E+02 -0.13939091092E+03  0.11211568328E+03  0.23525846060E+03  0.12500000000E+03 0.  0.
</event>
<event>
 5    0  0.5778896E-005  0.2455597E+03  0.7546771E-02  0.1116144E+00
         21   -1    0    0  502  501  0.00000000000E+00  0.00000000000E+00  0.13354966378E+03  0.13354966378E+03  0.00000000000E+00 0.  1.
         21   -1    0    0  501  502 -0.00000000000E+00 -0.00000000000E+00 -0.45151414372E+03  0.45151414372E+03  0.00000000000E+00 0.  1.
         25    1    1    2    0    0 -0.18489557467E+01 -0.31994263438E+02  0.29494167745E+02  0.13237053094E+03  0.12500000000E+03 0.  0.
         25    1    1    2    0    0  0.49693485213E+02  0.41001597376E+02 -0.25015726018E+03  0.28697426414E+03  0.12500000000E+03 0.  0.
         25    1    1    2    0    0 -0.47844529466E+02 -0.90073339377E+01 -0.97301387509E+02  0.16571901241E+03  0.12500000000E+03 0.  0.
</event>
<event>
 5    0  0.5778896E-005  0.4297564E+03  0.7546771E-02  0.1033937E+00
         21   -1    0    0  502  501  0.00000000000E+00  0.00000000000E+00  0.43141187572E+03  0.43141187572E+03  0.00000000000E+00 0.  1.
         21   -1    0    0  501  502 -0.00000000000E+00 -0.00000000000E+00 -0.42810732247E+03  0.42810732247E+03  0.00000000000E+00 0.  1.
         25    1    1    2    0    0 -0.20381145469E+03  0.61156749391E+02  0.67439164357E+02  0.25583646720E+03  0.12500000000E+03 0.  0.
         25    1    1    2    0    0 -0.13461392097E+03 -0.14693320346E+02  0.94196667003E+02  0.20696573015E+03  0.12500000000E+03 0.  0.
         25    1    1    2    0    0  0.33842537566E+03 -0.46463429045E+02 -0.15833127811E+03  0.39671700084E+03  0.12500000000E+03 0.  0.
</event>
<event>
 5    0  0.6051475E-005  0.3297902E+03  0.7546771E-02  0.1071230E+00
         21   -1    0    0  502  501  0.00000000000E+00  0.00000000000E+00  0.91971584666E+03  0.91971584666E+03  0.00000000000E+00 0. -1.
         21   -1    0    0  501  502 -0.00000000000E+00 -0.00000000000E+00 -0.11825566464E+03  0.11825566464E+03  0.00000000000E+00 0. -1.
         25    1    1    2    0    0 -0.44914040070E+02 -0.10247393869E+03  0.48979332755E+02  0.17476313725E+03  0.12500000000E+03 0.  0.
         25    1    1    2    0    0  0.69704405373E+02  0.17213494720E+03  0.23016131878E+03  0.32107378722E+03  0.12500000000E+03 0.  0.
         25    1    1    2    0    0 -0.24790365303E+02 -0.69661008515E+02  0.52231953048E+03  0.54213458683E+03  0.12500000000E+03 0.  0.
</event>
<event>
 5    0  0.5778896E-005  0.4088685E+03  0.7546771E-02  0.1040751E+00
         21   -1    0    0  502  501  0.00000000000E+00  0.00000000000E+00  0.93300286401E+03  0.93300286401E+03  0.00000000000E+00 0.  1.
         21   -1    0    0  501  502 -0.00000000000E+00 -0.00000000000E+00 -0.17917781049E+03  0.17917781049E+03  0.00000000000E+00 0.  1.
         25    1    1    2    0    0 -0.42312553659E+02 -0.10965792434E+03  0.18445529198E+03  0.25192055753E+03  0.12500000000E+03 0.  0.
         25    1    1    2    0    0 -0.17224789153E+03 -0.39189117321E+02 -0.56441540497E+01  0.21647627936E+03  0.12500000000E+03 0.  0.
         25    1    1    2    0    0  0.21456044519E+03  0.14884704166E+03  0.57501391559E+03  0.64378383761E+03  0.12500000000E+03 0.  0.
</event>
<event>
 5    0  0.5778896E-005  0.2103333E+03  0.7546771E-02  0.1141302E+00
         21   -1    0    0  502  501  0.00000000000E+00  0.00000000000E+00  0.81953140023E+03  0.81953140023E+03  0.00000000000E+00 0.  1.
         21   -1    0    0  501  502 -0.00000000000E+00 -0.00000000000E+00 -0.53982174802E+02  0.53982174802E+02  0.00000000000E+00 0.  1.
         25    1    1    2    0    0 -0.48818712664E+01 -0.29900516832E+02  0.27740605921E+03  0.30577278371E+03  0.12500000000E+03 0.  0.
         25    1    1    2    0    0 -0.29389459689E+02 -0.37461436880E+02  0.30817835472E+03  0.33595535107E+03  0.12500000000E+03 0.  0.
         25    1    1    2    0    0  0.34271330956E+02  0.67361953712E+02  0.17996481150E+03  0.23178544025E+03  0.12500000000E+03 0.  0.
</event>
<event>
 5    0  0.6080589E-005  0.2673018E+03  0.7546771E-02  0.1102834E+00
         21   -1    0    0  502  501  0.00000000000E+00  0.00000000000E+00  0.13520170568E+03  0.13520170568E+03  0.00000000000E+00 0.  1.
         21   -1    0    0  501  502 -0.00000000000E+00 -0.00000000000E+00 -0.52847146582E+03  0.52847146582E+03  0.00000000000E+00 0.  1.
         25    1    1    2    0    0 -0.96874950019E+02 -0.12936651742E+02 -0.33175436555E+03  0.36774729362E+03  0.12500000000E+03 0.  0.
         25    1    1    2    0    0  0.99900791554E+02  0.11899861108E+02 -0.10253894918E+02  0.16078531403E+03  0.12500000000E+03 0.  0.
         25    1    1    2    0    0 -0.30258415352E+01  0.10367906341E+01 -0.51261499671E+02  0.13514056386E+03  0.12500000000E+03 0.  0.
</event>
<event>
 5    0  0.6935524E-005  0.3113874E+03  0.7546771E-02  0.1079683E+00
         21   -1    0    0  502  501  0.00000000000E+00  0.00000000000E+00  0.70697872926E+03  0.70697872926E+03  0.00000000000E+00 0. -1.
         21   -1    0    0  501  502 -0.00000000000E+00 -0.00000000000E+00 -0.13714998683E+03  0.13714998683E+03  0.00000000000E+00 0. -1.
         25    1    1    2    0    0 -0.11820934089E+03 -0.10103394969E+03  0.10094048091E+03  0.22359626104E+03  0.12500000000E+03 0.  0.
         25    1    1    2    0    0  0.76092254177E+02  0.18773075826E+03  0.21054652155E+03  0.31778562976E+03  0.12500000000E+03 0.  0.
         25    1    1    2    0    0  0.42117086718E+02 -0.86696808573E+02  0.25834173997E+03  0.30274682529E+03  0.12500000000E+03 0.  0.
</event>
<event>
 5    0  0.7204676E-005  0.3952696E+03  0.7546771E-02  0.1045430E+00
         21   -1    0    0  502  501  0.00000000000E+00  0.00000000000E+00  0.47639325163E+03  0.47639325163E+03  0.00000000000E+00 0. -1.
         21   -1    0    0  501  502 -0.00000000000E+00 -0.00000000000E+00 -0.32796026386E+03  0.32796026386E+03  0.00000000000E+00 0. -1.
         25    1    1    2    0    0 -0.14826097896E+03  0.74476826337E+02 -0.18789111654E+03  0.28010031634E+03  0.12500000000E+03 0.  0.
         25    1    1    2    0    0 -0.37375390813E+02 -0.52622123225E+02  0.24301732132E+03  0.28079961922E+03  0.12500000000E+03 0.  0.
         25    1    1    2    0    0  0.18563636977E+03 -0.21854703112E+02  0.93306782980E+02  0.24345357993E+03  0.12500000000E+03 0.  0.
</event>
<event>
 5    0  0.5778896E-005  0.2079375E+03  0.7546771E-02  0.1143210E+00
         21   -1    0    0  502  501  0.00000000000E+00  0.00000000000E+00  0.32917664317E+03  0.32917664317E+03  0.00000000000E+00 0. -1.
         21   -1    0    0  501  502 -0.00000000000E+00 -0.00000000000E+00 -0.13135193331E+03  0.13135193331E+03  0.00000000000E+00 0. -1.
         25    1    1    2    0    0  0.12393943708E+02  0.20099877311E+02  0.15911737003E+03  0.20371782533E+03  0.12500000000E+03 0.  0.
         25    1    1    2    0    0 -0.11852109174E+01  0.49213498576E+01  0.89314708147E+01  0.12542087378E+03  0.12500000000E+03 0.  0.
         25    1    1    2    0    0 -0.11208732791E+02 -0.25021227168E+02  0.29775869012E+02  0.13138987737E+03  0.12500000000E+03 0.  0.
</event>
<event>
 5    0  0.5778896E-005  0.2444864E+03  0.7546771E-02  0.1116840E+00
         21   -1    0    0  502  501  0.00000000000E+00  0.00000000000E+00  0.90505607077E+02  0.90505607077E+02  0.00000000000E+00 0. -1.
         21   -1    0    0  501  502 -0.00000000000E+00 -0.00000000000E+00 -0.66044070730E+03  0.66044070730E+03  0.00000000000E+00 0. -1.
         25    1    1    2    0    0  0.89268694601E+02 -0.53189329964E+02 -0.13133505861E+03  0.20897823398E+03  0.12500000000E+03 0.  0.
         25    1    1    2    0    0 -0.99465751473E+02 -0.19788605522E+02 -0.15529827509E+03  0.22366845748E+03  0.12500000000E+03 0.  0.
         25    1    1    2    0    0  0.10197056873E+02  0.72977935485E+02 -0.28330176651E+03  0.31829962291E+03  0.12500000000E+03 0.  0.
</event>
<event>
 5    0  0.5778896E-005  0.3465449E+03  0.7546771E-02  0.1064042E+00
         21   -1    0    0  502  501  0.00000000000E+00  0.00000000000E+00  0.60129144935E+02  0.60129144935E+02  0.00000000000E+00 0.  1.
         21   -1    0    0  501  502 -0.00000000000E+00 -0.00000000000E+00 -0.19972577325E+04  0.19972577325E+04  0.00000000000E+00 0.  1.
         25    1    1    2    0    0  0.11706487953E+03  0.30384223904E+02 -0.12570625534E+03  0.21460300490E+03  0.12500000000E+03 0.  0.
         25    1    1    2    0    0 -0.91945283670E+02  0.57853413830E+02 -0.12276857102E+04  0.12388051323E+04  0.12500000000E+03 0.  0.
         25    1    1    2    0    0 -0.25119595856E+02 -0.88237637734E+02 -0.58373662201E+03  0.60397874026E+03  0.12500000000E+03 0.  0.
</event>
<event>
 5    0  0.6661310E-005  0.3138762E+03  0.7546771E-02  0.1078503E+00
         21   -1    0    0  502  501  0.00000000000E+00  0.00000000000E+00  0.21395834758E+03  0.21395834758E+03  0.00000000000E+00 0.  1.
         21   -1    0    0  501  502 -0.00000000000E+00 -0.00000000000E+00 -0.46045543271E+03  0.46045543271E+03  0.00000000000E+00 0.  1.
         25    1    1    2    0    0  0.36539621350E+02  0.13742411990E+02  0.16275995543E+02  0.13196175903E+03  0.12500000000E+03 0.  0.
         25    1    1    2    0    0 -0.13644613427E+03 -0.13053032056E+03 -0.25937196901E+03  0.34431748496E+03  0.12500000000E+03 0.  0.
         25    1    1    2    0    0  0.99906512922E+02  0.11678790857E+03 -0.34011116764E+01  0.19813453630E+03  0.12500000000E+03 0.  0.
</event>
<event>
 5    0  0.6223761E-005  0.4807862E+03  0.7546771E-02  0.1018919E+00
         21   -1    0    0  502  501  0.00000000000E+00  0.00000000000E+00  0.90477389554E+03  0.90477389554E+03  0.00000000000E+00 0. -1.
         21   -1    0    0  501  502 -0.00000000000E+00 -0.00000000000E+00 -0.25548408687E+03  0.25548408687E+03  0.00000000000E+00 0. -1.
         25    1    1    2    0    0  0.10362913466E+03 -0.27266280272E+03  0.45146290751E+03  0.55184033777E+03  0.12500000000E+03 0.  0.
         25    1    1    2    0    0  0.12004484649E+03  0.26554388774E+03  0.84559209572E+02  0.32817614388E+03  0.12500000000E+03 0.  0.
         25    1    1    2    0    0 -0.22367398115E+03  0.71189149791E+01  0.11326769159E+03  0.28024150077E+03  0.12500000000E+03 0.  0.
</event>
<event>
 5    0  0.5778896E-005  0.3452672E+03  0.7546771E-02  0.1064574E+00
         21   -1    0    0  502  501  0.00000000000E+00  0.00000000000E+00  0.16723823045E+03  0.16723823045E+03  0.00000000000E+00 0.  1.
         21   -1    0    0  501  502 -0.00000000000E+00 -0.00000000000E+00 -0.71281222051E+03  0.71281222051E+03  0.00000000000E+00 0.  1.
         25    1    1    2    0    0  0.65514276497E+02  0.18194822455E+03 -0.22926996440E+03  0.32494152307E+03  0.12500000000E+03 0.  0.
         25    1    1    2    0    0 -0.15118380365E+03 -0.22056235366E+03 -0.16825566351E+03  0.33976353931E+03  0.12500000000E+03 0.  0.
         25    1    1    2    0    0  0.85669527149E+02  0.38614129112E+02 -0.14804836215E+03  0.21534538858E+03  0.12500000000E+03 0.  0.
</event>
<event>
 5    0  0.5778896E-005  0.3297983E+03  0.7546771E-02  0.1071226E+00
         21   -1    0    0  502  501  0.00000000000E+00  0.00000000000E+00  0.64518930621E+02  0.64518930621E+02  0.00000000000E+00 0.  1.
         21   -1    0    0  501  502 -0.00000000000E+00 -0.00000000000E+00 -0.16858136217E+04  0.16858136217E+04  0.00000000000E+00 0.  1.
         25    1    1    2    0    0 -0.80143151529E+02 -0.91289950950E+02 -0.61215019130E+03  0.63648223588E+03  0.12500000000E+03 0.  0.
         25    1    1    2    0    0  0.17555523448E+03 -0.68664610855E+02 -0.67079103519E+03  0.70789835571E+03  0.12500000000E+03 0.  0.
         25    1    1    2    0    0 -0.95412082946E+02  0.15995456180E+03 -0.33835346457E+03  0.40595196070E+03  0.12500000000E+03 0.  0.
</event>
<event>
 5    0  0.5778896E-005  0.2850290E+03  0.7546771E-02  0.1092973E+00
         21   -1    0    0  502  501  0.00000000000E+00  0.00000000000E+00  0.79596032589E+03  0.79596032589E+03  0.00000000000E+00 0. -1.
         21   -1    0    0  501  502 -0.00000000000E+00 -0.00000000000E+00 -0.10206732617E+03  0.10206732617E+03  0.00000000000E+00 0. -1.
         25    1    1    2    0    0  0.55498485704E+02 -0.88078869959E+02  0.60935752540E+02  0.17371279511E+03  0.12500000000E+03 0.  0.
         25    1    1    2    0    0  0.70750501507E+01 -0.62660765282E+02  0.32693864736E+03  0.35565475813E+03  0.12500000000E+03 0.  0.
         25    1    1    2    0    0 -0.62573535855E+02  0.15073963524E+03  0.30601859982E+03  0.36866009882E+03  0.12500000000E+03 0.  0.
</event>
<event>
 5    0  0.5778896E-005  0.2907604E+03  0.7546771E-02  0.1089953E+00
         21   -1    0    0  502  501  0.00000000000E+00  0.00000000000E+00  0.96979331573E+02  0.96979331573E+02  0.00000000000E+00 0. -1.
         21   -1    0    0  501  502 -0.00000000000E+00 -0.00000000000E+00 -0.87174845147E+03  0.87174845147E+03  0.00000000000E+00 0. -1.
         25    1    1    2    0    0  0.85911594239E+02  0.33595734232E+02 -0.15823899358E+02  0.15615655982E+03  0.12500000000E+03 0.  0.
         25    1    1    2    0    0 -0.23227534054E+02 -0.27343612884E+02 -0.51649007637E+03  0.53261073073E+03  0.12500000000E+03 0.  0.
         25    1    1    2    0    0 -0.62684060185E+02 -0.62521213486E+01 -0.24245514417E+03  0.27996049249E+03  0.12500000000E+03 0.  0.
</event>
<event>
 5    0  0.5778896E-005  0.2641166E+03  0.7546771E-02  0.1104695E+00
         21   -1    0    0  502  501  0.00000000000E+00  0.00000000000E+00  0.75875858710E+03  0.75875858710E+03  0.00000000000E+00 0.  1.
         21   -1    0    0  501  502 -0.00000000000E+00 -0.00000000000E+00 -0.91936479962E+02  0.91936479962E+02  0.00000000000E+00 0.  1.
         25    1    1    2    0    0  0.82332605257E+02 -0.21691917201E+02  0.67954562865E+02  0.16580717649E+03  0.12500000000E+03 0.  0.
         25    1    1    2    0    0  0.44955262245E+01  0.34169043594E+02  0.10168062898E+03  0.16477767933E+03  0.12500000000E+03 0.  0.
         25    1    1    2    0    0 -0.86828131482E+02 -0.12477126393E+02  0.49718691530E+03  0.52011021125E+03  0.12500000000E+03 0.  0.
</event>
<event>
 5    0  0.5778896E-005  0.2963154E+03  0.7546771E-02  0.1087097E+00
         21   -1    0    0  502  501  0.00000000000E+00  0.00000000000E+00  0.78992739588E+03  0.78992739588E+03  0.00000000000E+00 0.  1.
         21   -1    0    0  501  502 -0.00000000000E+00 -0.00000000000E+00 -0.11115300616E+03  0.11115300616E+03  0.00000000000E+00 0.  1.
         25    1    1    2    0    0  0.11598826274E+02  0.34067076399E+02  0.54680930188E+03  0.56206806624E+03  0.12500000000E+03 0.  0.
         25    1    1    2    0    0  0.35717272178E+02  0.40014803236E+00  0.15147336025E+03  0.19961228047E+03  0.12500000000E+03 0.  0.
         25    1    1    2    0    0 -0.47316098452E+02 -0.34467224431E+02 -0.19508272404E+02  0.13940005533E+03  0.12500000000E+03 0.  0.
</event>
<event>
 5    0  0.5778896E-005  0.2644478E+03  0.7546771E-02  0.1104500E+00
         21   -1    0    0  502  501  0.00000000000E+00  0.00000000000E+00  0.50013089730E+02  0.50013089730E+02  0.00000000000E+00 0.  1.
         21   -1    0    0  501  502 -0.00000000000E+00 -0.00000000000E+00 -0.13982870758E+04  0.13982870758E+04  0.00000000000E+00 0.  1.
         25    1    1    2    0    0  0.81921614834E+02 -0.11011081827E+03 -0.26909334999E+03  0.32691248720E+03  0.12500000000E+03 0.  0.
         25    1    1    2    0    0 -0.78425459723E+02  0.24822932004E+02 -0.62435166008E+03  0.64203327494E+03  0.12500000000E+03 0.  0.
         25    1    1    2    0    0 -0.34961551118E+01  0.85287886263E+02 -0.45482897604E+03  0.47935440343E+03  0.12500000000E+03 0.  0.
</event>
<event>
 5    0  0.5778896E-005  0.2609576E+03  0.7546771E-02  0.1106569E+00
         21   -1    0    0  502  501  0.00000000000E+00  0.00000000000E+00  0.27502130951E+03  0.27502130951E+03  0.00000000000E+00 0.  1.
         21   -1    0    0  501  502 -0.00000000000E+00 -0.00000000000E+00 -0.24761299061E+03  0.24761299061E+03  0.00000000000E+00 0.  1.
         25    1    1    2    0    0  0.21904879225E+02  0.16260401905E+03  0.54013664825E+02  0.21321905809E+03  0.12500000000E+03 0.  0.
         25    1    1    2    0    0  0.20193719529E+02 -0.59451016615E+02 -0.24150034177E+02  0.14195222378E+03  0.12500000000E+03 0.  0.
         25    1    1    2    0    0 -0.42098598754E+02 -0.10315300243E+03 -0.24553117450E+01  0.16746301826E+03  0.12500000000E+03 0.  0.
</event>
<event>
 5    0  0.6573650E-005  0.3771905E+03  0.7546771E-02  0.1051977E+00
         21   -1    0    0  502  501  0.00000000000E+00  0.00000000000E+00  0.93498000039E+03  0.93498000039E+03  0.00000000000E+00 0.  1.
         21   -1    0    0  501  502 -0.00000000000E+00 -0.00000000000E+00 -0.15216651655E+03  0.15216651655E+03  0.00000000000E+00 0.  1.
         25    1    1    2    0    0 -0.12061193248E+03  0.14314522821E+03  0.23181333019E+03  0.32311022062E+03  0.12500000000E+03 0.  0.
         25    1    1    2    0    0 -0.10922683545E+03 -0.88631132060E+02  0.47617385964E+02  0.19410923368E+03  0.12500000000E+03 0.  0.
         25    1    1    2    0    0  0.22983876794E+03 -0.54514096151E+02  0.50338276769E+03  0.56992706264E+03  0.12500000000E+03 0.  0.
</event>
<event>
 5    0  0.6660923E-005  0.3648166E+03  0.7546771E-02  0.1056693E+00
         21   -1    0    0  502  501  0.00000000000E+00  0.00000000000E+00  0.15431696530E+03  0.15431696530E+03  0.00000000000E+00 0.  1.
         21   -1    0    0  501  502 -0.00000000000E+00 -0.00000000000E+00 -0.86245306010E+03  0.86245306010E+03  0.00000000000E+00 0.  1.
         25    1    1    2    0    0 -0.55223287590E+01 -0.19422681619E+03 -0.33014296076E+03  0.40295648249E+03  0.12500000000E+03 0.  0.
         25    1    1    2    0    0 -0.60467508210E+02  0.21509048468E+03 -0.39417378215E+03  0.47001936841E+03  0.12500000000E+03 0.  0.
         25    1    1    2    0    0  0.65989836969E+02 -0.20863668481E+02  0.16180648108E+02  0.14379417450E+03  0.12500000000E+03 0.  0.
</event>
<event>
 5    0  0.5778896E-005  0.4206508E+03  0.7546771E-02  0.1036855E+00
         21   -1    0    0  502  501  0.00000000000E+00  0.00000000000E+00  0.15375375743E+03  0.15375375743E+03  0.00000000000E+00 0.  1.
         21   -1    0    0  501  502 -0.00000000000E+00 -0.00000000000E+00 -0.11508471767E+04  0.11508471767E+04  0.00000000000E+00 0.  1.
         25    1    1    2    0    0  0.69160006439E+02  0.26951566202E+03 -0.23703019336E+03  0.38630313373E+03  0.12500000000E+03 0.  0.
         25    1    1    2    0    0  0.96220275810E+02 -0.75407540878E+01 -0.12762995232E+03  0.20305075518E+03  0.12500000000E+03 0.  0.
         25    1    1    2    0    0 -0.16538028225E+03 -0.26197490794E+03 -0.63243327359E+03  0.71524704521E+03  0.12500000000E+03 0.  0.
</event>
<event>
 5    0  0.5778896E-005  0.2588259E+03  0.7546771E-02  0.1107851E+00
         21   -1    0    0  502  501  0.00000000000E+00  0.00000000000E+00  0.26759960260E+03  0.26759960260E+03  0.00000000000E+00 0.  1.
         21   -1    0    0  501  502 -0.00000000000E+00 -0.00000000000E+00 -0.25033990512E+03  0.25033990512E+03  0.00000000000E+00 0.  1.
         25    1    1    2    0    0 -0.51498432923E+02 -0.12189679113E+03  0.34080590067E+02  0.18519558013E+03  0.12500000000E+03 0.  0.
         25    1    1    2    0    0  0.26136313888E+02  0.11782485339E+03 -0.78904082420E+02  0.19083148902E+03  0.12500000000E+03 0.  0.
         25    1    1    2    0    0  0.25362119034E+02  0.40719377416E+01  0.62083189826E+02  0.14191243856E+03  0.12500000000E+03 0.  0.
</event>
<event>
 5    0  0.6616645E-005  0.4604733E+03  0.7546771E-02  0.1024644E+00
         21   -1    0    0  502  501  0.00000000000E+00  0.00000000000E+00  0.39120256044E+03  0.39120256044E+03  0.00000000000E+00 0. -1.
         21   -1    0    0  501  502 -0.00000000000E+00 -0.00000000000E+00 -0.54200995337E+03  0.54200995337E+03  0.00000000000E+00 0. -1.
         25    1    1    2    0    0  0.24492089754E+03  0.11773295664E+02  0.38047435986E+02  0.27784431599E+03  0.12500000000E+03 0.  0.
         25    1    1    2    0    0 -0.83265711660E+02 -0.19786364739E+03 -0.27042261146E+03  0.36720102190E+03  0.12500000000E+03 0.  0.
         25    1    1    2    0    0 -0.16165518588E+03  0.18609035172E+03  0.81567782535E+02  0.28816717592E+03  0.12500000000E+03 0.  0.
</event>
<event>
 5    0  0.5778896E-005  0.2687615E+03  0.7546771E-02  0.1101991E+00
         21   -1    0    0  502  501  0.00000000000E+00  0.00000000000E+00  0.67460436188E+02  0.67460436188E+02  0.00000000000E+00 0. -1.
         21   -1    0    0  501  502 -0.00000000000E+00 -0.00000000000E+00 -0.10707421891E+04  0.10707421891E+04  0.00000000000E+00 0. -1.
         25    1    1    2    0    0  0.12343531727E+02 -0.96074229495E+02 -0.69351160574E+03  0.71131284794E+03  0.12500000000E+03 0.  0.
         25    1    1    2    0    0  0.11034988615E+02  0.98143914916E+02 -0.12459774591E+03  0.20224637770E+03  0.12500000000E+03 0.  0.
         25    1    1    2    0    0 -0.23378520342E+02 -0.20696854215E+01 -0.18517240123E+03  0.22464339961E+03  0.12500000000E+03 0.  0.
</event>
<event>
 5    0  0.5778896E-005  0.2163601E+03  0.7546771E-02  0.1136626E+00
         21   -1    0    0  502  501  0.00000000000E+00  0.00000000000E+00  0.50785705243E+02  0.50785705243E+02  0.00000000000E+00 0.  1.
         21   -1    0    0  501  502 -0.00000000000E+00 -0.00000000000E+00 -0.92174898415E+03  0.92174898415E+03  0.00000000000E+00 0.  1.
         25    1    1    2    0    0 -0.69389290398E+02  0.39433648271E+02 -0.37210517892E+03  0.40057103042E+03  0.12500000000E+03 0.  0.
         25    1    1    2    0    0  0.66380201236E+02  0.15635860091E+02 -0.27577756073E+03  0.31036925466E+03  0.12500000000E+03 0.  0.
         25    1    1    2    0    0  0.30090891617E+01 -0.55069508362E+02 -0.22308053926E+03  0.26159440431E+03  0.12500000000E+03 0.  0.
</event>
<event>
 5    0  0.5778896E-005  0.2638649E+03  0.7546771E-02  0.1104843E+00
         21   -1    0    0  502  501  0.00000000000E+00  0.00000000000E+00  0.23719548605E+03  0.23719548605E+03  0.00000000000E+00 0.  1.
         21   -1    0    0  501  502 -0.00000000000E+00 -0.00000000000E+00 -0.29353296865E+03  0.29353296865E+03  0.00000000000E+00 0.  1.
         25    1    1    2    0    0 -0.38698851226E+02 -0.15003735103E+03 -0.29794583622E+02  0.20129959018E+03  0.12500000000E+03 0.  0.
         25    1    1    2    0    0 -0.68584959024E+01  0.41990103161E+01  0.19386549550E+02  0.12674978879E+03  0.12500000000E+03 0.  0.
         25    1    1    2    0    0  0.45557347128E+02  0.14583834072E+03 -0.45929448530E+02  0.20267907574E+03  0.12500000000E+03 0.  0.
</event>
<event>
 5    0  0.8038438E-005  0.4717364E+03  0.7546771E-02  0.1021431E+00
         21   -1    0    0  502  501  0.00000000000E+00  0.00000000000E+00  0.86365990942E+03  0.86365990942E+03  0.00000000000E+00 0. -1.
         21   -1    0    0  501  502 -0.00000000000E+00 -0.00000000000E+00 -0.25766539651E+03  0.25766539651E+03  0.00000000000E+00 0. -1.
         25    1    1    2    0    0 -0.23312499704E+03  0.10747246705E+03 -0.40658486477E+02  0.28840199018E+03  0.12500000000E+03 0.  0.
         25    1    1    2    0    0  0.41937021562E+02 -0.83502737814E+02  0.56970923247E+03  0.59069876465E+03  0.12500000000E+03 0.  0.
         25    1    1    2    0    0  0.19118797548E+03 -0.23969729234E+02  0.76943766919E+02  0.24222455110E+03  0.12500000000E+03 0.  0.
</event>
<event>
 5    0  0.5877357E-005  0.3560106E+03  0.7546771E-02  0.1060175E+00
         21   -1    0    0  502  501  0.00000000000E+00  0.00000000000E+00  0.68660429097E+03  0.68660429097E+03  0.00000000000E+00 0. -1.
         21   -1    0    0  501  502 -0.00000000000E+00 -0.00000000000E+00 -0.18459479725E+03  0.18459479725E+03  0.00000000000E+00 0. -1.
         25    1    1    2    0    0 -0.20594483496E+03  0.23979915483E+02  0.20091834033E+03  0.31461324014E+03  0.12500000000E+03 0.  0.
         25    1    1    2    0    0  0.28789587363E+03  0.69162931328E+01  0.22348476690E+03  0.38535997482E+03  0.12500000000E+03 0.  0.
         25    1    1    2    0    0 -0.81951038667E+02 -0.30896208616E+02  0.77606386499E+02  0.17122587325E+03  0.12500000000E+03 0.  0.
</event>
<event>
 5    0  0.6484926E-005  0.3536207E+03  0.7546771E-02  0.1061139E+00
         21   -1    0    0  502  501  0.00000000000E+00  0.00000000000E+00  0.87868421067E+03  0.87868421067E+03  0.00000000000E+00 0.  1.
         21   -1    0    0  501  502 -0.00000000000E+00 -0.00000000000E+00 -0.14231233543E+03  0.14231233543E+03  0.00000000000E+00 0.  1.
         25    1    1    2    0    0 -0.15509309169E+03 -0.67330900671E+02  0.14608759803E+03  0.25603496553E+03  0.12500000000E+03 0.  0.
         25    1    1    2    0    0  0.40319562009E+02  0.11797284368E+03  0.32206559335E+02  0.17945896854E+03  0.12500000000E+03 0.  0.
         25    1    1    2    0    0  0.11477352968E+03 -0.50641943011E+02  0.55807771788E+03  0.58550261203E+03  0.12500000000E+03 0.  0.
</event>
<event>
 5    0  0.5778896E-005  0.3207700E+03  0.7546771E-02  0.1075295E+00
         21   -1    0    0  502  501  0.00000000000E+00  0.00000000000E+00  0.13130315597E+03  0.13130315597E+03  0.00000000000E+00 0.  1.
         21   -1    0    0  501  502 -0.00000000000E+00 -0.00000000000E+00 -0.78363228740E+03  0.78363228740E+03  0.00000000000E+00 0.  1.
         25    1    1    2    0    0  0.17092978896E+02 -0.98887167173E+02 -0.37664022847E+03  0.40933324256E+03  0.12500000000E+03 0.  0.
         25    1    1    2    0    0  0.15362073781E+03  0.65632610764E+02 -0.15341399026E+03  0.25897456069E+03  0.12500000000E+03 0.  0.
         25    1    1    2    0    0 -0.17071371670E+03  0.33254556409E+02 -0.12227491270E+03  0.24662764012E+03  0.12500000000E+03 0.  0.
</event>
<event>
 5    0  0.5778896E-005  0.2867503E+03  0.7546771E-02  0.1092058E+00
         21   -1    0    0  502  501  0.00000000000E+00  0.00000000000E+00  0.19063599790E+04  0.19063599790E+04  0.00000000000E+00 0. -1.
         21   -1    0    0  501  502 -0.00000000000E+00 -0.00000000000E+00 -0.43132313767E+02  0.43132313767E+02  0.00000000000E+00 0. -1.
         25    1    1    2    0    0  0.18852839240E+03 -0.28591922648E+01  0.66510910721E+03  0.70252847218E+03  0.12500000000E+03 0.  0.
         25    1    1    2    0    0 -0.81892893764E+02 -0.70943476178E+02  0.56340022876E+03  0.58718331092E+03  0.12500000000E+03 0.  0.
         25    1    1    2    0    0 -0.10663549863E+03  0.73802668443E+02  0.63471832925E+03  0.65978050965E+03  0.12500000000E+03 0.  0.
</event>
<event>
 5    0  0.5778896E-005  0.4336987E+03  0.7546771E-02  0.1032698E+00
         21   -1    0    0  502  501  0.00000000000E+00  0.00000000000E+00  0.70911400719E+03  0.70911400719E+03  0.00000000000E+00 0. -1.
         21   -1    0    0  501  502 -0.00000000000E+00 -0.00000000000E+00 -0.26525288272E+03  0.26525288272E+03  0.00000000000E+00 0. -1.
         25    1    1    2    0    0  0.14276472633E+03 -0.13167190798E+03 -0.61702734924E+02  0.23906376960E+03  0.12500000000E+03 0.  0.
         25    1    1    2    0    0  0.76426650679E+02  0.19581707053E+03  0.12622808905E+03  0.27521607604E+03  0.12500000000E+03 0.  0.
         25    1    1    2    0    0 -0.21919137701E+03 -0.64145162550E+02  0.37933577035E+03  0.46008704426E+03  0.12500000000E+03 0.  0.
</event>
<event>
 5    0  0.5778896E-005  0.3964241E+03  0.7546771E-02  0.1045025E+00
         21   -1    0    0  502  501  0.00000000000E+00  0.00000000000E+00  0.11346437482E+04  0.11346437482E+04  0.00000000000E+00 0. -1.
         21   -1    0    0  501  502 -0.00000000000E+00 -0.00000000000E+00 -0.13850347742E+03  0.13850347742E+03  0.00000000000E+00 0. -1.
         25    1    1    2    0    0 -0.13635546315E+03  0.25728373646E+03  0.52220821926E+03  0.61083071111E+03  0.12500000000E+03 0.  0.
         25    1    1    2    0    0  0.13535156456E+03 -0.33410270352E+02  0.29587389895E+03  0.35014662111E+03  0.12500000000E+03 0.  0.
         25    1    1    2    0    0  0.10038985846E+01 -0.22387346611E+03  0.17805815253E+03  0.31216989336E+03  0.12500000000E+03 0.  0.
</event>
<event>
 5    0  0.6270056E-005  0.3658774E+03  0.7546771E-02  0.1056281E+00
         21   -1    0    0  502  501  0.00000000000E+00  0.00000000000E+00  0.27229528348E+03  0.27229528348E+03  0.00000000000E+00 0. -1.
         21   -1    0    0  501  502 -0.00000000000E+00 -0.00000000000E+00 -0.49162163566E+03  0.49162163566E+03  0.00000000000E+00 0. -1.
         25    1    1    2    0    0  0.52671086827E+02 -0.24756995712E+02  0.10674352719E+03  0.17437411741E+03  0.12500000000E+03 0.  0.
         25    1    1    2    0    0  0.40774653403E+01  0.16335110448E+03 -0.33626022244E+03  0.39420317890E+03  0.12500000000E+03 0.  0.
         25    1    1    2    0    0 -0.56748552167E+02 -0.13859410877E+03  0.10190343079E+02  0.19533962284E+03  0.12500000000E+03 0.  0.
</event>
<event>
 5    0  0.5778896E-005  0.4512445E+03  0.7546771E-02  0.1027352E+00
         21   -1    0    0  502  501  0.00000000000E+00  0.00000000000E+00  0.28979927886E+03  0.28979927886E+03  0.00000000000E+00 0.  1.
         21   -1    0    0  501  502 -0.00000000000E+00 -0.00000000000E+00 -0.70262987232E+03  0.70262987232E+03  0.00000000000E+00 0.  1.
         25    1    1    2    0    0 -0.67333346558E+00  0.63384704853E+02 -0.30486319804E+03  0.33553635228E+03  0.12500000000E+03 0.  0.
         25    1    1    2    0    0  0.19666412025E+03  0.23907851761E+02 -0.27225092770E+03  0.35915724858E+03  0.12500000000E+03 0.  0.
         25    1    1    2    0    0 -0.19599078678E+03 -0.87292556614E+02  0.16428353228E+03  0.29773555031E+03  0.12500000000E+03 0.  0.
</event>
<event>
 5    0  0.5778896E-005  0.2566844E+03  0.7546771E-02  0.1109152E+00
         21   -1    0    0  502  501  0.00000000000E+00  0.00000000000E+00  0.47328030795E+03  0.47328030795E+03  0.00000000000E+00 0. -1.
         21   -1    0    0  501  502 -0.00000000000E+00 -0.00000000000E+00 -0.13921326247E+03  0.13921326247E+03  0.00000000000E+00 0. -1.
         25    1    1    2    0    0 -0.37552605112E+02  0.42588682228E+02 -0.16153205494E+01  0.13730114080E+03  0.12500000000E+03 0.  0.
         25    1    1    2    0    0  0.12486541659E+03 -0.69307204152E+01  0.20910953110E+03  0.27384521749E+03  0.12500000000E+03 0.  0.
         25    1    1    2    0    0 -0.87312811475E+02 -0.35657961813E+02  0.12657283494E+03  0.20134721213E+03  0.12500000000E+03 0.  0.
</event>
<event>
 5    0  0.5778896E-005  0.3642249E+03  0.7546771E-02  0.1056923E+00
         21   -1    0    0  502  501  0.00000000000E+00  0.00000000000E+00  0.34235930852E+03  0.34235930852E+03  0.00000000000E+00 0. -1.
         21   -1    0    0  501  502 -0.00000000000E+00 -0.00000000000E+00 -0.38748691364E+03  0.38748691364E+03  0.00000000000E+00 0. -1.
         25    1    1    2    0    0 -0.12248161265E+03  0.12950639023E+03  0.15116844971E+03  0.26504820455E+03  0.12500000000E+03 0.  0.
         25    1    1    2    0    0  0.16271365977E+03 -0.18312857158E+03 -0.16080882460E+03  0.31858481896E+03  0.12500000000E+03 0.  0.
         25    1    1    2    0    0 -0.40232047115E+02  0.53622181347E+02 -0.35487230227E+02  0.14621319864E+03  0.12500000000E+03 0.  0.
</event>
<event>
 5    0  0.5778896E-005  0.3345852E+03  0.7546771E-02  0.1069126E+00
         21   -1    0    0  502  501  0.00000000000E+00  0.00000000000E+00  0.35312630104E+03  0.35312630104E+03  0.00000000000E+00 0.  1.
         21   -1    0    0  501  502 -0.00000000000E+00 -0.00000000000E+00 -0.31701766035E+03  0.31701766035E+03  0.00000000000E+00 0.  1.
         25    1    1    2    0    0 -0.11851681454E+03  0.92997844577E+02  0.71292472788E+02  0.20833254931E+03  0.12500000000E+03 0.  0.
         25    1    1    2    0    0  0.22804355389E+03 -0.29081253739E+02  0.46720518590E+02  0.26581457568E+03  0.12500000000E+03 0.  0.
         25    1    1    2    0    0 -0.10952673934E+03 -0.63916590837E+02 -0.81904350684E+02  0.19599683639E+03  0.12500000000E+03 0.  0.
</event>
<event>
 5    0  0.5778896E-005  0.3651173E+03  0.7546771E-02  0.1056576E+00
         21   -1    0    0  502  501  0.00000000000E+00  0.00000000000E+00  0.58695078334E+02  0.58695078334E+02  0.00000000000E+00 0. -1.
         21   -1    0    0  501  502 -0.00000000000E+00 -0.00000000000E+00 -0.22712409845E+04  0.22712409845E+04  0.00000000000E+00 0. -1.
         25    1    1    2    0    0  0.13412510155E+03 -0.77280868511E+02 -0.67453951153E+03  0.70327123368E+03  0.12500000000E+03 0.  0.
         25    1    1    2    0    0 -0.15893523893E+03 -0.15386348826E+03 -0.92468703350E+03  0.95896063168E+03  0.12500000000E+03 0.  0.
         25    1    1    2    0    0  0.24810137380E+02  0.23114435677E+03 -0.61331936116E+03  0.66770419750E+03  0.12500000000E+03 0.  0.
</event>
<event>
 5    0  0.5778896E-005  0.3866175E+03  0.7546771E-02  0.1048515E+00
         21   -1    0    0  502  501  0.00000000000E+00  0.00000000000E+00  0.59231281701E+03  0.59231281701E+03  0.00000000000E+00 0. -1.
         21   -1    0    0  501  502 -0.00000000000E+00 -0.00000000000E+00 -0.25235497147E+03  0.25235497147E+03  0.00000000000E+00 0. -1.
         25    1    1    2    0    0 -0.45355430094E+02 -0.20918592329E+03 -0.34525957121E+02  0.25026567335E+03  0.12500000000E+03 0.  0.
         25    1    1    2    0    0 -0.89342359753E+02  0.74383445180E+02  0.18485227939E+02  0.17170223591E+03  0.12500000000E+03 0.  0.
         25    1    1    2    0    0  0.13469778985E+03  0.13480247811E+03  0.35599857472E+03  0.42269987923E+03  0.12500000000E+03 0.  0.
</event>
<event>
 5    0  0.7137312E-005  0.2996141E+03  0.7546771E-02  0.1085434E+00
         21   -1    0    0  502  501  0.00000000000E+00  0.00000000000E+00  0.68050159157E+03  0.68050159157E+03  0.00000000000E+00 0.  1.
         21   -1    0    0  501  502 -0.00000000000E+00 -0.00000000000E+00 -0.13191537966E+03  0.13191537966E+03  0.00000000000E+00 0.  1.
         25    1    1    2    0    0  0.14348054510E+03  0.16727074630E+02  0.19231080067E+03  0.27106254979E+03  0.12500000000E+03 0.  0.
         25    1    1    2    0    0 -0.72112835512E+02 -0.49526866543E+02 -0.33482036891E+01  0.15260859092E+03  0.12500000000E+03 0.  0.
         25    1    1    2    0    0 -0.71367709585E+02  0.32799791913E+02  0.35962361493E+03  0.38874583051E+03  0.12500000000E+03 0.  0.
</event>
<event>
 5    0  0.5778896E-005  0.3029532E+03  0.7546771E-02  0.1083774E+00
         21   -1    0    0  502  501  0.00000000000E+00  0.00000000000E+00  0.46792866639E+02  0.46792866639E+02  0.00000000000E+00 0. -1.
         21   -1    0    0  501  502 -0.00000000000E+00 -0.00000000000E+00 -0.19614238906E+04  0.19614238906E+04  0.00000000000E+00 0. -1.
         25    1    1    2    0    0  0.61369556004E+02 -0.18040114607E+03 -0.82789249856E+03  0.85868608064E+03  0.12500000000E+03 0.  0.
         25    1    1    2    0    0 -0.36397751656E+02  0.62073460899E+02 -0.20410135638E+03  0.24992053647E+03  0.12500000000E+03 0.  0.
         25    1    1    2    0    0 -0.24971804349E+02  0.11832768517E+03 -0.88263716900E+03  0.89961014011E+03  0.12500000000E+03 0.  0.
</event>
<event>
 5    0  0.5778896E-005  0.4336834E+03  0.7546771E-02  0.1032703E+00
         21   -1    0    0  502  501  0.00000000000E+00  0.00000000000E+00  0.28495456699E+03  0.28495456699E+03  0.00000000000E+00 0.  1.
         21   -1    0    0  501  502 -0.00000000000E+00 -0.00000000000E+00 -0.66003949057E+03  0.66003949057E+03  0.00000000000E+00 0.  1.
         25    1    1    2    0    0 -0.65271006298E+02 -0.17315805838E+02 -0.44793168780E+02  0.14896835021E+03  0.12500000000E+03 0.  0.
         25    1    1    2    0    0 -0.17819869767E+03  0.27193853013E+03 -0.18984424282E+03  0.39670036117E+03  0.12500000000E+03 0.  0.
         25    1    1    2    0    0  0.24346970397E+03 -0.25462272429E+03 -0.14044751198E+03  0.39932534618E+03  0.12500000000E+03 0.  0.
</event>
<event>
 5    0  0.5778896E-005  0.2907340E+03  0.7546771E-02  0.1089967E+00
         21   -1    0    0  502  501  0.00000000000E+00  0.00000000000E+00  0.36456420737E+02  0.36456420737E+02  0.00000000000E+00 0.  1.
         21   -1    0    0  501  502 -0.00000000000E+00 -0.00000000000E+00 -0.23185565210E+04  0.23185565210E+04  0.00000000000E+00 0.  1.
         25    1    1    2    0    0  0.12441408961E+03 -0.12158324096E+03 -0.11312626187E+04  0.11513650432E+04  0.12500000000E+03 0.  0.
         25    1    1    2    0    0 -0.14294399124E+03  0.34468452364E+02 -0.74992002579E+03  0.77435528275E+03  0.12500000000E+03 0.  0.
         25    1    1    2    0    0  0.18529901633E+02  0.87114788600E+02 -0.40091745573E+03  0.42929261577E+03  0.12500000000E+03 0.  0.
</event>
<event>
 5    0  0.5778896E-005  0.2154751E+03  0.7546771E-02  0.1137302E+00
         21   -1    0    0  502  501  0.00000000000E+00  0.00000000000E+00  0.32770300611E+03  0.32770300611E+03  0.00000000000E+00 0.  1.
         21   -1    0    0  501  502 -0.00000000000E+00 -0.00000000000E+00 -0.14168171452E+03  0.14168171452E+03  0.00000000000E+00 0.  1.
         25    1    1    2    0    0 -0.66408612707E+02  0.29761391693E+02  0.37553212534E+02  0.14943589946E+03  0.12500000000E+03 0.  0.
         25    1    1    2    0    0  0.54275905540E+02  0.52884249783E+01  0.12972523014E+03  0.18822188156E+03  0.12500000000E+03 0.  0.
         25    1    1    2    0    0  0.12132707166E+02 -0.35049816672E+02  0.18742848916E+02  0.13172693960E+03  0.12500000000E+03 0.  0.
</event>
<event>
 5    0  0.5778896E-005  0.3944927E+03  0.7546771E-02  0.1045704E+00
         21   -1    0    0  502  501  0.00000000000E+00  0.00000000000E+00  0.66191984344E+03  0.66191984344E+03  0.00000000000E+00 0. -1.
         21   -1    0    0  501  502 -0.00000000000E+00 -0.00000000000E+00 -0.23511081344E+03  0.23511081344E+03  0.00000000000E+00 0. -1.
         25    1    1    2    0    0  0.32536704159E+02  0.59441894861E+02 -0.70121987687E+02  0.15853727997E+03  0.12500000000E+03 0.  0.
         25    1    1    2    0    0  0.17032001569E+03 -0.14749302000E+03  0.37934132202E+03  0.45857162722E+03  0.12500000000E+03 0.  0.
         25    1    1    2    0    0 -0.20285671985E+03  0.88051125134E+02  0.11758969566E+03  0.27992174969E+03  0.12500000000E+03 0.  0.
</event>
<event>
 5    0  0.5778896E-005  0.3146654E+03  0.7546771E-02  0.1078131E+00
         21   -1    0    0  502  501  0.00000000000E+00  0.00000000000E+00  0.41778139536E+03  0.41778139536E+03  0.00000000000E+00 0.  1.
         21   -1    0    0  501  502 -0.00000000000E+00 -0.00000000000E+00 -0.23700021992E+03  0.23700021992E+03  0.00000000000E+00 0.  1.
         25    1    1    2    0    0  0.83480614372E+02 -0.68161636099E+02  0.24427377990E+03  0.29480451347E+03  0.12500000000E+03 0.  0.
         25    1    1    2    0    0  0.22992082830E+02  0.12504072359E+03 -0.52476478265E+02  0.18585639403E+03  0.12500000000E+03 0.  0.
         25    1    1    2    0    0 -0.10647269720E+03 -0.56879087494E+02 -0.11016126206E+02  0.17412070779E+03  0.12500000000E+03 0.  0.
</event>
<event>
 5    0  0.5778896E-005  0.4057503E+03  0.7546771E-02  0.1041807E+00
         21   -1    0    0  502  501  0.00000000000E+00  0.00000000000E+00  0.10217895831E+04  0.10217895831E+04  0.00000000000E+00 0. -1.
         21   -1    0    0  501  502 -0.00000000000E+00 -0.00000000000E+00 -0.16112252570E+03  0.16112252570E+03  0.00000000000E+00 0. -1.
         25    1    1    2    0    0 -0.74066597538E+02 -0.12052038161E+03  0.57898513165E+03  0.60898259903E+03  0.12500000000E+03 0.  0.
         25    1    1    2    0    0  0.60063275412E+02 -0.12905562503E+03  0.21509790878E+03  0.28662704298E+03  0.12500000000E+03 0.  0.
         25    1    1    2    0    0  0.14003322127E+02  0.24957600664E+03  0.66584017013E+02  0.28730246682E+03  0.12500000000E+03 0.  0.
</event>
<event>
 5    0  0.5778896E-005  0.2819911E+03  0.7546771E-02  0.1094606E+00
         21   -1    0    0  502  501  0.00000000000E+00  0.00000000000E+00  0.37738369770E+03  0.37738369770E+03  0.00000000000E+00 0.  1.
         21   -1    0    0  501  502 -0.00000000000E+00 -0.00000000000E+00 -0.21071124474E+03  0.21071124474E+03  0.00000000000E+00 0.  1.
         25    1    1    2    0    0 -0.10094631138E+03  0.25959604823E+02  0.20000852197E+03  0.25786133429E+03  0.12500000000E+03 0.  0.
         25    1    1    2    0    0  0.78215384333E+02  0.21725633115E+02 -0.99553327432E+02  0.17923591851E+03  0.12500000000E+03 0.  0.
         25    1    1    2    0    0  0.22730927047E+02 -0.47685237938E+02  0.66217258432E+02  0.15099768964E+03  0.12500000000E+03 0.  0.
</event>
<event>
 5    0  0.5778896E-005  0.2230308E+03  0.7546771E-02  0.1131643E+00
         21   -1    0    0  502  501  0.00000000000E+00  0.00000000000E+00  0.22096132021E+02  0.22096132021E+02  0.00000000000E+00 0. -1.
         21   -1    0    0  501  502 -0.00000000000E+00 -0.00000000000E+00 -0.22511957875E+04  0.22511957875E+04  0.00000000000E+00 0. -1.
         25    1    1    2    0    0 -0.24412202044E+02  0.90238209762E+02 -0.68155491193E+03  0.69920024892E+03  0.12500000000E+03 0.  0.
         25    1    1    2    0    0  0.46712262259E+02 -0.21988289559E+02 -0.56104806777E+03  0.57711823284E+03  0.12500000000E+03 0.  0.
         25    1    1    2    0    0 -0.22300060215E+02 -0.68249920203E+02 -0.98649667574E+03  0.99697343773E+03  0.12500000000E+03 0.  0.
</event>
<event>
 5    0  0.5778896E-005  0.3593810E+03  0.7546771E-02  0.1058829E+00
         21   -1    0    0  502  501  0.00000000000E+00  0.00000000000E+00  0.17000231341E+04  0.17000231341E+04  0.00000000000E+00 0. -1.
         21   -1    0    0  501  502 -0.00000000000E+00 -0.00000000000E+00 -0.75972331259E+02  0.75972331259E+02  0.00000000000E+00 0. -1.
         25    1    1    2    0    0  0.59605156014E+02  0.58939780906E+02  0.10069005255E+03  0.18108053203E+03  0.12500000000E+03 0.  0.
         25    1    1    2    0    0  0.14766161919E+03 -0.36876968459E+02  0.98117055064E+03  0.10007419817E+04  0.12500000000E+03 0.  0.
         25    1    1    2    0    0 -0.20726677521E+03 -0.22062812447E+02  0.54219019963E+03  0.59417295157E+03  0.12500000000E+03 0.  0.
</event>
<event>
 5    0  0.5778896E-005  0.5068850E+03  0.7546771E-02  0.1011997E+00
         21   -1    0    0  502  501  0.00000000000E+00  0.00000000000E+00  0.14255954676E+04  0.14255954676E+04  0.00000000000E+00 0.  1.
         21   -1    0    0  501  502 -0.00000000000E+00 -0.00000000000E+00 -0.18022812608E+03  0.18022812608E+03  0.00000000000E+00 0.  1.
         25    1    1    2    0    0  0.29216641879E+02 -0.18362077570E+03  0.25191203366E+03  0.33712738562E+03  0.12500000000E+03 0.  0.
         25    1    1    2    0    0  0.32135667106E+03 -0.34391547402E+02  0.33816912456E+03  0.48418616809E+03  0.12500000000E+03 0.  0.
         25    1    1    2    0    0 -0.35057331294E+03  0.21801232311E+03  0.65528618326E+03  0.78451003992E+03  0.12500000000E+03 0.  0.
</event>
<event>
 5    0  0.5778896E-005  0.2504042E+03  0.7546771E-02  0.1113050E+00
         21   -1    0    0  502  501  0.00000000000E+00  0.00000000000E+00  0.49830632635E+03  0.49830632635E+03  0.00000000000E+00 0. -1.
         21   -1    0    0  501  502 -0.00000000000E+00 -0.00000000000E+00 -0.12583075521E+03  0.12583075521E+03  0.00000000000E+00 0. -1.
         25    1    1    2    0    0 -0.10305580690E+02 -0.12693056645E+02  0.77865762503E+02  0.14817353222E+03  0.12500000000E+03 0.  0.
         25    1    1    2    0    0  0.10642882729E+03 -0.42568494712E+02  0.44786654994E+02  0.17541384349E+03  0.12500000000E+03 0.  0.
         25    1    1    2    0    0 -0.96123246604E+02  0.55261551358E+02  0.24982315364E+03  0.30054970585E+03  0.12500000000E+03 0.  0.
</event>
<event>
 5    0  0.5778896E-005  0.2878380E+03  0.7546771E-02  0.1091483E+00
         21   -1    0    0  502  501  0.00000000000E+00  0.00000000000E+00  0.19920123941E+03  0.19920123941E+03  0.00000000000E+00 0. -1.
         21   -1    0    0  501  502 -0.00000000000E+00 -0.00000000000E+00 -0.41591478969E+03  0.41591478969E+03  0.00000000000E+00 0. -1.
         25    1    1    2    0    0 -0.29471859231E+02 -0.25898683123E+02  0.69858665316E+01  0.13119883614E+03  0.12500000000E+03 0.  0.
         25    1    1    2    0    0  0.14274469244E+03 -0.63280524698E+02 -0.14155313686E+02  0.20051395196E+03  0.12500000000E+03 0.  0.
         25    1    1    2    0    0 -0.11327283321E+03  0.89179207821E+02 -0.20954410312E+03  0.28340324099E+03  0.12500000000E+03 0.  0.
</event>
<event>
 5    0  0.5778896E-005  0.2893033E+03  0.7546771E-02  0.1090713E+00
         21   -1    0    0  502  501  0.00000000000E+00  0.00000000000E+00  0.29255837318E+03  0.29255837318E+03  0.00000000000E+00 0.  1.
         21   -1    0    0  501  502 -0.00000000000E+00 -0.00000000000E+00 -0.28608435682E+03  0.28608435682E+03  0.00000000000E+00 0.  1.
         25    1    1    2    0    0 -0.70158691895E+02 -0.36539609873E+02  0.10899100829E+03  0.18374282306E+03  0.12500000000E+03 0.  0.
         25    1    1    2    0    0 -0.48108525229E+02  0.12457660761E+03 -0.82208546565E+02  0.20054178241E+03  0.12500000000E+03 0.  0.
         25    1    1    2    0    0  0.11826721712E+03 -0.88036997733E+02 -0.20308445366E+02  0.19435812453E+03  0.12500000000E+03 0.  0.
</event>
<event>
 5    0  0.5778896E-005  0.2468811E+03  0.7546771E-02  0.1115292E+00
         21   -1    0    0  502  501  0.00000000000E+00  0.00000000000E+00  0.10775946608E+03  0.10775946608E+03  0.00000000000E+00 0.  1.
         21   -1    0    0  501  502 -0.00000000000E+00 -0.00000000000E+00 -0.56561411558E+03  0.56561411558E+03  0.00000000000E+00 0.  1.
         25    1    1    2    0    0 -0.24517551760E+02 -0.57411216126E+02 -0.31053121691E+02  0.14313089970E+03  0.12500000000E+03 0.  0.
         25    1    1    2    0    0  0.97839892052E+02  0.42170614367E+02 -0.18030942660E+03  0.24390058326E+03  0.12500000000E+03 0.  0.
         25    1    1    2    0    0 -0.73322340292E+02  0.15240601759E+02 -0.24649210121E+03  0.28634209870E+03  0.12500000000E+03 0.  0.
</event>
<event>
 5    0  0.5778896E-005  0.2969638E+03  0.7546771E-02  0.1086768E+00
         21   -1    0    0  502  501  0.00000000000E+00  0.00000000000E+00  0.53505926105E+03  0.53505926105E+03  0.00000000000E+00 0.  1.
         21   -1    0    0  501  502 -0.00000000000E+00 -0.00000000000E+00 -0.16481820491E+03  0.16481820491E+03  0.00000000000E+00 0.  1.
         25    1    1    2    0    0 -0.47533746360E+02 -0.94330474698E+02  0.35557809904E+02  0.16747254505E+03  0.12500000000E+03 0.  0.
         25    1    1    2    0    0  0.12982324834E+03 -0.67957372056E+02  0.17132710390E+03  0.25777947311E+03  0.12500000000E+03 0.  0.
         25    1    1    2    0    0 -0.82289501980E+02  0.16228784675E+03  0.16335614233E+03  0.27462544780E+03  0.12500000000E+03 0.  0.
</event>
<event>
 5    0  0.5778896E-005  0.2449037E+03  0.7546771E-02  0.1116569E+00
         21   -1    0    0  502  501  0.00000000000E+00  0.00000000000E+00  0.12616427515E+03  0.12616427515E+03  0.00000000000E+00 0.  1.
         21   -1    0    0  501  502 -0.00000000000E+00 -0.00000000000E+00 -0.47539481626E+03  0.47539481626E+03  0.00000000000E+00 0.  1.
         25    1    1    2    0    0  0.10654515313E+02  0.51229298238E+02 -0.98292653390E+02  0.16740491452E+03  0.12500000000E+03 0.  0.
         25    1    1    2    0    0 -0.17304080540E+02  0.71273427289E+02 -0.20853024973E+03  0.25394723407E+03  0.12500000000E+03 0.  0.
         25    1    1    2    0    0  0.66495652271E+01 -0.12250272553E+03 -0.42407637999E+02  0.18020694282E+03  0.12500000000E+03 0.  0.
</event>
<event>
 5    0  0.6314143E-005  0.4195792E+03  0.7546771E-02  0.1037203E+00
         21   -1    0    0  502  501  0.00000000000E+00  0.00000000000E+00  0.26341748718E+03  0.26341748718E+03  0.00000000000E+00 0.  1.
         21   -1    0    0  501  502 -0.00000000000E+00 -0.00000000000E+00 -0.66831814187E+03  0.66831814187E+03  0.00000000000E+00 0.  1.
         25    1    1    2    0    0  0.25790826103E+03  0.50004324448E+02 -0.36225587737E+03  0.46461965548E+03  0.12500000000E+03 0.  0.
         25    1    1    2    0    0 -0.97776942394E+02 -0.16710054093E+03 -0.13657667855E+02  0.23085591423E+03  0.12500000000E+03 0.  0.
         25    1    1    2    0    0 -0.16013131864E+03  0.11709621648E+03 -0.28987109475E+02  0.23626005934E+03  0.12500000000E+03 0.  0.
</event>
<event>
 5    0  0.5778896E-005  0.3366036E+03  0.7546771E-02  0.1068252E+00
         21   -1    0    0  502  501  0.00000000000E+00  0.00000000000E+00  0.49722483819E+03  0.49722483819E+03  0.00000000000E+00 0. -1.
         21   -1    0    0  501  502 -0.00000000000E+00 -0.00000000000E+00 -0.22786866311E+03  0.22786866311E+03  0.00000000000E+00 0. -1.
         25    1    1    2    0    0  0.13269584227E+03  0.10155202209E+02  0.17150562636E+02  0.18338608585E+03  0.12500000000E+03 0.  0.
         25    1    1    2    0    0 -0.19707555571E+03  0.87038062871E+02  0.15260248667E+02  0.24954413284E+03  0.12500000000E+03 0.  0.
         25    1    1    2    0    0  0.64379713446E+02 -0.97193265080E+02  0.23694536378E+03  0.29216328260E+03  0.12500000000E+03 0.  0.
</event>
<event>
 5    0  0.5778896E-005  0.3872583E+03  0.7546771E-02  0.1048283E+00
         21   -1    0    0  502  501  0.00000000000E+00  0.00000000000E+00  0.13399935696E+04  0.13399935696E+04  0.00000000000E+00 0. -1.
         21   -1    0    0  501  502 -0.00000000000E+00 -0.00000000000E+00 -0.11191766840E+03  0.11191766840E+03  0.00000000000E+00 0. -1.
         25    1    1    2    0    0 -0.11794930432E+03  0.58483290922E+02  0.47992045435E+02  0.18777798096E+03  0.12500000000E+03 0.  0.
         25    1    1    2    0    0  0.18064294824E+03  0.29886768448E+02  0.32641520355E+03  0.39458456481E+03  0.12500000000E+03 0.  0.
         25    1    1    2    0    0 -0.62693643913E+02 -0.88370059369E+02  0.85366865225E+03  0.86954869226E+03  0.12500000000E+03 0.  0.
</event>
<event>
 5    0  0.5778896E-005  0.3237352E+03  0.7546771E-02  0.1073943E+00
         21   -1    0    0  502  501  0.00000000000E+00  0.00000000000E+00  0.37826697204E+03  0.37826697204E+03  0.00000000000E+00 0. -1.
         21   -1    0    0  501  502 -0.00000000000E+00 -0.00000000000E+00 -0.27706491036E+03  0.27706491036E+03  0.00000000000E+00 0. -1.
         25    1    1    2    0    0 -0.56488974231E+02 -0.15059365696E+02  0.48258453077E+02  0.14619051610E+03  0.12500000000E+03 0.  0.
         25    1    1    2    0    0 -0.18502074708E+03 -0.12179704377E+02  0.72661446460E+02  0.23512913016E+03  0.12500000000E+03 0.  0.
         25    1    1    2    0    0  0.24150972131E+03  0.27239070073E+02 -0.19717837855E+02  0.27401223614E+03  0.12500000000E+03 0.  0.
</event>
<event>
 5    0  0.5778896E-005  0.2310100E+03  0.7546771E-02  0.1125931E+00
         21   -1    0    0  502  501  0.00000000000E+00  0.00000000000E+00  0.75029020336E+03  0.75029020336E+03  0.00000000000E+00 0. -1.
         21   -1    0    0  501  502 -0.00000000000E+00 -0.00000000000E+00 -0.71126628336E+02  0.71126628336E+02  0.00000000000E+00 0. -1.
         25    1    1    2    0    0 -0.48643503039E+02 -0.35832983485E+00  0.16108715280E+03  0.20961963072E+03  0.12500000000E+03 0.  0.
         25    1    1    2    0    0  0.11587324991E+03  0.43199983248E+02  0.25348221892E+03  0.30849811005E+03  0.12500000000E+03 0.  0.
         25    1    1    2    0    0 -0.67229746867E+02 -0.42841653413E+02  0.26459420331E+03  0.30329909092E+03  0.12500000000E+03 0.  0.
</event>
<event>
 5    0  0.5778896E-005  0.5485936E+03  0.7546771E-02  0.1001820E+00
         21   -1    0    0  502  501  0.00000000000E+00  0.00000000000E+00  0.50066230505E+03  0.50066230505E+03  0.00000000000E+00 0.  1.
         21   -1    0    0  501  502 -0.00000000000E+00 -0.00000000000E+00 -0.60111371881E+03  0.60111371881E+03  0.00000000000E+00 0.  1.
         25    1    1    2    0    0  0.63028828760E+02  0.45738407579E+03  0.29687796219E+02  0.47924856942E+03  0.12500000000E+03 0.  0.
         25    1    1    2    0    0 -0.14345044706E+03 -0.37113782383E+03 -0.16259737794E+03  0.44764296303E+03  0.12500000000E+03 0.  0.
         25    1    1    2    0    0  0.80421618301E+02 -0.86246251961E+02  0.32458167956E+02  0.17488449141E+03  0.12500000000E+03 0.  0.
</event>
<event>
 5    0  0.5778896E-005  0.3532401E+03  0.7546771E-02  0.1061293E+00
         21   -1    0    0  502  501  0.00000000000E+00  0.00000000000E+00  0.17289239623E+03  0.17289239623E+03  0.00000000000E+00 0. -1.
         21   -1    0    0  501  502 -0.00000000000E+00 -0.00000000000E+00 -0.72171238377E+03  0.72171238377E+03  0.00000000000E+00 0. -1.
         25    1    1    2    0    0 -0.13394572239E+03  0.24605052847E+03 -0.33593858563E+03  0.45493082158E+03  0.12500000000E+03 0.  0.
         25    1    1    2    0    0  0.62491212795E+02 -0.71097568461E+02 -0.10511227290E+03  0.18876865691E+03  0.12500000000E+03 0.  0.
         25    1    1    2    0    0  0.71454509595E+02 -0.17495296001E+03 -0.10776912902E+03  0.25090530151E+03  0.12500000000E+03 0.  0.
</event>
<event>
 5    0  0.5778896E-005  0.3697571E+03  0.7546771E-02  0.1054786E+00
         21   -1    0    0  502  501  0.00000000000E+00  0.00000000000E+00  0.40250460790E+03  0.40250460790E+03  0.00000000000E+00 0. -1.
         21   -1    0    0  501  502 -0.00000000000E+00 -0.00000000000E+00 -0.33967399401E+03  0.33967399401E+03  0.00000000000E+00 0. -1.
         25    1    1    2    0    0 -0.24219598109E+01  0.10644794584E+03 -0.41156011697E+02  0.16928038387E+03  0.12500000000E+03 0.  0.
         25    1    1    2    0    0  0.69267241790E+02 -0.26912297843E+03  0.16783870104E+03  0.34787922886E+03  0.12500000000E+03 0.  0.
         25    1    1    2    0    0 -0.66845281979E+02  0.16267503259E+03 -0.63852075453E+02  0.22501898918E+03  0.12500000000E+03 0.  0.
</event>
<event>
 5    0  0.5778896E-005  0.2738178E+03  0.7546771E-02  0.1099114E+00
         21   -1    0    0  502  501  0.00000000000E+00  0.00000000000E+00  0.93723208400E+02  0.93723208400E+02  0.00000000000E+00 0. -1.
         21   -1    0    0  501  502 -0.00000000000E+00 -0.00000000000E+00 -0.79997451574E+03  0.79997451574E+03  0.00000000000E+00 0. -1.
         25    1    1    2    0    0  0.10750206708E+03  0.32019318511E+02 -0.28165777782E+03  0.32792992390E+03  0.12500000000E+03 0.  0.
         25    1    1    2    0    0  0.78473743681E+02 -0.23504924346E+02 -0.16027866424E+03  0.21914575088E+03  0.12500000000E+03 0.  0.
         25    1    1    2    0    0 -0.18597581076E+03 -0.85143941646E+01 -0.26431486528E+03  0.34662204936E+03  0.12500000000E+03 0.  0.
</event>
<event>
 5    0  0.5778896E-005  0.3730385E+03  0.7546771E-02  0.1053537E+00
         21   -1    0    0  502  501  0.00000000000E+00  0.00000000000E+00  0.15363553829E+04  0.15363553829E+04  0.00000000000E+00 0. -1.
         21   -1    0    0  501  502 -0.00000000000E+00 -0.00000000000E+00 -0.90576519326E+02  0.90576519326E+02  0.00000000000E+00 0. -1.
         25    1    1    2    0    0  0.39844831285E+02  0.19343727504E+03  0.11398648817E+04  0.11635817713E+04  0.12500000000E+03 0.  0.
         25    1    1    2    0    0  0.17609023815E+02 -0.21987376048E+02  0.11658034906E+03  0.17323250333E+03  0.12500000000E+03 0.  0.
         25    1    1    2    0    0 -0.57453855099E+02 -0.17144989900E+03  0.18933363284E+03  0.29011762762E+03  0.12500000000E+03 0.  0.
</event>
<event>
 5    0  0.5923229E-005  0.4593522E+03  0.7546771E-02  0.1024969E+00
         21   -1    0    0  502  501  0.00000000000E+00  0.00000000000E+00  0.47926526035E+03  0.47926526035E+03  0.00000000000E+00 0.  1.
         21   -1    0    0  501  502 -0.00000000000E+00 -0.00000000000E+00 -0.44026644541E+03  0.44026644541E+03  0.00000000000E+00 0.  1.
         25    1    1    2    0    0 -0.26334804525E+03 -0.22272272686E+03 -0.58697556556E+02  0.37152120955E+03  0.12500000000E+03 0.  0.
         25    1    1    2    0    0  0.28390002320E+02  0.94793928469E+02  0.18099452305E+03  0.24119680446E+03  0.12500000000E+03 0.  0.
         25    1    1    2    0    0  0.23495804293E+03  0.12792879839E+03 -0.83298151550E+02  0.30681369175E+03  0.12500000000E+03 0.  0.
</event>
<event>
 5    0  0.5778896E-005  0.3037294E+03  0.7546771E-02  0.1083391E+00
         21   -1    0    0  502  501  0.00000000000E+00  0.00000000000E+00  0.49324926264E+03  0.49324926264E+03  0.00000000000E+00 0.  1.
         21   -1    0    0  501  502 -0.00000000000E+00 -0.00000000000E+00 -0.18702819363E+03  0.18702819363E+03  0.00000000000E+00 0.  1.
         25    1    1    2    0    0 -0.61180682278E+01  0.36678297232E+02 -0.62322888934E+02  0.14454020455E+03  0.12500000000E+03 0.  0.
         25    1    1    2    0    0 -0.12349925834E+03 -0.66260454334E+02  0.26841075293E+03  0.32758486978E+03  0.12500000000E+03 0.  0.
         25    1    1    2    0    0  0.12961732656E+03  0.29582157102E+02  0.10013320501E+03  0.20815238195E+03  0.12500000000E+03 0.  0.
</event>
<event>
 5    0  0.5778896E-005  0.2461751E+03  0.7546771E-02  0.1115746E+00
         21   -1    0    0  502  501  0.00000000000E+00  0.00000000000E+00  0.37128243351E+03  0.37128243351E+03  0.00000000000E+00 0. -1.
         21   -1    0    0  501  502 -0.00000000000E+00 -0.00000000000E+00 -0.16322387325E+03  0.16322387325E+03  0.00000000000E+00 0. -1.
         25    1    1    2    0    0  0.35579847634E+02 -0.10495704171E+03  0.16512453019E+03  0.23488937106E+03  0.12500000000E+03 0.  0.
         25    1    1    2    0    0 -0.57890727125E+02  0.84577617504E+02 -0.66622783014E+01  0.16178410188E+03  0.12500000000E+03 0.  0.
         25    1    1    2    0    0  0.22310879491E+02  0.20379424210E+02  0.49596308374E+02  0.13783283382E+03  0.12500000000E+03 0.  0.
</event>
<event>
 5    0  0.5778896E-005  0.2451812E+03  0.7546771E-02  0.1116389E+00
         21   -1    0    0  502  501  0.00000000000E+00  0.00000000000E+00  0.35174674987E+03  0.35174674987E+03  0.00000000000E+00 0. -1.
         21   -1    0    0  501  502 -0.00000000000E+00 -0.00000000000E+00 -0.17090082174E+03  0.17090082174E+03  0.00000000000E+00 0. -1.
         25    1    1    2    0    0 -0.38099496569E+02  0.35022701552E+02  0.19176422354E+02  0.13664148871E+03  0.12500000000E+03 0.  0.
         25    1    1    2    0    0  0.11173718919E+03 -0.87788658300E+02  0.12660995475E+03  0.22769964562E+03  0.12500000000E+03 0.  0.
         25    1    1    2    0    0 -0.73637692618E+02  0.52765956748E+02  0.35059551026E+02  0.15830643728E+03  0.12500000000E+03 0.  0.
</event>
<event>
 5    0  0.6398012E-005  0.4931376E+03  0.7546771E-02  0.1015586E+00
         21   -1    0    0  502  501  0.00000000000E+00  0.00000000000E+00  0.95660176988E+03  0.95660176988E+03  0.00000000000E+00 0. -1.
         21   -1    0    0  501  502 -0.00000000000E+00 -0.00000000000E+00 -0.25421730363E+03  0.25421730363E+03  0.00000000000E+00 0. -1.
         25    1    1    2    0    0  0.52855747125E+02  0.16653349592E+03 -0.12105232915E+03  0.24658832426E+03  0.12500000000E+03 0.  0.
         25    1    1    2    0    0  0.15911250944E+03  0.38448155136E+01  0.33453233496E+03  0.39098395926E+03  0.12500000000E+03 0.  0.
         25    1    1    2    0    0 -0.21196825657E+03 -0.17037831143E+03  0.48890446044E+03  0.57324679000E+03  0.12500000000E+03 0.  0.
</event>
<event>
 5    0  0.5778896E-005  0.2534292E+03  0.7546771E-02  0.1111157E+00
         21   -1    0    0  502  501  0.00000000000E+00  0.00000000000E+00  0.20728199064E+04  0.20728199064E+04  0.00000000000E+00 0. -1.
         21   -1    0    0  501  502 -0.00000000000E+00 -0.00000000000E+00 -0.30985008806E+02  0.30985008806E+02  0.00000000000E+00 0. -1.
         25    1    1    2    0    0 -0.10825889591E+02  0.11390310682E+03  0.50395952003E+03  0.53168723462E+03  0.12500000000E+03 0.  0.
         25    1    1    2    0    0 -0.29075526864E+02 -0.11190498339E+03  0.55534668414E+03  0.58086405566E+03  0.12500000000E+03 0.  0.
         25    1    1    2    0    0  0.39901416454E+02 -0.19981234338E+01  0.98252869338E+03  0.99125362488E+03  0.12500000000E+03 0.  0.
</event>
<event>
 5    0  0.5778896E-005  0.2885953E+03  0.7546771E-02  0.1091085E+00
         21   -1    0    0  502  501  0.00000000000E+00  0.00000000000E+00  0.33298264247E+03  0.33298264247E+03  0.00000000000E+00 0. -1.
         21   -1    0    0  501  502 -0.00000000000E+00 -0.00000000000E+00 -0.25012497533E+03  0.25012497533E+03  0.00000000000E+00 0. -1.
         25    1    1    2    0    0  0.15625835121E+02 -0.61428884872E+02  0.16793896577E+03  0.21873767587E+03  0.12500000000E+03 0.  0.
         25    1    1    2    0    0 -0.21461568257E+02  0.15246649222E+03 -0.32717437747E+02  0.20100263902E+03  0.12500000000E+03 0.  0.
         25    1    1    2    0    0  0.58357331365E+01 -0.91037607348E+02 -0.52363860889E+02  0.16336730291E+03  0.12500000000E+03 0.  0.
</event>
<event>
 5    0  0.5778896E-005  0.5992752E+03  0.7546771E-02  0.9906911E-01
         21   -1    0    0  502  501  0.00000000000E+00  0.00000000000E+00  0.20236790913E+03  0.20236790913E+03  0.00000000000E+00 0. -1.
         21   -1    0    0  501  502 -0.00000000000E+00 -0.00000000000E+00 -0.17746425803E+04  0.17746425803E+04  0.00000000000E+00 0. -1.
         25    1    1    2    0    0  0.26271498214E+03 -0.66440878786E+02 -0.12708335945E+04  0.13054028410E+04  0.12500000000E+03 0.  0.
         25    1    1    2    0    0 -0.44368517276E+02  0.20907243137E+03 -0.29117312635E+03  0.38221281558E+03  0.12500000000E+03 0.  0.
         25    1    1    2    0    0 -0.21834646486E+03 -0.14263155259E+03 -0.10267950319E+02  0.28939483291E+03  0.12500000000E+03 0.  0.
</event>
<event>
 5    0  0.5778896E-005  0.3213719E+03  0.7546771E-02  0.1075020E+00
         21   -1    0    0  502  501  0.00000000000E+00  0.00000000000E+00  0.24376706863E+03  0.24376706863E+03  0.00000000000E+00 0.  1.
         21   -1    0    0  501  502 -0.00000000000E+00 -0.00000000000E+00 -0.42368276503E+03  0.42368276503E+03  0.00000000000E+00 0.  1.
         25    1    1    2    0    0  0.82613319682E+02  0.12100910836E+03 -0.17195387247E+02  0.19336195654E+03  0.12500000000E+03 0.  0.
         25    1    1    2    0    0 -0.17310315068E+03 -0.12514870207E+03  0.31306231813E+01  0.24751100825E+03  0.12500000000E+03 0.  0.
         25    1    1    2    0    0  0.90489830994E+02  0.41395937011E+01 -0.16585093233E+03  0.22657686887E+03  0.12500000000E+03 0.  0.
</event>
<event>
 5    0  0.5778896E-005  0.3624761E+03  0.7546771E-02  0.1057608E+00
         21   -1    0    0  502  501  0.00000000000E+00  0.00000000000E+00  0.83012428805E+02  0.83012428805E+02  0.00000000000E+00 0. -1.
         21   -1    0    0  501  502 -0.00000000000E+00 -0.00000000000E+00 -0.15827621321E+04  0.15827621321E+04  0.00000000000E+00 0. -1.
         25    1    1    2    0    0  0.17163313790E+03 -0.88116103621E+02 -0.11799531223E+04  0.12021384082E+04  0.12500000000E+03 0.  0.
         25    1    1    2    0    0 -0.10975111196E+03  0.69981121330E+02 -0.24512393099E+03  0.30439021907E+03  0.12500000000E+03 0.  0.
         25    1    1    2    0    0 -0.61882025941E+02  0.18134982291E+02 -0.74672650061E+02  0.15924593365E+03  0.12500000000E+03 0.  0.
</event>
<event>
 5    0  0.5778896E-005  0.2642665E+03  0.7546771E-02  0.1104607E+00
         21   -1    0    0  502  501  0.00000000000E+00  0.00000000000E+00  0.75222328698E+03  0.75222328698E+03  0.00000000000E+00 0.  1.
         21   -1    0    0  501  502 -0.00000000000E+00 -0.00000000000E+00 -0.92840527659E+02  0.92840527659E+02  0.00000000000E+00 0. -1.
         25    1    1    2    0    0 -0.13327556397E+03 -0.21888174393E+01  0.18671047244E+03  0.26125268878E+03  0.12500000000E+03 0.  0.
         25    1    1    2    0    0  0.71802105761E+02 -0.37363033518E+02  0.88443230966E+02  0.17320145429E+03  0.12500000000E+03 0.  0.
         25    1    1    2    0    0  0.61473458211E+02  0.39551850957E+02  0.38422905591E+03  0.41060967156E+03  0.12500000000E+03 0.  0.
</event>
<event>
 5    0  0.5778896E-005  0.3083294E+03  0.7546771E-02  0.1081149E+00
         21   -1    0    0  502  501  0.00000000000E+00  0.00000000000E+00  0.39935958321E+03  0.39935958321E+03  0.00000000000E+00 0.  1.
         21   -1    0    0  501  502 -0.00000000000E+00 -0.00000000000E+00 -0.23804874644E+03  0.23804874644E+03  0.00000000000E+00 0.  1.
         25    1    1    2    0    0  0.11518527117E+03 -0.85854697454E+02  0.22773330665E+03  0.29686046340E+03  0.12500000000E+03 0.  0.
         25    1    1    2    0    0 -0.11157657372E+03  0.34309927832E+02  0.31051140835E+02  0.17382656960E+03  0.12500000000E+03 0.  0.
         25    1    1    2    0    0 -0.36086974486E+01  0.51544769622E+02 -0.97473610709E+02  0.16672129665E+03  0.12500000000E+03 0.  0.
</event>
<event>
 5    0  0.5778896E-005  0.4354712E+03  0.7546771E-02  0.1032145E+00
         21   -1    0    0  502  501  0.00000000000E+00  0.00000000000E+00  0.44297948520E+03  0.44297948520E+03  0.00000000000E+00 0. -1.
         21   -1    0    0  501  502 -0.00000000000E+00 -0.00000000000E+00 -0.42809010567E+03  0.42809010567E+03  0.00000000000E+00 0. -1.
         25    1    1    2    0    0  0.17697395125E+03 -0.31714811496E+02  0.45829305559E+01  0.21902422683E+03  0.12500000000E+03 0.  0.
         25    1    1    2    0    0 -0.29866615657E+03 -0.15687764644E+03 -0.98551071965E+02  0.37302732181E+03  0.12500000000E+03 0.  0.
         25    1    1    2    0    0  0.12169220532E+03  0.18859245793E+03  0.10885752094E+03  0.27901804223E+03  0.12500000000E+03 0.  0.
</event>
<event>
 5    0  0.5778896E-005  0.3520018E+03  0.7546771E-02  0.1061796E+00
         21   -1    0    0  502  501  0.00000000000E+00  0.00000000000E+00  0.33939387737E+03  0.33939387737E+03  0.00000000000E+00 0.  1.
         21   -1    0    0  501  502 -0.00000000000E+00 -0.00000000000E+00 -0.36507803515E+03  0.36507803515E+03  0.00000000000E+00 0.  1.
         25    1    1    2    0    0  0.90524124260E+02  0.47184737733E+02  0.16682042296E+03  0.23211003870E+03  0.12500000000E+03 0.  0.
         25    1    1    2    0    0 -0.13331853398E+03 -0.63691251629E+00  0.52493054467E+02  0.19014404521E+03  0.12500000000E+03 0.  0.
         25    1    1    2    0    0  0.42794409722E+02 -0.46547825217E+02 -0.24499763520E+03  0.28221782862E+03  0.12500000000E+03 0.  0.
</event>
<event>
 5    0  0.5778896E-005  0.3336896E+03  0.7546771E-02  0.1069516E+00
         21   -1    0    0  502  501  0.00000000000E+00  0.00000000000E+00  0.28426492553E+03  0.28426492553E+03  0.00000000000E+00 0. -1.
         21   -1    0    0  501  502 -0.00000000000E+00 -0.00000000000E+00 -0.39170760159E+03  0.39170760159E+03  0.00000000000E+00 0. -1.
         25    1    1    2    0    0  0.71935675016E+02  0.69283695414E+02  0.29123172948E+02  0.16262881354E+03  0.12500000000E+03 0.  0.
         25    1    1    2    0    0 -0.15130217335E+03  0.33184081585E+02 -0.23513072441E+03  0.30806653257E+03  0.12500000000E+03 0.  0.
         25    1    1    2    0    0  0.79366498333E+02 -0.10246777700E+03  0.98564875406E+02  0.20527718101E+03  0.12500000000E+03 0.  0.
</event>
<event>
 5    0  0.5778896E-005  0.3121396E+03  0.7546771E-02  0.1079325E+00
         21   -1    0    0  502  501  0.00000000000E+00  0.00000000000E+00  0.60693328665E+02  0.60693328665E+02  0.00000000000E+00 0. -1.
         21   -1    0    0  501  502 -0.00000000000E+00 -0.00000000000E+00 -0.16053025489E+04  0.16053025489E+04  0.00000000000E+00 0. -1.
         25    1    1    2    0    0  0.65966332215E+02 -0.21252414657E+03 -0.64983337676E+03  0.69815935674E+03  0.12500000000E+03 0.  0.
         25    1    1    2    0    0  0.54984267278E+01  0.18328629215E+03 -0.53064449573E+03  0.57518056159E+03  0.12500000000E+03 0.  0.
         25    1    1    2    0    0 -0.71464758942E+02  0.29237854414E+02 -0.36413134771E+03  0.39265595919E+03  0.12500000000E+03 0.  0.
</event>
<event>
 5    0  0.5778896E-005  0.3611473E+03  0.7546771E-02  0.1058130E+00
         21   -1    0    0  502  501  0.00000000000E+00  0.00000000000E+00  0.25694991725E+03  0.25694991725E+03  0.00000000000E+00 0. -1.
         21   -1    0    0  501  502 -0.00000000000E+00 -0.00000000000E+00 -0.50759855961E+03  0.50759855961E+03  0.00000000000E+00 0. -1.
         25    1    1    2    0    0 -0.96821792660E+02  0.76126392741E+02 -0.16304874660E+03  0.23954035354E+03  0.12500000000E+03 0.  0.
         25    1    1    2    0    0  0.94681180496E+02 -0.13167598615E+02  0.17011247139E+03  0.23173511714E+03  0.12500000000E+03 0.  0.
         25    1    1    2    0    0  0.21406121646E+01 -0.62958794125E+02 -0.25771236714E+03  0.29327300619E+03  0.12500000000E+03 0.  0.
</event>
<event>
 5    0  0.5778896E-005  0.3308296E+03  0.7546771E-02  0.1070770E+00
         21   -1    0    0  502  501  0.00000000000E+00  0.00000000000E+00  0.12172170122E+04  0.12172170122E+04  0.00000000000E+00 0.  1.
         21   -1    0    0  501  502 -0.00000000000E+00 -0.00000000000E+00 -0.89916759309E+02  0.89916759309E+02  0.00000000000E+00 0.  1.
         25    1    1    2    0    0  0.12845489811E+03  0.71225404080E+02  0.24066253602E+03  0.30841072497E+03  0.12500000000E+03 0.  0.
         25    1    1    2    0    0 -0.24029634914E+03 -0.67382474568E+00  0.61214237273E+03  0.66939231692E+03  0.12500000000E+03 0.  0.
         25    1    1    2    0    0  0.11184145103E+03 -0.70551579335E+02  0.27449534412E+03  0.32933072960E+03  0.12500000000E+03 0.  0.
</event>
<event>
 5    0  0.5778896E-005  0.2780068E+03  0.7546771E-02  0.1096783E+00
         21   -1    0    0  502  501  0.00000000000E+00  0.00000000000E+00  0.72729533897E+02  0.72729533897E+02  0.00000000000E+00 0. -1.
         21   -1    0    0  501  502 -0.00000000000E+00 -0.00000000000E+00 -0.10626737607E+04  0.10626737607E+04  0.00000000000E+00 0. -1.
         25    1    1    2    0    0 -0.72240219086E+02 -0.89160875264E+02 -0.48644852752E+03  0.51519460484E+03  0.12500000000E+03 0.  0.
         25    1    1    2    0    0 -0.53134074675E+02 -0.37539452651E+02 -0.24105626755E+03  0.27922314467E+03  0.12500000000E+03 0.  0.
         25    1    1    2    0    0  0.12537429376E+03  0.12670032791E+03 -0.26243943176E+03  0.34098554511E+03  0.12500000000E+03 0.  0.
</event>
<event>
 5    0  0.5778896E-005  0.3422655E+03  0.7546771E-02  0.1065835E+00
         21   -1    0    0  502  501  0.00000000000E+00  0.00000000000E+00  0.15090368072E+04  0.15090368072E+04  0.00000000000E+00 0. -1.
         21   -1    0    0  501  502 -0.00000000000E+00 -0.00000000000E+00 -0.77629448798E+02  0.77629448798E+02  0.00000000000E+00 0. -1.
         25    1    1    2    0    0 -0.51284293934E+02 -0.76617107747E+02  0.15555883514E+03  0.21982677542E+03  0.12500000000E+03 0.  0.
         25    1    1    2    0    0 -0.15014301170E+03  0.81367729065E+02  0.88277774256E+03  0.90779137144E+03  0.12500000000E+03 0.  0.
         25    1    1    2    0    0  0.20142730563E+03 -0.47506213183E+01  0.39307078068E+03  0.45904810912E+03  0.12500000000E+03 0.  0.
</event>
<event>
 5    0  0.5778896E-005  0.2013221E+03  0.7546771E-02  0.1148628E+00
         21   -1    0    0  502  501  0.00000000000E+00  0.00000000000E+00  0.33410912609E+02  0.33410912609E+02  0.00000000000E+00 0. -1.
         21   -1    0    0  501  502 -0.00000000000E+00 -0.00000000000E+00 -0.12130943226E+04  0.12130943226E+04  0.00000000000E+00 0. -1.
         25    1    1    2    0    0  0.94154997399E+01  0.93820172744E+01 -0.51823732975E+03  0.53326504088E+03  0.12500000000E+03 0.  0.
         25    1    1    2    0    0 -0.12221182393E+02  0.29874485873E+02 -0.24904417228E+03  0.28051709743E+03  0.12500000000E+03 0.  0.
         25    1    1    2    0    0  0.28056826533E+01 -0.39256503148E+02 -0.41240190799E+03  0.43272309692E+03  0.12500000000E+03 0.  0.
</event>
<event>
 5    0  0.5778896E-005  0.4414198E+03  0.7546771E-02  0.1030312E+00
         21   -1    0    0  502  501  0.00000000000E+00  0.00000000000E+00  0.22897238424E+03  0.22897238424E+03  0.00000000000E+00 0.  1.
         21   -1    0    0  501  502 -0.00000000000E+00 -0.00000000000E+00 -0.85098208164E+03  0.85098208164E+03  0.00000000000E+00 0.  1.
         25    1    1    2    0    0  0.11924524103E+03 -0.15933648224E+02  0.45229631518E+02  0.17928755735E+03  0.12500000000E+03 0.  0.
         25    1    1    2    0    0 -0.15280387828E+03  0.22195501808E+03 -0.15838081393E+03  0.33663413001E+03  0.12500000000E+03 0.  0.
         25    1    1    2    0    0  0.33558637253E+02 -0.20602136986E+03 -0.50885851499E+03  0.56403277852E+03  0.12500000000E+03 0.  0.
</event>
<event>
 5    0  0.5778896E-005  0.2280587E+03  0.7546771E-02  0.1128014E+00
         21   -1    0    0  502  501  0.00000000000E+00  0.00000000000E+00  0.30724440237E+03  0.30724440237E+03  0.00000000000E+00 0.  1.
         21   -1    0    0  501  502 -0.00000000000E+00 -0.00000000000E+00 -0.16928139485E+03  0.16928139485E+03  0.00000000000E+00 0.  1.
         25    1    1    2    0    0  0.52412212137E+02 -0.15903535014E+02  0.13153301138E+03  0.18954127648E+03  0.12500000000E+03 0.  0.
         25    1    1    2    0    0 -0.42696436087E+02 -0.26172037858E+02 -0.49400021518E+02  0.14343403831E+03  0.12500000000E+03 0.  0.
         25    1    1    2    0    0 -0.97157760505E+01  0.42075572872E+02  0.55830017662E+02  0.14355048244E+03  0.12500000000E+03 0.  0.
</event>
<event>
 5    0  0.5778896E-005  0.2994575E+03  0.7546771E-02  0.1085512E+00
         21   -1    0    0  502  501  0.00000000000E+00  0.00000000000E+00  0.12201796643E+03  0.12201796643E+03  0.00000000000E+00 0.  1.
         21   -1    0    0  501  502 -0.00000000000E+00 -0.00000000000E+00 -0.73493099553E+03  0.73493099553E+03  0.00000000000E+00 0.  1.
         25    1    1    2    0    0  0.62737202775E+02 -0.11638925851E+03 -0.27197381100E+03  0.32722648117E+03  0.12500000000E+03 0.  0.
         25    1    1    2    0    0  0.77550368635E+02 -0.45668274558E+02 -0.98597408144E+02  0.18288274897E+03  0.12500000000E+03 0.  0.
         25    1    1    2    0    0 -0.14028757141E+03  0.16205753307E+03 -0.24234180996E+03  0.34683973182E+03  0.12500000000E+03 0.  0.
</event>
<event>
 5    0  0.5778896E-005  0.2420257E+03  0.7546771E-02  0.1118451E+00
         21   -1    0    0  502  501  0.00000000000E+00  0.00000000000E+00  0.78940899357E+03  0.78940899357E+03  0.00000000000E+00 0.  1.
         21   -1    0    0  501  502 -0.00000000000E+00 -0.00000000000E+00 -0.74202901106E+02  0.74202901106E+02  0.00000000000E+00 0.  1.
         25    1    1    2    0    0 -0.17184736074E+02  0.22411732386E+01  0.40037421643E+03  0.41979143773E+03  0.12500000000E+03 0.  0.
         25    1    1    2    0    0 -0.30564457864E+02 -0.79808667282E+02  0.20161037321E+03  0.25214153177E+03  0.12500000000E+03 0.  0.
         25    1    1    2    0    0  0.47749193938E+02  0.77567494043E+02  0.11322150282E+03  0.19167892517E+03  0.12500000000E+03 0.  0.
</event>
<event>
 5    0  0.5778896E-005  0.3903829E+03  0.7546771E-02  0.1047162E+00
         21   -1    0    0  502  501  0.00000000000E+00  0.00000000000E+00  0.22454772635E+04  0.22454772635E+04  0.00000000000E+00 0.  1.
         21   -1    0    0  501  502 -0.00000000000E+00 -0.00000000000E+00 -0.67869236829E+02  0.67869236829E+02  0.00000000000E+00 0.  1.
         25    1    1    2    0    0 -0.21450353916E+02 -0.97443186650E+02  0.27803900368E+03  0.32075844475E+03  0.12500000000E+03 0.  0.
         25    1    1    2    0    0 -0.50269594991E+01  0.23930867705E+03  0.16802417953E+04  0.17018023986E+04  0.12500000000E+03 0.  0.
         25    1    1    2    0    0  0.26477313415E+02 -0.14186549040E+03  0.21932722764E+03  0.29078565693E+03  0.12500000000E+03 0.  0.
</event>
<event>
 5    0  0.5778896E-005  0.2316282E+03  0.7546771E-02  0.1125499E+00
         21   -1    0    0  502  501  0.00000000000E+00  0.00000000000E+00  0.60898821865E+03  0.60898821865E+03  0.00000000000E+00 0. -1.
         21   -1    0    0  501  502 -0.00000000000E+00 -0.00000000000E+00 -0.88099615872E+02  0.88099615872E+02  0.00000000000E+00 0. -1.
         25    1    1    2    0    0 -0.15303086817E+02  0.18886080412E+02  0.18281823224E+02  0.12864716693E+03  0.12500000000E+03 0.  0.
         25    1    1    2    0    0  0.37897176803E+02 -0.15628318941E+02  0.31989835272E+03  0.34589072904E+03  0.12500000000E+03 0.  0.
         25    1    1    2    0    0 -0.22594089987E+02 -0.32577614713E+01  0.18270842683E+03  0.22254993855E+03  0.12500000000E+03 0.  0.
</event>
<event>
 5    0  0.6758754E-005  0.3304908E+03  0.7546771E-02  0.1070920E+00
         21   -1    0    0  502  501  0.00000000000E+00  0.00000000000E+00  0.35087119521E+03  0.35087119521E+03  0.00000000000E+00 0.  1.
         21   -1    0    0  501  502 -0.00000000000E+00 -0.00000000000E+00 -0.31129426521E+03  0.31129426521E+03  0.00000000000E+00 0.  1.
         25    1    1    2    0    0  0.95262255478E+02 -0.13795608532E+02  0.13361661532E+03  0.20674529262E+03  0.12500000000E+03 0.  0.
         25    1    1    2    0    0 -0.21463672175E+03 -0.41478483105E+02 -0.17400465476E+01  0.25182814506E+03  0.12500000000E+03 0.  0.
         25    1    1    2    0    0  0.11937446627E+03  0.55274091638E+02 -0.92299638764E+02  0.20359202273E+03  0.12500000000E+03 0.  0.
</event>
<event>
 5    0  0.5778896E-005  0.2957626E+03  0.7546771E-02  0.1087378E+00
         21   -1    0    0  502  501  0.00000000000E+00  0.00000000000E+00  0.16724415297E+03  0.16724415297E+03  0.00000000000E+00 0.  1.
         21   -1    0    0  501  502 -0.00000000000E+00 -0.00000000000E+00 -0.52304068835E+03  0.52304068835E+03  0.00000000000E+00 0.  1.
         25    1    1    2    0    0  0.12910169093E+03  0.38270828278E+02 -0.17906452616E+03  0.25655605123E+03  0.12500000000E+03 0.  0.
         25    1    1    2    0    0  0.59460975124E+02 -0.43281067899E+02 -0.14525447101E+03  0.20526256295E+03  0.12500000000E+03 0.  0.
         25    1    1    2    0    0 -0.18856266605E+03  0.50102396209E+01 -0.31477538216E+02  0.22846622714E+03  0.12500000000E+03 0.  0.
</event>
<event>
 5    0  0.5778896E-005  0.3284671E+03  0.7546771E-02  0.1071817E+00
         21   -1    0    0  502  501  0.00000000000E+00  0.00000000000E+00  0.14417839467E+04  0.14417839467E+04  0.00000000000E+00 0. -1.
         21   -1    0    0  501  502 -0.00000000000E+00 -0.00000000000E+00 -0.74831350032E+02  0.74831350032E+02  0.00000000000E+00 0. -1.
         25    1    1    2    0    0  0.43896903599E+02  0.17584083154E+03  0.43970640782E+03  0.49174552490E+03  0.12500000000E+03 0.  0.
         25    1    1    2    0    0  0.12875082479E+03 -0.10412811872E+03  0.51603919230E+03  0.55618422126E+03  0.12500000000E+03 0.  0.
         25    1    1    2    0    0 -0.17264772839E+03 -0.71712712822E+02  0.41120699653E+03  0.46868555055E+03  0.12500000000E+03 0.  0.
</event>
<event>
 5    0  0.6107530E-005  0.3320336E+03  0.7546771E-02  0.1070241E+00
         21   -1    0    0  502  501  0.00000000000E+00  0.00000000000E+00  0.37397816931E+03  0.37397816931E+03  0.00000000000E+00 0. -1.
         21   -1    0    0  501  502 -0.00000000000E+00 -0.00000000000E+00 -0.29479340456E+03  0.29479340456E+03  0.00000000000E+00 0. -1.
         25    1    1    2    0    0 -0.10932519510E+03 -0.11429726328E+03  0.17263492500E+03  0.26541228307E+03  0.12500000000E+03 0.  0.
         25    1    1    2    0    0  0.56730565240E+01  0.15433763188E+03 -0.12277220029E+03  0.23356005941E+03  0.12500000000E+03 0.  0.
         25    1    1    2    0    0  0.10365213858E+03 -0.40040368597E+02  0.29322040041E+02  0.16979923139E+03  0.12500000000E+03 0.  0.
</event>
<event>
 5    0  0.6412413E-005  0.3025872E+03  0.7546771E-02  0.1083954E+00
         21   -1    0    0  502  501  0.00000000000E+00  0.00000000000E+00  0.16518304468E+03  0.16518304468E+03  0.00000000000E+00 0. -1.
         21   -1    0    0  501  502 -0.00000000000E+00 -0.00000000000E+00 -0.55428814910E+03  0.55428814910E+03  0.00000000000E+00 0. -1.
         25    1    1    2    0    0  0.18129676772E+02  0.26317930594E+02 -0.27521690750E+03  0.30395832744E+03  0.12500000000E+03 0.  0.
         25    1    1    2    0    0  0.35300654271E+02 -0.10619567069E+01  0.97852130953E+02  0.16262626933E+03  0.12500000000E+03 0.  0.
         25    1    1    2    0    0 -0.53430331043E+02 -0.25255973887E+02 -0.21174032788E+03  0.25288659700E+03  0.12500000000E+03 0.  0.
</event>
<event>
 5    0  0.5778896E-005  0.3611451E+03  0.7546771E-02  0.1058131E+00
         21   -1    0    0  502  501  0.00000000000E+00  0.00000000000E+00  0.17721109864E+03  0.17721109864E+03  0.00000000000E+00 0. -1.
         21   -1    0    0  501  502 -0.00000000000E+00 -0.00000000000E+00 -0.73599111875E+03  0.73599111875E+03  0.00000000000E+00 0. -1.
         25    1    1    2    0    0 -0.15043164546E+02 -0.14126656873E+03 -0.21204640270E+03  0.28420277468E+03  0.12500000000E+03 0.  0.
         25    1    1    2    0    0  0.20977902471E+03 -0.10211518407E+02 -0.20061239392E+03  0.31619906216E+03  0.12500000000E+03 0.  0.
         25    1    1    2    0    0 -0.19473586016E+03  0.15147808713E+03 -0.14612122350E+03  0.31280038055E+03  0.12500000000E+03 0.  0.
</event>
<event>
 5    0  0.5778896E-005  0.2658516E+03  0.7546771E-02  0.1103678E+00
         21   -1    0    0  502  501  0.00000000000E+00  0.00000000000E+00  0.10158915467E+03  0.10158915467E+03  0.00000000000E+00 0.  1.
         21   -1    0    0  501  502 -0.00000000000E+00 -0.00000000000E+00 -0.69571460211E+03  0.69571460211E+03  0.00000000000E+00 0.  1.
         25    1    1    2    0    0  0.60756413806E+02  0.94104199218E+02 -0.22672105682E+03  0.28208931163E+03  0.12500000000E+03 0.  0.
         25    1    1    2    0    0  0.23275013639E+02 -0.40757046823E+02 -0.22917942314E+02  0.13547359597E+03  0.12500000000E+03 0.  0.
         25    1    1    2    0    0 -0.84031427445E+02 -0.53347152395E+02 -0.34448644831E+03  0.37974084918E+03  0.12500000000E+03 0.  0.
</event>
<event>
 5    0  0.5778896E-005  0.2270211E+03  0.7546771E-02  0.1128754E+00
         21   -1    0    0  502  501  0.00000000000E+00  0.00000000000E+00  0.11936140935E+03  0.11936140935E+03  0.00000000000E+00 0.  1.
         21   -1    0    0  501  502 -0.00000000000E+00 -0.00000000000E+00 -0.43178583011E+03  0.43178583011E+03  0.00000000000E+00 0.  1.
         25    1    1    2    0    0 -0.92717643451E+02 -0.12857637998E+02 -0.20038063273E+03  0.25404581917E+03  0.12500000000E+03 0.  0.
         25    1    1    2    0    0  0.37712008058E+02 -0.25881290232E+02 -0.50145448586E+02  0.14223783867E+03  0.12500000000E+03 0.  0.
         25    1    1    2    0    0  0.55005635394E+02  0.38738928230E+02 -0.61898339446E+02  0.15486358162E+03  0.12500000000E+03 0.  0.
</event>
<event>
 5    0  0.5778896E-005  0.4414829E+03  0.7546771E-02  0.1030293E+00
         21   -1    0    0  502  501  0.00000000000E+00  0.00000000000E+00  0.76703968928E+02  0.76703968928E+02  0.00000000000E+00 0.  1.
         21   -1    0    0  501  502 -0.00000000000E+00 -0.00000000000E+00 -0.25410313704E+04  0.25410313704E+04  0.00000000000E+00 0.  1.
         25    1    1    2    0    0  0.25316057294E+03 -0.13126611245E+03 -0.58262738074E+03  0.66060633721E+03  0.12500000000E+03 0.  0.
         25    1    1    2    0    0 -0.18250868580E+03  0.69981827023E+02 -0.17075760835E+04  0.17232666530E+04  0.12500000000E+03 0.  0.
         25    1    1    2    0    0 -0.70651887141E+02  0.61284285432E+02 -0.17412393717E+03  0.23386234903E+03  0.12500000000E+03 0.  0.
</event>
<event>
 5    0  0.5778896E-005  0.2960507E+03  0.7546771E-02  0.1087232E+00
         21   -1    0    0  502  501  0.00000000000E+00  0.00000000000E+00  0.59773399815E+02  0.59773399815E+02  0.00000000000E+00 0.  1.
         21   -1    0    0  501  502 -0.00000000000E+00 -0.00000000000E+00 -0.14663046326E+04  0.14663046326E+04  0.00000000000E+00 0.  1.
         25    1    1    2    0    0 -0.39231621219E+02 -0.73373661246E+02 -0.84416404652E+03  0.85741515715E+03  0.12500000000E+03 0.  0.
         25    1    1    2    0    0 -0.40653658549E+02  0.33560446757E+02 -0.47054998325E+03  0.48971554016E+03  0.12500000000E+03 0.  0.
         25    1    1    2    0    0  0.79885279768E+02  0.39813214489E+02 -0.91817203014E+02  0.17894733510E+03  0.12500000000E+03 0.  0.
</event>
<event>
 5    0  0.6555914E-005  0.3821250E+03  0.7546771E-02  0.1050151E+00
         21   -1    0    0  502  501  0.00000000000E+00  0.00000000000E+00  0.15933875979E+03  0.15933875979E+03  0.00000000000E+00 0.  1.
         21   -1    0    0  501  502 -0.00000000000E+00 -0.00000000000E+00 -0.91640908476E+03  0.91640908476E+03  0.00000000000E+00 0.  1.
         25    1    1    2    0    0 -0.11602033620E+03  0.34659351428E+02 -0.54800597871E+03  0.57497612277E+03  0.12500000000E+03 0.  0.
         25    1    1    2    0    0 -0.34039592883E+02 -0.17097345084E+03 -0.73683470521E+02  0.22681461285E+03  0.12500000000E+03 0.  0.
         25    1    1    2    0    0  0.15005992908E+03  0.13631409941E+03 -0.13538087574E+03  0.27395710892E+03  0.12500000000E+03 0.  0.
</event>
<event>
 5    0  0.5778896E-005  0.2589089E+03  0.7546771E-02  0.1107801E+00
         21   -1    0    0  502  501  0.00000000000E+00  0.00000000000E+00  0.10599610762E+03  0.10599610762E+03  0.00000000000E+00 0. -1.
         21   -1    0    0  501  502 -0.00000000000E+00 -0.00000000000E+00 -0.63241754042E+03  0.63241754042E+03  0.00000000000E+00 0. -1.
         25    1    1    2    0    0  0.85342218497E+02  0.16235583176E+02 -0.11667384616E+03  0.19179331270E+03  0.12500000000E+03 0.  0.
         25    1    1    2    0    0 -0.16165987233E+03  0.33572590467E+02 -0.23180118502E+03  0.31083407556E+03  0.12500000000E+03 0.  0.
         25    1    1    2    0    0  0.76317653837E+02 -0.49808173643E+02 -0.17794640162E+03  0.23578625977E+03  0.12500000000E+03 0.  0.
</event>
<event>
 5    0  0.5778896E-005  0.2246753E+03  0.7546771E-02  0.1130445E+00
         21   -1    0    0  502  501  0.00000000000E+00  0.00000000000E+00  0.42217594937E+02  0.42217594937E+02  0.00000000000E+00 0.  1.
         21   -1    0    0  501  502 -0.00000000000E+00 -0.00000000000E+00 -0.11956857839E+04  0.11956857839E+04  0.00000000000E+00 0.  1.
         25    1    1    2    0    0  0.31940754782E+01  0.64664827378E+02 -0.16919443533E+03  0.22009883908E+03  0.12500000000E+03 0.  0.
         25    1    1    2    0    0 -0.29861767907E+01 -0.35678993092E+02 -0.53415879721E+03  0.54975679026E+03  0.12500000000E+03 0.  0.
         25    1    1    2    0    0 -0.20789868743E+00 -0.28985834285E+02 -0.45011495637E+03  0.46804774945E+03  0.12500000000E+03 0.  0.
</event>
<event>
 5    0  0.5778896E-005  0.7066295E+03  0.7546771E-02  0.9705962E-01
         21   -1    0    0  502  501  0.00000000000E+00  0.00000000000E+00  0.29710227278E+03  0.29710227278E+03  0.00000000000E+00 0.  1.
         21   -1    0    0  501  502 -0.00000000000E+00 -0.00000000000E+00 -0.16806509047E+04  0.16806509047E+04  0.00000000000E+00 0.  1.
         25    1    1    2    0    0  0.49171110675E+02  0.28660370111E+03 -0.95627486024E+02  0.33064950582E+03  0.12500000000E+03 0.  0.
         25    1    1    2    0    0  0.36665383603E+03  0.10079005113E+03 -0.77122302553E+03  0.86890944579E+03  0.12500000000E+03 0.  0.
         25    1    1    2    0    0 -0.41582494671E+03 -0.38739375224E+03 -0.51669812035E+03  0.77819422585E+03  0.12500000000E+03 0.  0.
</event>
<event>
 5    0  0.5778896E-005  0.2929125E+03  0.7546771E-02  0.1088838E+00
         21   -1    0    0  502  501  0.00000000000E+00  0.00000000000E+00  0.60301435288E+03  0.60301435288E+03  0.00000000000E+00 0. -1.
         21   -1    0    0  501  502 -0.00000000000E+00 -0.00000000000E+00 -0.14228137045E+03  0.14228137045E+03  0.00000000000E+00 0. -1.
         25    1    1    2    0    0  0.19289991401E+03  0.81446008060E+02  0.13444116205E+03  0.27846589577E+03  0.12500000000E+03 0.  0.
         25    1    1    2    0    0 -0.84446663771E+02 -0.31963434961E+02  0.10703780516E+03  0.18770986104E+03  0.12500000000E+03 0.  0.
         25    1    1    2    0    0 -0.10845325023E+03 -0.49482573100E+02  0.21925401522E+03  0.27911996653E+03  0.12500000000E+03 0.  0.
</event>
<event>
 5    0  0.6170531E-005  0.3060230E+03  0.7546771E-02  0.1082268E+00
         21   -1    0    0  502  501  0.00000000000E+00  0.00000000000E+00  0.65730674369E+03  0.65730674369E+03  0.00000000000E+00 0.  1.
         21   -1    0    0  501  502 -0.00000000000E+00 -0.00000000000E+00 -0.14247541142E+03  0.14247541142E+03  0.00000000000E+00 0.  1.
         25    1    1    2    0    0 -0.64689663355E+02  0.65873462244E+01 -0.25996016381E+02  0.14327923277E+03  0.12500000000E+03 0.  0.
         25    1    1    2    0    0  0.47627520960E+02 -0.11535133172E+03  0.40405085155E+03  0.44097210923E+03  0.12500000000E+03 0.  0.
         25    1    1    2    0    0  0.17062142395E+02  0.10876398549E+03  0.13677649710E+03  0.21553081311E+03  0.12500000000E+03 0.  0.
</event>
<event>
 5    0  0.5778896E-005  0.2762871E+03  0.7546771E-02  0.1097734E+00
         21   -1    0    0  502  501  0.00000000000E+00  0.00000000000E+00  0.43063569888E+03  0.43063569888E+03  0.00000000000E+00 0. -1.
         21   -1    0    0  501  502 -0.00000000000E+00 -0.00000000000E+00 -0.17726019634E+03  0.17726019634E+03  0.00000000000E+00 0. -1.
         25    1    1    2    0    0 -0.24937236295E+02 -0.35281509493E+02  0.25844898724E+03  0.29032314698E+03  0.12500000000E+03 0.  0.
         25    1    1    2    0    0 -0.27372617314E+02  0.63008951140E+02 -0.76556958140E+02  0.16188068428E+03  0.12500000000E+03 0.  0.
         25    1    1    2    0    0  0.52309853608E+02 -0.27727441648E+02  0.71483473443E+02  0.15569206396E+03  0.12500000000E+03 0.  0.
</event>
<event>
 5    0  0.6653474E-005  0.2528695E+03  0.7546771E-02  0.1111505E+00
         21   -1    0    0  502  501  0.00000000000E+00  0.00000000000E+00  0.20269027294E+03  0.20269027294E+03  0.00000000000E+00 0. -1.
         21   -1    0    0  501  502 -0.00000000000E+00 -0.00000000000E+00 -0.31547130397E+03  0.31547130397E+03  0.00000000000E+00 0. -1.
         25    1    1    2    0    0  0.28087844152E+02  0.60548740151E+02  0.41290152883E+02  0.14759726843E+03  0.12500000000E+03 0.  0.
         25    1    1    2    0    0 -0.92294817144E+02 -0.97294498396E+02 -0.12645507333E+03  0.22271155844E+03  0.12500000000E+03 0.  0.
         25    1    1    2    0    0  0.64206972992E+02  0.36745758244E+02 -0.27616110579E+02  0.14785275004E+03  0.12500000000E+03 0.  0.
</event>
<event>
 5    0  0.5778896E-005  0.2665498E+03  0.7546771E-02  0.1103271E+00
         21   -1    0    0  502  501  0.00000000000E+00  0.00000000000E+00  0.19860125095E+03  0.19860125095E+03  0.00000000000E+00 0.  1.
         21   -1    0    0  501  502 -0.00000000000E+00 -0.00000000000E+00 -0.35774596502E+03  0.35774596502E+03  0.00000000000E+00 0.  1.
         25    1    1    2    0    0 -0.14560960835E+02  0.68325564214E+02 -0.22665311803E+03  0.26809893737E+03  0.12500000000E+03 0.  0.
         25    1    1    2    0    0  0.15381190677E+02 -0.80639361806E+02  0.63795081745E+02  0.16258567020E+03  0.12500000000E+03 0.  0.
         25    1    1    2    0    0 -0.82022984216E+00  0.12313797592E+02  0.37133222160E+01  0.12566260840E+03  0.12500000000E+03 0.  0.
</event>
<event>
 5    0  0.5778896E-005  0.2769441E+03  0.7546771E-02  0.1097370E+00
         21   -1    0    0  502  501  0.00000000000E+00  0.00000000000E+00  0.12107005130E+04  0.12107005130E+04  0.00000000000E+00 0.  1.
         21   -1    0    0  501  502 -0.00000000000E+00 -0.00000000000E+00 -0.63350109910E+02  0.63350109910E+02  0.00000000000E+00 0.  1.
         25    1    1    2    0    0  0.30767872866E+02  0.28373956008E+02  0.16020015364E+03  0.20746284632E+03  0.12500000000E+03 0.  0.
         25    1    1    2    0    0  0.51219154090E+02 -0.14313838282E+03  0.66338427521E+03  0.69196509665E+03  0.12500000000E+03 0.  0.
         25    1    1    2    0    0 -0.81987026956E+02  0.11476442681E+03  0.32376597429E+03  0.37462267998E+03  0.12500000000E+03 0.  0.
</event>
<event>
 5    0  0.5778896E-005  0.2741747E+03  0.7546771E-02  0.1098914E+00
         21   -1    0    0  502  501  0.00000000000E+00  0.00000000000E+00  0.10676602216E+04  0.10676602216E+04  0.00000000000E+00 0.  1.
         21   -1    0    0  501  502 -0.00000000000E+00 -0.00000000000E+00 -0.70407944496E+02  0.70407944496E+02  0.00000000000E+00 0.  1.
         25    1    1    2    0    0  0.63650860045E+02 -0.23385494271E+02  0.26358966514E+03  0.29950429863E+03  0.12500000000E+03 0.  0.
         25    1    1    2    0    0  0.80543719368E+01  0.63292145608E+02  0.67325313444E+02  0.15565495955E+03  0.12500000000E+03 0.  0.
         25    1    1    2    0    0 -0.71705231982E+02 -0.39906651337E+02  0.66633729847E+03  0.68290890787E+03  0.12500000000E+03 0.  0.
</event>
<event>
 5    0  0.5778896E-005  0.4892954E+03  0.7546771E-02  0.1016611E+00
         21   -1    0    0  502  501  0.00000000000E+00  0.00000000000E+00  0.53909451487E+03  0.53909451487E+03  0.00000000000E+00 0.  1.
         21   -1    0    0  501  502 -0.00000000000E+00 -0.00000000000E+00 -0.44409657198E+03  0.44409657198E+03  0.00000000000E+00 0.  1.
         25    1    1    2    0    0 -0.10069665666E+03 -0.25936087444E+02 -0.25417115526E+03  0.30172913924E+03  0.12500000000E+03 0.  0.
         25    1    1    2    0    0 -0.20624707280E+02 -0.12319523968E+03 -0.80689542223E+02  0.19426334666E+03  0.12500000000E+03 0.  0.
         25    1    1    2    0    0  0.12132136394E+03  0.14913132712E+03  0.42985864037E+03  0.48719860096E+03  0.12500000000E+03 0.  0.
</event>
<event>
 5    0  0.5778896E-005  0.3542284E+03  0.7546771E-02  0.1060893E+00
         21   -1    0    0  502  501  0.00000000000E+00  0.00000000000E+00  0.68977789640E+03  0.68977789640E+03  0.00000000000E+00 0. -1.
         21   -1    0    0  501  502 -0.00000000000E+00 -0.00000000000E+00 -0.18191041780E+03  0.18191041780E+03  0.00000000000E+00 0. -1.
         25    1    1    2    0    0 -0.13894779844E+03 -0.11434889635E+03 -0.67744238021E+00  0.21910641186E+03  0.12500000000E+03 0.  0.
         25    1    1    2    0    0 -0.28887035355E+02 -0.80954699969E+01  0.32185346316E+03  0.34657560386E+03  0.12500000000E+03 0.  0.
         25    1    1    2    0    0  0.16783483380E+03  0.12244436635E+03  0.18669145783E+03  0.30600629848E+03  0.12500000000E+03 0.  0.
</event>
<event>
 5    0  0.5778896E-005  0.2205266E+03  0.7546771E-02  0.1133491E+00
         21   -1    0    0  502  501  0.00000000000E+00  0.00000000000E+00  0.28828552061E+03  0.28828552061E+03  0.00000000000E+00 0.  1.
         21   -1    0    0  501  502 -0.00000000000E+00 -0.00000000000E+00 -0.16869380676E+03  0.16869380676E+03  0.00000000000E+00 0.  1.
         25    1    1    2    0    0  0.67287068230E+01 -0.34353949083E+02  0.89154723279E+02  0.15747709039E+03  0.12500000000E+03 0.  0.
         25    1    1    2    0    0 -0.45254199854E+02  0.63219813043E+02  0.65376863223E+02  0.16107085897E+03  0.12500000000E+03 0.  0.
         25    1    1    2    0    0  0.38525493031E+02 -0.28865863960E+02 -0.34939872655E+02  0.13843137801E+03  0.12500000000E+03 0.  0.
</event>
<event>
 5    0  0.5778896E-005  0.4290306E+03  0.7546771E-02  0.1034167E+00
         21   -1    0    0  502  501  0.00000000000E+00  0.00000000000E+00  0.37270105593E+03  0.37270105593E+03  0.00000000000E+00 0. -1.
         21   -1    0    0  501  502 -0.00000000000E+00 -0.00000000000E+00 -0.49387369957E+03  0.49387369957E+03  0.00000000000E+00 0. -1.
         25    1    1    2    0    0  0.28211649314E+03  0.18048534528E+03 -0.20666800695E+03  0.41291807985E+03  0.12500000000E+03 0.  0.
         25    1    1    2    0    0 -0.21497440346E+03 -0.10391226747E+03 -0.34134701560E+01  0.26953368111E+03  0.12500000000E+03 0.  0.
         25    1    1    2    0    0 -0.67142089684E+02 -0.76573077812E+02  0.88908833473E+02  0.18412299455E+03  0.12500000000E+03 0.  0.
</event>
