<event>
 5    0  0.5590591E-005  0.4237946E+03  0.7546771E-02  0.1035838E+00
         21   -1    0    0  502  501  0.00000000000E+00  0.00000000000E+00  0.56761713511E+03  0.56761713511E+03  0.00000000000E+00 0.  1.
         21   -1    0    0  501  502 -0.00000000000E+00 -0.00000000000E+00 -0.31641380904E+03  0.31641380904E+03  0.00000000000E+00 0.  1.
         25    1    1    2    0    0  0.80807959841E+02  0.16353010911E+03  0.14362953080E+03  0.26367871563E+03  0.12500000000E+03 0.  0.
         25    1    1    2    0    0 -0.75338966940E+02 -0.33353837257E+03 -0.34810438762E+02  0.36573292518E+03  0.12500000000E+03 0.  0.
         25    1    1    2    0    0 -0.54689929016E+01  0.17000826346E+03  0.14238423403E+03  0.25461930333E+03  0.12500000000E+03 0.  0.
</event>
<event>
 5    0  0.5590591E-005  0.3133465E+03  0.7546771E-02  0.1078753E+00
         21   -1    0    0  502  501  0.00000000000E+00  0.00000000000E+00  0.35634527502E+03  0.35634527502E+03  0.00000000000E+00 0. -1.
         21   -1    0    0  501  502 -0.00000000000E+00 -0.00000000000E+00 -0.27553622547E+03  0.27553622547E+03  0.00000000000E+00 0. -1.
         25    1    1    2    0    0 -0.28700731466E+01 -0.83227934620E+02 -0.73337400772E+02  0.16714814020E+03  0.12500000000E+03 0.  0.
         25    1    1    2    0    0 -0.98798476404E+02  0.11340528509E+03  0.21429508897E+03  0.29011942848E+03  0.12500000000E+03 0.  0.
         25    1    1    2    0    0  0.10166854955E+03 -0.30177350466E+02 -0.60148638654E+02  0.17461393181E+03  0.12500000000E+03 0.  0.
</event>
<event>
 5    0  0.5590591E-005  0.4500501E+03  0.7546771E-02  0.1027707E+00
         21   -1    0    0  502  501  0.00000000000E+00  0.00000000000E+00  0.52436671555E+03  0.52436671555E+03  0.00000000000E+00 0.  1.
         21   -1    0    0  501  502 -0.00000000000E+00 -0.00000000000E+00 -0.38626611356E+03  0.38626611356E+03  0.00000000000E+00 0.  1.
         25    1    1    2    0    0  0.13213600033E+03  0.13418702668E+03 -0.27107102062E+03  0.35294557502E+03  0.12500000000E+03 0.  0.
         25    1    1    2    0    0 -0.12666245623E+03 -0.16964235008E+03  0.30012985735E+03  0.38797530338E+03  0.12500000000E+03 0.  0.
         25    1    1    2    0    0 -0.54735441012E+01  0.35455323405E+02  0.10904176525E+03  0.16971195070E+03  0.12500000000E+03 0.  0.
</event>
<event>
 5    0  0.5590591E-005  0.4220004E+03  0.7546771E-02  0.1036417E+00
         21   -1    0    0  502  501  0.00000000000E+00  0.00000000000E+00  0.33217080519E+03  0.33217080519E+03  0.00000000000E+00 0.  1.
         21   -1    0    0  501  502 -0.00000000000E+00 -0.00000000000E+00 -0.53612270071E+03  0.53612270071E+03  0.00000000000E+00 0.  1.
         25    1    1    2    0    0  0.22629994519E+03 -0.15987268822E+02 -0.26225756877E+03  0.36860723045E+03  0.12500000000E+03 0.  0.
         25    1    1    2    0    0  0.17008652059E+02 -0.13351182610E+03  0.35862611347E+02  0.18715188710E+03  0.12500000000E+03 0.  0.
         25    1    1    2    0    0 -0.24330859725E+03  0.14949909492E+03  0.22443061913E+02  0.31253438836E+03  0.12500000000E+03 0.  0.
</event>
<event>
 5    0  0.5590591E-005  0.3257816E+03  0.7546771E-02  0.1073019E+00
         21   -1    0    0  502  501  0.00000000000E+00  0.00000000000E+00  0.28284060230E+03  0.28284060230E+03  0.00000000000E+00 0.  1.
         21   -1    0    0  501  502 -0.00000000000E+00 -0.00000000000E+00 -0.37524191352E+03  0.37524191352E+03  0.00000000000E+00 0.  1.
         25    1    1    2    0    0 -0.23324134642E+03 -0.45342040827E+02  0.10205787919E+02  0.26867561194E+03  0.12500000000E+03 0.  0.
         25    1    1    2    0    0  0.19547211591E+03 -0.12404223725E+02 -0.73387183499E+02  0.24366758415E+03  0.12500000000E+03 0.  0.
         25    1    1    2    0    0  0.37769230513E+02  0.57746264552E+02 -0.29219915635E+02  0.14573931972E+03  0.12500000000E+03 0.  0.
</event>
<event>
 5    0  0.5590591E-005  0.3559092E+03  0.7546771E-02  0.1060215E+00
         21   -1    0    0  502  501  0.00000000000E+00  0.00000000000E+00  0.63153435018E+03  0.63153435018E+03  0.00000000000E+00 0. -1.
         21   -1    0    0  501  502 -0.00000000000E+00 -0.00000000000E+00 -0.20057714841E+03  0.20057714841E+03  0.00000000000E+00 0.  1.
         25    1    1    2    0    0  0.17724627786E+03 -0.16755462414E+03  0.15320903339E+03  0.31398853960E+03  0.12500000000E+03 0.  0.
         25    1    1    2    0    0 -0.11914239206E+03  0.22871333366E+03  0.18134365614E+03  0.33913893938E+03  0.12500000000E+03 0.  0.
         25    1    1    2    0    0 -0.58103885793E+02 -0.61158709523E+02  0.96404512247E+02  0.17898401961E+03  0.12500000000E+03 0.  0.
</event>
<event>
 5    0  0.5590591E-005  0.3117137E+03  0.7546771E-02  0.1079527E+00
         21   -1    0    0  502  501  0.00000000000E+00  0.00000000000E+00  0.71167366507E+03  0.71167366507E+03  0.00000000000E+00 0.  1.
         21   -1    0    0  501  502 -0.00000000000E+00 -0.00000000000E+00 -0.13653088289E+03  0.13653088289E+03  0.00000000000E+00 0.  1.
         25    1    1    2    0    0  0.13675648091E+03 -0.91372517094E+02  0.26252225651E+03  0.33405719138E+03  0.12500000000E+03 0.  0.
         25    1    1    2    0    0 -0.34093748242E+02 -0.31511994412E+02 -0.91092123359E+01  0.13365390832E+03  0.12500000000E+03 0.  0.
         25    1    1    2    0    0 -0.10266273267E+03  0.12288451151E+03  0.32172973800E+03  0.38049344825E+03  0.12500000000E+03 0.  0.
</event>
<event>
 5    0  0.5768137E-005  0.2457150E+03  0.7546771E-02  0.1116043E+00
         21   -1    0    0  502  501  0.00000000000E+00  0.00000000000E+00  0.59924847897E+03  0.59924847897E+03  0.00000000000E+00 0.  1.
         21   -1    0    0  501  502 -0.00000000000E+00 -0.00000000000E+00 -0.10075265260E+03  0.10075265260E+03  0.00000000000E+00 0.  1.
         25    1    1    2    0    0  0.38241892589E+02  0.12255856755E+03  0.94801616522E+02  0.20271998254E+03  0.12500000000E+03 0.  0.
         25    1    1    2    0    0 -0.21123019981E+02 -0.89142551055E+02  0.26381790748E+03  0.30596971204E+03  0.12500000000E+03 0.  0.
         25    1    1    2    0    0 -0.17118872608E+02 -0.33416016490E+02  0.13987630237E+03  0.19131143699E+03  0.12500000000E+03 0.  0.
</event>
<event>
 5    0  0.5590591E-005  0.3880142E+03  0.7546771E-02  0.1048011E+00
         21   -1    0    0  502  501  0.00000000000E+00  0.00000000000E+00  0.15792978226E+03  0.15792978226E+03  0.00000000000E+00 0.  1.
         21   -1    0    0  501  502 -0.00000000000E+00 -0.00000000000E+00 -0.95330348901E+03  0.95330348901E+03  0.00000000000E+00 0.  1.
         25    1    1    2    0    0  0.97264522726E+02 -0.66623609552E+02 -0.22179916786E+03  0.28056899970E+03  0.12500000000E+03 0.  0.
         25    1    1    2    0    0 -0.20366031459E+03 -0.15086976028E+03 -0.45020111437E+03  0.53154985813E+03  0.12500000000E+03 0.  0.
         25    1    1    2    0    0  0.10639579186E+03  0.21749336983E+03 -0.12337342453E+03  0.29911441344E+03  0.12500000000E+03 0.  0.
</event>
<event>
 5    0  0.5590591E-005  0.1988422E+03  0.7546771E-02  0.1150720E+00
         21   -1    0    0  502  501  0.00000000000E+00  0.00000000000E+00  0.89783099991E+02  0.89783099991E+02  0.00000000000E+00 0. -1.
         21   -1    0    0  501  502 -0.00000000000E+00 -0.00000000000E+00 -0.44037476692E+03  0.44037476692E+03  0.00000000000E+00 0. -1.
         25    1    1    2    0    0  0.68641045175E+01  0.33646369718E+02 -0.18345105327E+03  0.22462965760E+03  0.12500000000E+03 0.  0.
         25    1    1    2    0    0  0.54559466478E+01  0.13926350884E+01 -0.88304425859E+02  0.15314822367E+03  0.12500000000E+03 0.  0.
         25    1    1    2    0    0 -0.12320051165E+02 -0.35039004807E+02 -0.78836187799E+02  0.15237998565E+03  0.12500000000E+03 0.  0.
</event>
<event>
 5    0  0.5590591E-005  0.5165120E+03  0.7546771E-02  0.1009557E+00
         21   -1    0    0  502  501  0.00000000000E+00  0.00000000000E+00  0.57863876419E+03  0.57863876419E+03  0.00000000000E+00 0. -1.
         21   -1    0    0  501  502 -0.00000000000E+00 -0.00000000000E+00 -0.46105567849E+03  0.46105567849E+03  0.00000000000E+00 0. -1.
         25    1    1    2    0    0  0.31539846561E+02  0.17372480371E+03 -0.12441904947E+03  0.24955995115E+03  0.12500000000E+03 0.  0.
         25    1    1    2    0    0 -0.20474360159E+03 -0.37568956030E+03  0.21513809379E+03  0.49494644913E+03  0.12500000000E+03 0.  0.
         25    1    1    2    0    0  0.17320375503E+03  0.20196475658E+03  0.26864041388E+02  0.29518804240E+03  0.12500000000E+03 0.  0.
</event>
<event>
 5    0  0.5590591E-005  0.3378471E+03  0.7546771E-02  0.1067717E+00
         21   -1    0    0  502  501  0.00000000000E+00  0.00000000000E+00  0.89997767686E+03  0.89997767686E+03  0.00000000000E+00 0. -1.
         21   -1    0    0  501  502 -0.00000000000E+00 -0.00000000000E+00 -0.12682611030E+03  0.12682611030E+03  0.00000000000E+00 0. -1.
         25    1    1    2    0    0  0.63875892156E+02  0.15414281279E+03  0.52058377209E+03  0.56077856601E+03  0.12500000000E+03 0.  0.
         25    1    1    2    0    0 -0.79288032056E+02 -0.11383981638E+03  0.67076545132E+01  0.18685847171E+03  0.12500000000E+03 0.  0.
         25    1    1    2    0    0  0.15412139900E+02 -0.40302996410E+02  0.24586013996E+03  0.27916674945E+03  0.12500000000E+03 0.  0.
</event>
<event>
 5    0  0.5590591E-005  0.3954721E+03  0.7546771E-02  0.1045359E+00
         21   -1    0    0  502  501  0.00000000000E+00  0.00000000000E+00  0.13474402838E+03  0.13474402838E+03  0.00000000000E+00 0.  1.
         21   -1    0    0  501  502 -0.00000000000E+00 -0.00000000000E+00 -0.11607060890E+04  0.11607060890E+04  0.00000000000E+00 0.  1.
         25    1    1    2    0    0 -0.73501020028E+02  0.62852657314E+02 -0.59422274659E+03  0.61488090639E+03  0.12500000000E+03 0.  0.
         25    1    1    2    0    0  0.96686096584E+01 -0.22077050702E+03 -0.72887782772E+02  0.26414149175E+03  0.12500000000E+03 0.  0.
         25    1    1    2    0    0  0.63832410370E+02  0.15791784971E+03 -0.35885153130E+03  0.41642771928E+03  0.12500000000E+03 0.  0.
</event>
<event>
 5    0  0.5590591E-005  0.3318775E+03  0.7546771E-02  0.1070309E+00
         21   -1    0    0  502  501  0.00000000000E+00  0.00000000000E+00  0.59547379158E+02  0.59547379158E+02  0.00000000000E+00 0. -1.
         21   -1    0    0  501  502 -0.00000000000E+00 -0.00000000000E+00 -0.18496642219E+04  0.18496642219E+04  0.00000000000E+00 0. -1.
         25    1    1    2    0    0 -0.12045459020E+03 -0.77090834149E+02 -0.77973964615E+03  0.80254047922E+03  0.12500000000E+03 0.  0.
         25    1    1    2    0    0  0.58362651100E+02  0.13883631967E+03 -0.89283051321E+03  0.91403120735E+03  0.12500000000E+03 0.  0.
         25    1    1    2    0    0  0.62091939098E+02 -0.61745485526E+02 -0.11754668343E+03  0.19263991453E+03  0.12500000000E+03 0.  0.
</event>
<event>
 5    0  0.5590591E-005  0.3162585E+03  0.7546771E-02  0.1077384E+00
         21   -1    0    0  502  501  0.00000000000E+00  0.00000000000E+00  0.17786494533E+03  0.17786494533E+03  0.00000000000E+00 0. -1.
         21   -1    0    0  501  502 -0.00000000000E+00 -0.00000000000E+00 -0.56233361395E+03  0.56233361395E+03  0.00000000000E+00 0. -1.
         25    1    1    2    0    0  0.11226251864E+03  0.63214801113E+01 -0.59734482079E+01  0.16823648917E+03  0.12500000000E+03 0.  0.
         25    1    1    2    0    0 -0.26148972597E+02 -0.51995727362E+02  0.23472354156E+02  0.13986878080E+03  0.12500000000E+03 0.  0.
         25    1    1    2    0    0 -0.86113546048E+02  0.45674247250E+02 -0.40196757456E+03  0.43209328932E+03  0.12500000000E+03 0.  0.
</event>
<event>
 5    0  0.5590591E-005  0.2118174E+03  0.7546771E-02  0.1140135E+00
         21   -1    0    0  502  501  0.00000000000E+00  0.00000000000E+00  0.66325415187E+03  0.66325415187E+03  0.00000000000E+00 0.  1.
         21   -1    0    0  501  502 -0.00000000000E+00 -0.00000000000E+00 -0.67646180509E+02  0.67646180509E+02  0.00000000000E+00 0.  1.
         25    1    1    2    0    0  0.15146271716E+02  0.62177061154E+00  0.18209896555E+03  0.22139292988E+03  0.12500000000E+03 0.  0.
         25    1    1    2    0    0 -0.41266761681E+02 -0.53179874363E+02  0.29559638732E+03  0.32792265682E+03  0.12500000000E+03 0.  0.
         25    1    1    2    0    0  0.26120489964E+02  0.52558103751E+02  0.11791261849E+03  0.18158474569E+03  0.12500000000E+03 0.  0.
</event>
<event>
 5    0  0.5590591E-005  0.3665526E+03  0.7546771E-02  0.1056019E+00
         21   -1    0    0  502  501  0.00000000000E+00  0.00000000000E+00  0.64132994064E+02  0.64132994064E+02  0.00000000000E+00 0. -1.
         21   -1    0    0  501  502 -0.00000000000E+00 -0.00000000000E+00 -0.20950346222E+04  0.20950346222E+04  0.00000000000E+00 0. -1.
         25    1    1    2    0    0  0.25688620182E+02  0.20526767761E+03 -0.46344231884E+03  0.52268394616E+03  0.12500000000E+03 0.  0.
         25    1    1    2    0    0 -0.17780718024E+03 -0.65653378305E+02 -0.68743452028E+03  0.72395923856E+03  0.12500000000E+03 0.  0.
         25    1    1    2    0    0  0.15211856006E+03 -0.13961429930E+03 -0.88002478899E+03  0.91252443152E+03  0.12500000000E+03 0.  0.
</event>
<event>
 5    0  0.5590591E-005  0.2644346E+03  0.7546771E-02  0.1104508E+00
         21   -1    0    0  502  501  0.00000000000E+00  0.00000000000E+00  0.21827068620E+04  0.21827068620E+04  0.00000000000E+00 0.  1.
         21   -1    0    0  501  502 -0.00000000000E+00 -0.00000000000E+00 -0.32036222555E+02  0.32036222555E+02  0.00000000000E+00 0.  1.
         25    1    1    2    0    0 -0.40871161420E+02  0.50600679187E+01  0.96051433211E+03  0.96948895730E+03  0.12500000000E+03 0.  0.
         25    1    1    2    0    0  0.85192783331E+02  0.93656703213E+02  0.39691715490E+03  0.43496852328E+03  0.12500000000E+03 0.  0.
         25    1    1    2    0    0 -0.44321621911E+02 -0.98716771132E+02  0.79323915243E+03  0.81028560398E+03  0.12500000000E+03 0.  0.
</event>
<event>
 5    0  0.5590591E-005  0.2657831E+03  0.7546771E-02  0.1103718E+00
         21   -1    0    0  502  501  0.00000000000E+00  0.00000000000E+00  0.43047228773E+03  0.43047228773E+03  0.00000000000E+00 0.  1.
         21   -1    0    0  501  502 -0.00000000000E+00 -0.00000000000E+00 -0.16410035215E+03  0.16410035215E+03  0.00000000000E+00 0.  1.
         25    1    1    2    0    0  0.23607876042E+02 -0.46838258779E+02  0.30519483569E+02  0.13895176564E+03  0.12500000000E+03 0.  0.
         25    1    1    2    0    0 -0.58509662609E+02  0.47394054055E+02  0.28229309219E+03  0.31777974586E+03  0.12500000000E+03 0.  0.
         25    1    1    2    0    0  0.34901786567E+02 -0.55579527563E+00 -0.46440640182E+02  0.13784112839E+03  0.12500000000E+03 0.  0.
</event>
<event>
 5    0  0.5590591E-005  0.3562795E+03  0.7546771E-02  0.1060067E+00
         21   -1    0    0  502  501  0.00000000000E+00  0.00000000000E+00  0.27483912341E+03  0.27483912341E+03  0.00000000000E+00 0. -1.
         21   -1    0    0  501  502 -0.00000000000E+00 -0.00000000000E+00 -0.46185221184E+03  0.46185221184E+03  0.00000000000E+00 0. -1.
         25    1    1    2    0    0 -0.64647058037E+02 -0.15787928040E+03 -0.26952539809E+03  0.34259896308E+03  0.12500000000E+03 0.  0.
         25    1    1    2    0    0  0.22653873770E+02  0.21430178856E+02 -0.73600715753E+02  0.14837289484E+03  0.12500000000E+03 0.  0.
         25    1    1    2    0    0  0.41993184267E+02  0.13644910154E+03  0.15611302541E+03  0.24571947733E+03  0.12500000000E+03 0.  0.
</event>
<event>
 5    0  0.5590591E-005  0.2696882E+03  0.7546771E-02  0.1101458E+00
         21   -1    0    0  502  501  0.00000000000E+00  0.00000000000E+00  0.56329507013E+03  0.56329507013E+03  0.00000000000E+00 0. -1.
         21   -1    0    0  501  502 -0.00000000000E+00 -0.00000000000E+00 -0.12911830070E+03  0.12911830070E+03  0.00000000000E+00 0. -1.
         25    1    1    2    0    0 -0.10424479819E+03 -0.20919412353E+02  0.29247638942E+03  0.33536851094E+03  0.12500000000E+03 0.  0.
         25    1    1    2    0    0  0.93486383271E+01  0.10660908727E+02  0.15451199843E+03  0.19924861272E+03  0.12500000000E+03 0.  0.
         25    1    1    2    0    0  0.94896159863E+02  0.10258503626E+02 -0.12811618412E+02  0.15779624717E+03  0.12500000000E+03 0.  0.
</event>
<event>
 5    0  0.5590591E-005  0.8695920E+03  0.7546771E-02  0.9464412E-01
         21   -1    0    0  502  501  0.00000000000E+00  0.00000000000E+00  0.18891477150E+04  0.18891477150E+04  0.00000000000E+00 0. -1.
         21   -1    0    0  501  502 -0.00000000000E+00 -0.00000000000E+00 -0.40028116615E+03  0.40028116615E+03  0.00000000000E+00 0. -1.
         25    1    1    2    0    0 -0.40928498606E+03  0.34248153554E+03 -0.66644079804E+02  0.55215417718E+03  0.12500000000E+03 0.  0.
         25    1    1    2    0    0  0.29244407278E+03  0.71126035899E+02  0.63928014002E+03  0.71755595329E+03  0.12500000000E+03 0.  0.
         25    1    1    2    0    0  0.11684091329E+03 -0.41360757144E+03  0.91623048858E+03  0.10197187506E+04  0.12500000000E+03 0.  0.
</event>
<event>
 5    0  0.5590591E-005  0.3218563E+03  0.7546771E-02  0.1074798E+00
         21   -1    0    0  502  501  0.00000000000E+00  0.00000000000E+00  0.30540537026E+03  0.30540537026E+03  0.00000000000E+00 0.  1.
         21   -1    0    0  501  502 -0.00000000000E+00 -0.00000000000E+00 -0.33919327883E+03  0.33919327883E+03  0.00000000000E+00 0.  1.
         25    1    1    2    0    0  0.36080514146E+02 -0.83380939695E+02 -0.17068954404E+03  0.23024792083E+03  0.12500000000E+03 0.  0.
         25    1    1    2    0    0 -0.18644755345E+02 -0.48029174425E+02  0.18192995954E+03  0.22666702159E+03  0.12500000000E+03 0.  0.
         25    1    1    2    0    0 -0.17435758801E+02  0.13141011412E+03 -0.45028324074E+02  0.18768370666E+03  0.12500000000E+03 0.  0.
</event>
<event>
 5    0  0.5590591E-005  0.3683126E+03  0.7546771E-02  0.1055340E+00
         21   -1    0    0  502  501  0.00000000000E+00  0.00000000000E+00  0.15400948854E+03  0.15400948854E+03  0.00000000000E+00 0.  1.
         21   -1    0    0  501  502 -0.00000000000E+00 -0.00000000000E+00 -0.88081692059E+03  0.88081692059E+03  0.00000000000E+00 0.  1.
         25    1    1    2    0    0 -0.52483645203E+02  0.56752291269E+02 -0.97975680956E+02  0.17663405571E+03  0.12500000000E+03 0.  0.
         25    1    1    2    0    0 -0.94024652445E+02  0.18132236557E+03 -0.12895598070E+03  0.27197992662E+03  0.12500000000E+03 0.  0.
         25    1    1    2    0    0  0.14650829765E+03 -0.23807465684E+03 -0.49987577039E+03  0.58621242680E+03  0.12500000000E+03 0.  0.
</event>
<event>
 5    0  0.9550111E-005  0.5933445E+03  0.7546771E-02  0.9919311E-01
         21   -1    0    0  502  501  0.00000000000E+00  0.00000000000E+00  0.61941974085E+03  0.61941974085E+03  0.00000000000E+00 0.  1.
         21   -1    0    0  501  502 -0.00000000000E+00 -0.00000000000E+00 -0.56836687809E+03  0.56836687809E+03  0.00000000000E+00 0.  1.
         25    1    1    2    0    0  0.44064599296E+02 -0.68393726619E+02 -0.35889666450E+03  0.38865306706E+03  0.12500000000E+03 0.  0.
         25    1    1    2    0    0 -0.28101974388E+03 -0.14653976756E+03  0.17512187558E+03  0.38306483947E+03  0.12500000000E+03 0.  0.
         25    1    1    2    0    0  0.23695514459E+03  0.21493349418E+03  0.23482765166E+03  0.41606871241E+03  0.12500000000E+03 0.  0.
</event>
<event>
 5    0  0.5590591E-005  0.2833787E+03  0.7546771E-02  0.1093858E+00
         21   -1    0    0  502  501  0.00000000000E+00  0.00000000000E+00  0.71012123770E+02  0.71012123770E+02  0.00000000000E+00 0.  1.
         21   -1    0    0  501  502 -0.00000000000E+00 -0.00000000000E+00 -0.11308418513E+04  0.11308418513E+04  0.00000000000E+00 0.  1.
         25    1    1    2    0    0 -0.13303820240E+03 -0.14731297503E+02 -0.77037805852E+03  0.79184817198E+03  0.12500000000E+03 0.  0.
         25    1    1    2    0    0  0.48377038502E+02  0.32987140674E+02 -0.14668315032E+03  0.20141855896E+03  0.12500000000E+03 0.  0.
         25    1    1    2    0    0  0.84661163898E+02 -0.18255843170E+02 -0.14276851867E+03  0.20858724411E+03  0.12500000000E+03 0.  0.
</event>
<event>
 5    0  0.5918261E-005  0.3347061E+03  0.7546771E-02  0.1069073E+00
         21   -1    0    0  502  501  0.00000000000E+00  0.00000000000E+00  0.33852337676E+03  0.33852337676E+03  0.00000000000E+00 0. -1.
         21   -1    0    0  501  502 -0.00000000000E+00 -0.00000000000E+00 -0.33093193056E+03  0.33093193056E+03  0.00000000000E+00 0. -1.
         25    1    1    2    0    0 -0.15056717272E+02  0.12770200915E+03  0.82504098396E+02  0.19739917459E+03  0.12500000000E+03 0.  0.
         25    1    1    2    0    0  0.13031665427E+03  0.79340045885E+02 -0.46491654496E+02  0.20264191866E+03  0.12500000000E+03 0.  0.
         25    1    1    2    0    0 -0.11525993700E+03 -0.20704205504E+03 -0.28420997707E+02  0.26941421407E+03  0.12500000000E+03 0.  0.
</event>
<event>
 5    0  0.5590591E-005  0.2280847E+03  0.7546771E-02  0.1127995E+00
         21   -1    0    0  502  501  0.00000000000E+00  0.00000000000E+00  0.39683880064E+02  0.39683880064E+02  0.00000000000E+00 0.  1.
         21   -1    0    0  501  502 -0.00000000000E+00 -0.00000000000E+00 -0.13109260742E+04  0.13109260742E+04  0.00000000000E+00 0.  1.
         25    1    1    2    0    0  0.37378859810E+02  0.86647896819E+01 -0.54379150009E+03  0.55929102738E+03  0.12500000000E+03 0.  0.
         25    1    1    2    0    0 -0.10156531936E+03  0.51998796867E+01 -0.48112071003E+03  0.50739007722E+03  0.12500000000E+03 0.  0.
         25    1    1    2    0    0  0.64186459549E+02 -0.13864669369E+02 -0.24632998406E+03  0.28392884970E+03  0.12500000000E+03 0.  0.
</event>
<event>
 5    0  0.5590591E-005  0.2067889E+03  0.7546771E-02  0.1144134E+00
         21   -1    0    0  502  501  0.00000000000E+00  0.00000000000E+00  0.64546842636E+02  0.64546842636E+02  0.00000000000E+00 0.  1.
         21   -1    0    0  501  502 -0.00000000000E+00 -0.00000000000E+00 -0.66249029501E+03  0.66249029501E+03  0.00000000000E+00 0.  1.
         25    1    1    2    0    0 -0.16107068508E+02 -0.26448353761E+02 -0.26757865405E+03  0.29695502888E+03  0.12500000000E+03 0.  0.
         25    1    1    2    0    0  0.48675000027E+02 -0.16576703027E+02 -0.12781385723E+03  0.18602533379E+03  0.12500000000E+03 0.  0.
         25    1    1    2    0    0 -0.32567931518E+02  0.43025056789E+02 -0.20255094109E+03  0.24405677497E+03  0.12500000000E+03 0.  0.
</event>
<event>
 5    0  0.6216547E-005  0.4537939E+03  0.7546771E-02  0.1026597E+00
         21   -1    0    0  502  501  0.00000000000E+00  0.00000000000E+00  0.79647696435E+03  0.79647696435E+03  0.00000000000E+00 0.  1.
         21   -1    0    0  501  502 -0.00000000000E+00 -0.00000000000E+00 -0.25854969589E+03  0.25854969589E+03  0.00000000000E+00 0.  1.
         25    1    1    2    0    0 -0.30679388443E+03  0.11611023648E+02  0.31445276286E+03  0.45690572711E+03  0.12500000000E+03 0.  0.
         25    1    1    2    0    0  0.13638353893E+03  0.58734962862E+02  0.30449828227E+03  0.36110174392E+03  0.12500000000E+03 0.  0.
         25    1    1    2    0    0  0.17041034549E+03 -0.70345986510E+02 -0.81023776678E+02  0.23701918922E+03  0.12500000000E+03 0.  0.
</event>
<event>
 5    0  0.5590591E-005  0.3234342E+03  0.7546771E-02  0.1074080E+00
         21   -1    0    0  502  501  0.00000000000E+00  0.00000000000E+00  0.38310860786E+03  0.38310860786E+03  0.00000000000E+00 0.  1.
         21   -1    0    0  501  502 -0.00000000000E+00 -0.00000000000E+00 -0.27305485462E+03  0.27305485462E+03  0.00000000000E+00 0.  1.
         25    1    1    2    0    0  0.13165755423E+03 -0.27396291352E+02 -0.11536371679E+02  0.18396292082E+03  0.12500000000E+03 0.  0.
         25    1    1    2    0    0 -0.81447869648E+01  0.11811652444E+03  0.19601842227E+03  0.26089475420E+03  0.12500000000E+03 0.  0.
         25    1    1    2    0    0 -0.12351276727E+03 -0.90720233088E+02 -0.74428297350E+02  0.21130578746E+03  0.12500000000E+03 0.  0.
</event>
<event>
 5    0  0.5590591E-005  0.3143175E+03  0.7546771E-02  0.1078295E+00
         21   -1    0    0  502  501  0.00000000000E+00  0.00000000000E+00  0.10597879161E+04  0.10597879161E+04  0.00000000000E+00 0. -1.
         21   -1    0    0  501  502 -0.00000000000E+00 -0.00000000000E+00 -0.93221961162E+02  0.93221961162E+02  0.00000000000E+00 0. -1.
         25    1    1    2    0    0 -0.55605239824E+02 -0.14242065524E+03  0.14029235253E+03  0.24224477272E+03  0.12500000000E+03 0.  0.
         25    1    1    2    0    0  0.51732103098E+02  0.61201328799E+02  0.12584107781E+03  0.19463501741E+03  0.12500000000E+03 0.  0.
         25    1    1    2    0    0  0.38731367255E+01  0.81219326438E+02  0.70043252464E+03  0.71613008717E+03  0.12500000000E+03 0.  0.
</event>
<event>
 5    0  0.5590591E-005  0.5723225E+03  0.7546771E-02  0.9964552E-01
         21   -1    0    0  502  501  0.00000000000E+00  0.00000000000E+00  0.35632477407E+03  0.35632477407E+03  0.00000000000E+00 0. -1.
         21   -1    0    0  501  502 -0.00000000000E+00 -0.00000000000E+00 -0.91925421728E+03  0.91925421728E+03  0.00000000000E+00 0. -1.
         25    1    1    2    0    0  0.34908740618E+03 -0.18227820300E+03 -0.57876737550E+03  0.71111464293E+03  0.12500000000E+03 0.  0.
         25    1    1    2    0    0 -0.18438598975E+03  0.25534809030E+03  0.49982458728E+02  0.34252603787E+03  0.12500000000E+03 0.  0.
         25    1    1    2    0    0 -0.16470141643E+03 -0.73069887303E+02 -0.34144526430E+02  0.22193831055E+03  0.12500000000E+03 0.  0.
</event>
<event>
 5    0  0.5590591E-005  0.3984602E+03  0.7546771E-02  0.1044314E+00
         21   -1    0    0  502  501  0.00000000000E+00  0.00000000000E+00  0.15219825401E+03  0.15219825401E+03  0.00000000000E+00 0.  1.
         21   -1    0    0  501  502 -0.00000000000E+00 -0.00000000000E+00 -0.10431824168E+04  0.10431824168E+04  0.00000000000E+00 0.  1.
         25    1    1    2    0    0  0.18511749643E+01  0.29027063656E+02 -0.34719699762E+03  0.37015773993E+03  0.12500000000E+03 0.  0.
         25    1    1    2    0    0 -0.25693565460E+03 -0.52292822803E+02 -0.42871539765E+03  0.51785361069E+03  0.12500000000E+03 0.  0.
         25    1    1    2    0    0  0.25508447963E+03  0.23265759147E+02 -0.11507176747E+03  0.30736932015E+03  0.12500000000E+03 0.  0.
</event>
<event>
 5    0  0.5590591E-005  0.2961049E+03  0.7546771E-02  0.1087204E+00
         21   -1    0    0  502  501  0.00000000000E+00  0.00000000000E+00  0.15765427664E+03  0.15765427664E+03  0.00000000000E+00 0. -1.
         21   -1    0    0  501  502 -0.00000000000E+00 -0.00000000000E+00 -0.55614163512E+03  0.55614163512E+03  0.00000000000E+00 0. -1.
         25    1    1    2    0    0  0.14875889627E+02  0.46767025610E+02 -0.14781306548E+03  0.19970515542E+03  0.12500000000E+03 0.  0.
         25    1    1    2    0    0 -0.72416550913E+02 -0.13326641378E+03  0.20840111785E+02  0.19764464108E+03  0.12500000000E+03 0.  0.
         25    1    1    2    0    0  0.57540661286E+02  0.86499388170E+02 -0.27151440478E+03  0.31644611526E+03  0.12500000000E+03 0.  0.
</event>
<event>
 5    0  0.5590591E-005  0.3760656E+03  0.7546771E-02  0.1052398E+00
         21   -1    0    0  502  501  0.00000000000E+00  0.00000000000E+00  0.14283361202E+03  0.14283361202E+03  0.00000000000E+00 0.  1.
         21   -1    0    0  501  502 -0.00000000000E+00 -0.00000000000E+00 -0.99014029256E+03  0.99014029256E+03  0.00000000000E+00 0.  1.
         25    1    1    2    0    0  0.16405521490E+03 -0.21253273096E+03 -0.53186696710E+03  0.60876247088E+03  0.12500000000E+03 0.  0.
         25    1    1    2    0    0 -0.18026493735E+03  0.17267478083E+03 -0.25778754835E+03  0.37998874675E+03  0.12500000000E+03 0.  0.
         25    1    1    2    0    0  0.16209722452E+02  0.39857950121E+02 -0.57652165093E+02  0.14422268695E+03  0.12500000000E+03 0.  0.
</event>
<event>
 5    0  0.5590591E-005  0.3029189E+03  0.7546771E-02  0.1083790E+00
         21   -1    0    0  502  501  0.00000000000E+00  0.00000000000E+00  0.14931849999E+03  0.14931849999E+03  0.00000000000E+00 0. -1.
         21   -1    0    0  501  502 -0.00000000000E+00 -0.00000000000E+00 -0.61452456356E+03  0.61452456356E+03  0.00000000000E+00 0. -1.
         25    1    1    2    0    0  0.19307547566E+03  0.85352235846E+02 -0.11227646110E+03  0.26980390506E+03  0.12500000000E+03 0.  0.
         25    1    1    2    0    0 -0.11847450798E+03 -0.67887763450E+01 -0.23253941030E+03  0.28945098699E+03  0.12500000000E+03 0.  0.
         25    1    1    2    0    0 -0.74600967685E+02 -0.78563459501E+02 -0.12039019217E+03  0.20458817150E+03  0.12500000000E+03 0.  0.
</event>
<event>
 5    0  0.5590591E-005  0.2991391E+03  0.7546771E-02  0.1085672E+00
         21   -1    0    0  502  501  0.00000000000E+00  0.00000000000E+00  0.29406189713E+03  0.29406189713E+03  0.00000000000E+00 0.  1.
         21   -1    0    0  501  502 -0.00000000000E+00 -0.00000000000E+00 -0.30430391163E+03  0.30430391163E+03  0.00000000000E+00 0.  1.
         25    1    1    2    0    0  0.15277392803E+03  0.10731003987E+03 -0.74583207488E+01  0.22480201132E+03  0.12500000000E+03 0.  0.
         25    1    1    2    0    0 -0.15365624654E+03 -0.95220235715E+02 -0.70597606419E+02  0.23083794624E+03  0.12500000000E+03 0.  0.
         25    1    1    2    0    0  0.88231851074E+00 -0.12089804151E+02  0.67813912676E+02  0.14272585121E+03  0.12500000000E+03 0.  0.
</event>
<event>
 5    0  0.5782952E-005  0.3874916E+03  0.7546771E-02  0.1048199E+00
         21   -1    0    0  502  501  0.00000000000E+00  0.00000000000E+00  0.30723919062E+03  0.30723919062E+03  0.00000000000E+00 0. -1.
         21   -1    0    0  501  502 -0.00000000000E+00 -0.00000000000E+00 -0.48870634562E+03  0.48870634562E+03  0.00000000000E+00 0. -1.
         25    1    1    2    0    0  0.12925535470E+03  0.19833349138E+03 -0.11537606301E+02  0.26795752813E+03  0.12500000000E+03 0.  0.
         25    1    1    2    0    0 -0.31614631764E+02 -0.11913235219E+03  0.10225352111E+03  0.20315704482E+03  0.12500000000E+03 0.  0.
         25    1    1    2    0    0 -0.97640722931E+02 -0.79201139189E+02 -0.27218306981E+03  0.32483096330E+03  0.12500000000E+03 0.  0.
</event>
<event>
 5    0  0.5590591E-005  0.3219847E+03  0.7546771E-02  0.1074740E+00
         21   -1    0    0  502  501  0.00000000000E+00  0.00000000000E+00  0.11220287500E+04  0.11220287500E+04  0.00000000000E+00 0.  1.
         21   -1    0    0  501  502 -0.00000000000E+00 -0.00000000000E+00 -0.92398818690E+02  0.92398818690E+02  0.00000000000E+00 0.  1.
         25    1    1    2    0    0 -0.47074591115E+02  0.88365931233E+02  0.50866784883E+03  0.53328466635E+03  0.12500000000E+03 0.  0.
         25    1    1    2    0    0  0.17881286565E+03 -0.10807901150E+03  0.37597985084E+03  0.44792963943E+03  0.12500000000E+03 0.  0.
         25    1    1    2    0    0 -0.13173827453E+03  0.19713080263E+02  0.14498223168E+03  0.23321326294E+03  0.12500000000E+03 0.  0.
</event>
<event>
 5    0  0.5590591E-005  0.2851792E+03  0.7546771E-02  0.1092893E+00
         21   -1    0    0  502  501  0.00000000000E+00  0.00000000000E+00  0.52492030903E+03  0.52492030903E+03  0.00000000000E+00 0.  1.
         21   -1    0    0  501  502 -0.00000000000E+00 -0.00000000000E+00 -0.15493237988E+03  0.15493237988E+03  0.00000000000E+00 0.  1.
         25    1    1    2    0    0 -0.60823148246E+02 -0.31208291355E+02  0.33808084066E+03  0.36687473016E+03  0.12500000000E+03 0.  0.
         25    1    1    2    0    0  0.65011658245E+02 -0.47758104971E+02 -0.31465871692E+02  0.15206068979E+03  0.12500000000E+03 0.  0.
         25    1    1    2    0    0 -0.41885099992E+01  0.78966396326E+02  0.63372960193E+02  0.16091726896E+03  0.12500000000E+03 0.  0.
</event>
<event>
 5    0  0.5590591E-005  0.3097146E+03  0.7546771E-02  0.1080483E+00
         21   -1    0    0  502  501  0.00000000000E+00  0.00000000000E+00  0.73900094211E+03  0.73900094211E+03  0.00000000000E+00 0. -1.
         21   -1    0    0  501  502 -0.00000000000E+00 -0.00000000000E+00 -0.12980112778E+03  0.12980112778E+03  0.00000000000E+00 0. -1.
         25    1    1    2    0    0 -0.14381714410E+02 -0.25666274775E+02  0.34443001815E+02  0.13295454766E+03  0.12500000000E+03 0.  0.
         25    1    1    2    0    0 -0.16374549157E+03 -0.65728877556E+02  0.34012527451E+03  0.40304227287E+03  0.12500000000E+03 0.  0.
         25    1    1    2    0    0  0.17812720598E+03  0.91395152331E+02  0.23463153800E+03  0.33280524937E+03  0.12500000000E+03 0.  0.
</event>
<event>
 5    0  0.5590591E-005  0.2774943E+03  0.7546771E-02  0.1097065E+00
         21   -1    0    0  502  501  0.00000000000E+00  0.00000000000E+00  0.15013005423E+03  0.15013005423E+03  0.00000000000E+00 0. -1.
         21   -1    0    0  501  502 -0.00000000000E+00 -0.00000000000E+00 -0.51290914897E+03  0.51290914897E+03  0.00000000000E+00 0. -1.
         25    1    1    2    0    0 -0.11938849847E+03  0.81699911687E+02 -0.22142440518E+03  0.29254445191E+03  0.12500000000E+03 0.  0.
         25    1    1    2    0    0  0.52528362453E+02  0.20320663545E+02  0.12591317327E+02  0.13767969894E+03  0.12500000000E+03 0.  0.
         25    1    1    2    0    0  0.66860136016E+02 -0.10202057523E+03 -0.15394600690E+03  0.23281505234E+03  0.12500000000E+03 0.  0.
</event>
<event>
 5    0  0.5590591E-005  0.4000731E+03  0.7546771E-02  0.1043754E+00
         21   -1    0    0  502  501  0.00000000000E+00  0.00000000000E+00  0.38733687196E+03  0.38733687196E+03  0.00000000000E+00 0. -1.
         21   -1    0    0  501  502 -0.00000000000E+00 -0.00000000000E+00 -0.41322805730E+03  0.41322805730E+03  0.00000000000E+00 0. -1.
         25    1    1    2    0    0 -0.58359896834E+02  0.35949184416E+02 -0.26981523344E+02  0.14509039948E+03  0.12500000000E+03 0.  0.
         25    1    1    2    0    0 -0.26522226105E+03 -0.63039585165E+02  0.50224518575E+02  0.30407949507E+03  0.12500000000E+03 0.  0.
         25    1    1    2    0    0  0.32358215789E+03  0.27090400749E+02 -0.49134180577E+02  0.35139503471E+03  0.12500000000E+03 0.  0.
</event>
<event>
 5    0  0.5590591E-005  0.2649842E+03  0.7546771E-02  0.1104185E+00
         21   -1    0    0  502  501  0.00000000000E+00  0.00000000000E+00  0.82603242905E+02  0.82603242905E+02  0.00000000000E+00 0. -1.
         21   -1    0    0  501  502 -0.00000000000E+00 -0.00000000000E+00 -0.85004709578E+03  0.85004709578E+03  0.00000000000E+00 0. -1.
         25    1    1    2    0    0  0.66570502610E+02  0.70743363199E+02 -0.19411372324E+03  0.25048232035E+03  0.12500000000E+03 0.  0.
         25    1    1    2    0    0 -0.11842652382E+03 -0.97366412883E+02 -0.18800631948E+03  0.27290371208E+03  0.12500000000E+03 0.  0.
         25    1    1    2    0    0  0.51856021206E+02  0.26623049684E+02 -0.38532381015E+03  0.40926430626E+03  0.12500000000E+03 0.  0.
</event>
<event>
 5    0  0.5590591E-005  0.2992263E+03  0.7546771E-02  0.1085628E+00
         21   -1    0    0  502  501  0.00000000000E+00  0.00000000000E+00  0.48805969639E+03  0.48805969639E+03  0.00000000000E+00 0. -1.
         21   -1    0    0  501  502 -0.00000000000E+00 -0.00000000000E+00 -0.18345377093E+03  0.18345377093E+03  0.00000000000E+00 0. -1.
         25    1    1    2    0    0 -0.70020399831E+02  0.73695166649E+02 -0.49554383002E+02  0.16856592436E+03  0.12500000000E+03 0.  0.
         25    1    1    2    0    0 -0.54741915914E+01 -0.54195587986E+02  0.20077863484E+02  0.13782325324E+03  0.12500000000E+03 0.  0.
         25    1    1    2    0    0  0.75494591423E+02 -0.19499578663E+02  0.33408244498E+03  0.36512428973E+03  0.12500000000E+03 0.  0.
</event>
<event>
 5    0  0.5590591E-005  0.4568172E+03  0.7546771E-02  0.1025708E+00
         21   -1    0    0  502  501  0.00000000000E+00  0.00000000000E+00  0.43243219258E+03  0.43243219258E+03  0.00000000000E+00 0.  1.
         21   -1    0    0  501  502 -0.00000000000E+00 -0.00000000000E+00 -0.48257734449E+03  0.48257734449E+03  0.00000000000E+00 0.  1.
         25    1    1    2    0    0 -0.27562562897E+02 -0.18035682095E+03  0.35279589197E+02  0.22395965518E+03  0.12500000000E+03 0.  0.
         25    1    1    2    0    0  0.31512448236E+03  0.14969906931E+03 -0.52268151043E+02  0.37425954944E+03  0.12500000000E+03 0.  0.
         25    1    1    2    0    0 -0.28756191947E+03  0.30657751635E+02 -0.33156590066E+02  0.31679033244E+03  0.12500000000E+03 0.  0.
</event>
<event>
 5    0  0.5590591E-005  0.3492483E+03  0.7546771E-02  0.1062924E+00
         21   -1    0    0  502  501  0.00000000000E+00  0.00000000000E+00  0.15580892126E+03  0.15580892126E+03  0.00000000000E+00 0.  1.
         21   -1    0    0  501  502 -0.00000000000E+00 -0.00000000000E+00 -0.78284599417E+03  0.78284599417E+03  0.00000000000E+00 0.  1.
         25    1    1    2    0    0 -0.20352257364E+02 -0.76766242942E+02 -0.37261406922E+03  0.40096572798E+03  0.12500000000E+03 0.  0.
         25    1    1    2    0    0 -0.15504867583E+03 -0.70653820895E+02 -0.13415189848E+03  0.25030738333E+03  0.12500000000E+03 0.  0.
         25    1    1    2    0    0  0.17540093319E+03  0.14742006384E+03 -0.12027110521E+03  0.28738180411E+03  0.12500000000E+03 0.  0.
</event>
<event>
 5    0  0.5590591E-005  0.3046670E+03  0.7546771E-02  0.1082931E+00
         21   -1    0    0  502  501  0.00000000000E+00  0.00000000000E+00  0.11045759716E+04  0.11045759716E+04  0.00000000000E+00 0. -1.
         21   -1    0    0  501  502 -0.00000000000E+00 -0.00000000000E+00 -0.84034063652E+02  0.84034063652E+02  0.00000000000E+00 0. -1.
         25    1    1    2    0    0  0.32624634606E+02  0.16026204040E+02  0.12509229153E+02  0.13077724119E+03  0.12500000000E+03 0.  0.
         25    1    1    2    0    0  0.49784346621E+02 -0.34323391611E+02  0.26012657023E+03  0.29486846037E+03  0.12500000000E+03 0.  0.
         25    1    1    2    0    0 -0.82408981227E+02  0.18297187572E+02  0.74790610852E+03  0.76296433365E+03  0.12500000000E+03 0.  0.
</event>
<event>
 5    0  0.5590591E-005  0.2647806E+03  0.7546771E-02  0.1104305E+00
         21   -1    0    0  502  501  0.00000000000E+00  0.00000000000E+00  0.91143329106E+02  0.91143329106E+02  0.00000000000E+00 0. -1.
         21   -1    0    0  501  502 -0.00000000000E+00 -0.00000000000E+00 -0.76921445273E+03  0.76921445273E+03  0.00000000000E+00 0. -1.
         25    1    1    2    0    0 -0.78886995424E+02 -0.19579846459E+02 -0.14416080531E+03  0.20739784527E+03  0.12500000000E+03 0.  0.
         25    1    1    2    0    0  0.31937405833E+02  0.16310057331E+02 -0.49793149624E+03  0.51463267562E+03  0.12500000000E+03 0.  0.
         25    1    1    2    0    0  0.46949589590E+02  0.32697891276E+01 -0.35978822065E+02  0.13832726095E+03  0.12500000000E+03 0.  0.
</event>
<event>
 5    0  0.5590591E-005  0.2402080E+03  0.7546771E-02  0.1119654E+00
         21   -1    0    0  502  501  0.00000000000E+00  0.00000000000E+00  0.13865173908E+03  0.13865173908E+03  0.00000000000E+00 0. -1.
         21   -1    0    0  501  502 -0.00000000000E+00 -0.00000000000E+00 -0.41614973399E+03  0.41614973399E+03  0.00000000000E+00 0. -1.
         25    1    1    2    0    0  0.87845907788E+02 -0.34186070976E+02  0.74621231472E+01  0.15673632076E+03  0.12500000000E+03 0.  0.
         25    1    1    2    0    0 -0.55651414735E+02  0.15423766397E+02 -0.93665048621E+02  0.16653262102E+03  0.12500000000E+03 0.  0.
         25    1    1    2    0    0 -0.32194493053E+02  0.18762304579E+02 -0.19129506943E+03  0.23153253129E+03  0.12500000000E+03 0.  0.
</event>
<event>
 5    0  0.5590591E-005  0.2815318E+03  0.7546771E-02  0.1094855E+00
         21   -1    0    0  502  501  0.00000000000E+00  0.00000000000E+00  0.26453579946E+03  0.26453579946E+03  0.00000000000E+00 0.  1.
         21   -1    0    0  501  502 -0.00000000000E+00 -0.00000000000E+00 -0.29961976205E+03  0.29961976205E+03  0.00000000000E+00 0.  1.
         25    1    1    2    0    0 -0.47248457851E+02 -0.11339222018E+03  0.50368267713E+02  0.18235178848E+03  0.12500000000E+03 0.  0.
         25    1    1    2    0    0  0.41723373955E+02 -0.24757088369E+02 -0.13361529236E+03  0.18929289398E+03  0.12500000000E+03 0.  0.
         25    1    1    2    0    0  0.55250838966E+01  0.13814930855E+03  0.48163062058E+02  0.19251087905E+03  0.12500000000E+03 0.  0.
</event>
<event>
 5    0  0.5590591E-005  0.3541050E+03  0.7546771E-02  0.1060943E+00
         21   -1    0    0  502  501  0.00000000000E+00  0.00000000000E+00  0.73519911192E+03  0.73519911192E+03  0.00000000000E+00 0.  1.
         21   -1    0    0  501  502 -0.00000000000E+00 -0.00000000000E+00 -0.17055296202E+03  0.17055296202E+03  0.00000000000E+00 0.  1.
         25    1    1    2    0    0  0.17832046307E+03 -0.31295135770E+02  0.37564028067E+02  0.22318967108E+03  0.12500000000E+03 0.  0.
         25    1    1    2    0    0 -0.15703225928E+03  0.15686423139E+03  0.29392623315E+03  0.38895134410E+03  0.12500000000E+03 0.  0.
         25    1    1    2    0    0 -0.21288203790E+02 -0.12556909562E+03  0.23315588868E+03  0.29361105875E+03  0.12500000000E+03 0.  0.
</event>
<event>
 5    0  0.5590591E-005  0.2633348E+03  0.7546771E-02  0.1105156E+00
         21   -1    0    0  502  501  0.00000000000E+00  0.00000000000E+00  0.60355365713E+03  0.60355365713E+03  0.00000000000E+00 0. -1.
         21   -1    0    0  501  502 -0.00000000000E+00 -0.00000000000E+00 -0.11489483442E+03  0.11489483442E+03  0.00000000000E+00 0. -1.
         25    1    1    2    0    0  0.47588412368E+02  0.12416398807E+03  0.18806795007E+03  0.26206088370E+03  0.12500000000E+03 0.  0.
         25    1    1    2    0    0 -0.48256317896E+02 -0.11176447798E+03  0.27879631353E+03  0.32889566004E+03  0.12500000000E+03 0.  0.
         25    1    1    2    0    0  0.66790552772E+00 -0.12399510087E+02  0.21794559118E+02  0.12749194781E+03  0.12500000000E+03 0.  0.
</event>
<event>
 5    0  0.5590591E-005  0.2347528E+03  0.7546771E-02  0.1123339E+00
         21   -1    0    0  502  501  0.00000000000E+00  0.00000000000E+00  0.48993037547E+03  0.48993037547E+03  0.00000000000E+00 0.  1.
         21   -1    0    0  501  502 -0.00000000000E+00 -0.00000000000E+00 -0.11248312080E+03  0.11248312080E+03  0.00000000000E+00 0.  1.
         25    1    1    2    0    0  0.34175343421E+02  0.71801967439E+01  0.27709437870E+03  0.30598333946E+03  0.12500000000E+03 0.  0.
         25    1    1    2    0    0 -0.40092763569E+02  0.12251824448E+02 -0.46444988326E+01  0.13192463099E+03  0.12500000000E+03 0.  0.
         25    1    1    2    0    0  0.59174201477E+01 -0.19432021192E+02  0.10499737480E+03  0.16450552581E+03  0.12500000000E+03 0.  0.
</event>
<event>
 5    0  0.5590591E-005  0.2711174E+03  0.7546771E-02  0.1100642E+00
         21   -1    0    0  502  501  0.00000000000E+00  0.00000000000E+00  0.39470389142E+02  0.39470389142E+02  0.00000000000E+00 0. -1.
         21   -1    0    0  501  502 -0.00000000000E+00 -0.00000000000E+00 -0.18622724518E+04  0.18622724518E+04  0.00000000000E+00 0. -1.
         25    1    1    2    0    0 -0.11810887157E+03  0.86429592467E+01 -0.55359057869E+03  0.57975161501E+03  0.12500000000E+03 0.  0.
         25    1    1    2    0    0 -0.45188322182E+02 -0.52115752872E+01 -0.78064494948E+03  0.79189688857E+03  0.12500000000E+03 0.  0.
         25    1    1    2    0    0  0.16329719375E+03 -0.34313839596E+01 -0.48856653443E+03  0.53009433731E+03  0.12500000000E+03 0.  0.
</event>
<event>
 5    0  0.5590591E-005  0.2420597E+03  0.7546771E-02  0.1118428E+00
         21   -1    0    0  502  501  0.00000000000E+00  0.00000000000E+00  0.16204809590E+04  0.16204809590E+04  0.00000000000E+00 0.  1.
         21   -1    0    0  501  502 -0.00000000000E+00 -0.00000000000E+00 -0.36157720854E+02  0.36157720854E+02  0.00000000000E+00 0.  1.
         25    1    1    2    0    0 -0.41859952012E+02 -0.33208173671E+02  0.56114418249E+03  0.57737581515E+03  0.12500000000E+03 0.  0.
         25    1    1    2    0    0 -0.15957225000E+02  0.26776290855E+02  0.84091203072E+03  0.85072301379E+03  0.12500000000E+03 0.  0.
         25    1    1    2    0    0  0.57817177012E+02  0.64318828160E+01  0.18226702492E+03  0.22853985090E+03  0.12500000000E+03 0.  0.
</event>
<event>
 5    0  0.5590591E-005  0.4877290E+03  0.7546771E-02  0.1017032E+00
         21   -1    0    0  502  501  0.00000000000E+00  0.00000000000E+00  0.52730999386E+03  0.52730999386E+03  0.00000000000E+00 0.  1.
         21   -1    0    0  501  502 -0.00000000000E+00 -0.00000000000E+00 -0.45111900919E+03  0.45111900919E+03  0.00000000000E+00 0.  1.
         25    1    1    2    0    0  0.17226925135E+02 -0.10643123012E+03 -0.80061061509E+02  0.18346429425E+03  0.12500000000E+03 0.  0.
         25    1    1    2    0    0 -0.67095643929E+02  0.41562678722E+03  0.53362152484E+02  0.44240249887E+03  0.12500000000E+03 0.  0.
         25    1    1    2    0    0  0.49868718794E+02 -0.30919555710E+03  0.10288989369E+03  0.35256220993E+03  0.12500000000E+03 0.  0.
</event>
<event>
 5    0  0.6917367E-005  0.2892297E+03  0.7546771E-02  0.1090752E+00
         21   -1    0    0  502  501  0.00000000000E+00  0.00000000000E+00  0.33995902503E+03  0.33995902503E+03  0.00000000000E+00 0.  1.
         21   -1    0    0  501  502 -0.00000000000E+00 -0.00000000000E+00 -0.24607025572E+03  0.24607025572E+03  0.00000000000E+00 0.  1.
         25    1    1    2    0    0  0.29340444470E+02 -0.73167818595E+02  0.12395176538E+03  0.19288191076E+03  0.12500000000E+03 0.  0.
         25    1    1    2    0    0  0.86639051732E+02 -0.23720085414E+02  0.74371642328E+02  0.17095352854E+03  0.12500000000E+03 0.  0.
         25    1    1    2    0    0 -0.11597949620E+03  0.96887904009E+02 -0.10443463839E+03  0.22219384145E+03  0.12500000000E+03 0.  0.
</event>
<event>
 5    0  0.5590591E-005  0.3229915E+03  0.7546771E-02  0.1074281E+00
         21   -1    0    0  502  501  0.00000000000E+00  0.00000000000E+00  0.23948212137E+03  0.23948212137E+03  0.00000000000E+00 0. -1.
         21   -1    0    0  501  502 -0.00000000000E+00 -0.00000000000E+00 -0.43562115244E+03  0.43562115244E+03  0.00000000000E+00 0. -1.
         25    1    1    2    0    0 -0.15129585356E+03 -0.27755659041E+02 -0.19569290558E+03  0.27853460325E+03  0.12500000000E+03 0.  0.
         25    1    1    2    0    0  0.74965679982E+01  0.12582556298E+03  0.30285174965E+02  0.18008459860E+03  0.12500000000E+03 0.  0.
         25    1    1    2    0    0  0.14379928556E+03 -0.98069903937E+02 -0.30731300454E+02  0.21648407196E+03  0.12500000000E+03 0.  0.
</event>
<event>
 5    0  0.5590591E-005  0.2088064E+03  0.7546771E-02  0.1142515E+00
         21   -1    0    0  502  501  0.00000000000E+00  0.00000000000E+00  0.14255676644E+03  0.14255676644E+03  0.00000000000E+00 0.  1.
         21   -1    0    0  501  502 -0.00000000000E+00 -0.00000000000E+00 -0.30584381483E+03  0.30584381483E+03  0.00000000000E+00 0.  1.
         25    1    1    2    0    0 -0.13523842463E+02  0.61672226833E+02 -0.65267112193E+02  0.15450292493E+03  0.12500000000E+03 0.  0.
         25    1    1    2    0    0 -0.91367178944E+01  0.18252557822E+02 -0.37764122490E+02  0.13216567039E+03  0.12500000000E+03 0.  0.
         25    1    1    2    0    0  0.22660560357E+02 -0.79924784655E+02 -0.60255813704E+02  0.16173198596E+03  0.12500000000E+03 0.  0.
</event>
<event>
 5    0  0.5590591E-005  0.3283785E+03  0.7546771E-02  0.1071857E+00
         21   -1    0    0  502  501  0.00000000000E+00  0.00000000000E+00  0.13356852897E+03  0.13356852897E+03  0.00000000000E+00 0. -1.
         21   -1    0    0  501  502 -0.00000000000E+00 -0.00000000000E+00 -0.80731920092E+03  0.80731920092E+03  0.00000000000E+00 0. -1.
         25    1    1    2    0    0 -0.54947556067E+02  0.80938266640E+01 -0.46997680464E+02  0.14463238198E+03  0.12500000000E+03 0.  0.
         25    1    1    2    0    0 -0.14485392592E+03 -0.40619409036E+01 -0.93008457276E+02  0.21277859936E+03  0.12500000000E+03 0.  0.
         25    1    1    2    0    0  0.19980148199E+03 -0.40318857604E+01 -0.53374453421E+03  0.58347674856E+03  0.12500000000E+03 0.  0.
</event>
<event>
 5    0  0.5590591E-005  0.3505790E+03  0.7546771E-02  0.1062378E+00
         21   -1    0    0  502  501  0.00000000000E+00  0.00000000000E+00  0.11079819152E+03  0.11079819152E+03  0.00000000000E+00 0. -1.
         21   -1    0    0  501  502 -0.00000000000E+00 -0.00000000000E+00 -0.11092747605E+04  0.11092747605E+04  0.00000000000E+00 0. -1.
         25    1    1    2    0    0 -0.80336953239E+02  0.86482273011E+02  0.73268679726E+01  0.17208106402E+03  0.12500000000E+03 0.  0.
         25    1    1    2    0    0 -0.92128164564E+01 -0.31576664940E+02 -0.50304203950E+03  0.51938257119E+03  0.12500000000E+03 0.  0.
         25    1    1    2    0    0  0.89549769696E+02 -0.54905608071E+02 -0.50276139749E+03  0.52860931684E+03  0.12500000000E+03 0.  0.
</event>
<event>
 5    0  0.5590591E-005  0.2013452E+03  0.7546771E-02  0.1148609E+00
         21   -1    0    0  502  501  0.00000000000E+00  0.00000000000E+00  0.21751005244E+04  0.21751005244E+04  0.00000000000E+00 0. -1.
         21   -1    0    0  501  502 -0.00000000000E+00 -0.00000000000E+00 -0.18638162098E+02  0.18638162098E+02  0.00000000000E+00 0. -1.
         25    1    1    2    0    0  0.23778755768E+02 -0.10568497499E+01  0.58947310404E+03  0.60305065007E+03  0.12500000000E+03 0.  0.
         25    1    1    2    0    0 -0.64205804367E+01  0.53593550661E+02  0.72500358399E+03  0.73767790351E+03  0.12500000000E+03 0.  0.
         25    1    1    2    0    0 -0.17358175331E+02 -0.52536700911E+02  0.84198567430E+03  0.85301013295E+03  0.12500000000E+03 0.  0.
</event>
<event>
 5    0  0.5590591E-005  0.3523313E+03  0.7546771E-02  0.1061662E+00
         21   -1    0    0  502  501  0.00000000000E+00  0.00000000000E+00  0.12920829811E+03  0.12920829811E+03  0.00000000000E+00 0. -1.
         21   -1    0    0  501  502 -0.00000000000E+00 -0.00000000000E+00 -0.96075344969E+03  0.96075344969E+03  0.00000000000E+00 0. -1.
         25    1    1    2    0    0 -0.18094993518E+03 -0.16965040229E+03 -0.37333452870E+03  0.46532548648E+03  0.12500000000E+03 0.  0.
         25    1    1    2    0    0  0.15836360614E+03  0.20965015552E+03 -0.30186706641E+03  0.41926238234E+03  0.12500000000E+03 0.  0.
         25    1    1    2    0    0  0.22586329040E+02 -0.39999753229E+02 -0.15634355647E+03  0.20537387898E+03  0.12500000000E+03 0.  0.
</event>
<event>
 5    0  0.5590591E-005  0.5365478E+03  0.7546771E-02  0.1004656E+00
         21   -1    0    0  502  501  0.00000000000E+00  0.00000000000E+00  0.91518524248E+03  0.91518524248E+03  0.00000000000E+00 0.  1.
         21   -1    0    0  501  502 -0.00000000000E+00 -0.00000000000E+00 -0.31456309681E+03  0.31456309681E+03  0.00000000000E+00 0.  1.
         25    1    1    2    0    0 -0.58213119765E+02 -0.46792227979E+03  0.34392726729E+03  0.59686765067E+03  0.12500000000E+03 0.  0.
         25    1    1    2    0    0  0.19026075300E+02  0.36858118037E+03  0.92434866111E+02  0.40047881659E+03  0.12500000000E+03 0.  0.
         25    1    1    2    0    0  0.39187044465E+02  0.99341099422E+02  0.16426001227E+03  0.23240187202E+03  0.12500000000E+03 0.  0.
</event>
<event>
 5    0  0.5590591E-005  0.3605548E+03  0.7546771E-02  0.1058364E+00
         21   -1    0    0  502  501  0.00000000000E+00  0.00000000000E+00  0.97785051457E+03  0.97785051457E+03  0.00000000000E+00 0. -1.
         21   -1    0    0  501  502 -0.00000000000E+00 -0.00000000000E+00 -0.13294438814E+03  0.13294438814E+03  0.00000000000E+00 0. -1.
         25    1    1    2    0    0 -0.99832757577E+01  0.79157297828E+01  0.34552010538E+03  0.36765672549E+03  0.12500000000E+03 0.  0.
         25    1    1    2    0    0  0.77993318091E+02 -0.14469437526E+03  0.37121911036E+00  0.20650558758E+03  0.12500000000E+03 0.  0.
         25    1    1    2    0    0 -0.68010042333E+02  0.13677864548E+03  0.49901480194E+03  0.53663258964E+03  0.12500000000E+03 0.  0.
</event>
<event>
 5    0  0.5782360E-005  0.2682154E+03  0.7546771E-02  0.1102305E+00
         21   -1    0    0  502  501  0.00000000000E+00  0.00000000000E+00  0.64905422058E+03  0.64905422058E+03  0.00000000000E+00 0.  1.
         21   -1    0    0  501  502 -0.00000000000E+00 -0.00000000000E+00 -0.11083743820E+03  0.11083743820E+03  0.00000000000E+00 0.  1.
         25    1    1    2    0    0 -0.11170203647E+02 -0.22837766362E+02  0.15115822065E+02  0.12845164498E+03  0.12500000000E+03 0.  0.
         25    1    1    2    0    0  0.97787285952E+02 -0.69560210884E+02  0.22108354551E+03  0.28089839858E+03  0.12500000000E+03 0.  0.
         25    1    1    2    0    0 -0.86617082306E+02  0.92397977247E+02  0.30201741480E+03  0.35054161521E+03  0.12500000000E+03 0.  0.
</event>
<event>
 5    0  0.5590591E-005  0.3160175E+03  0.7546771E-02  0.1077497E+00
         21   -1    0    0  502  501  0.00000000000E+00  0.00000000000E+00  0.99680084756E+02  0.99680084756E+02  0.00000000000E+00 0. -1.
         21   -1    0    0  501  502 -0.00000000000E+00 -0.00000000000E+00 -0.10018755959E+04  0.10018755959E+04  0.00000000000E+00 0. -1.
         25    1    1    2    0    0 -0.78445343612E+02  0.36914876096E+02 -0.60052200115E+03  0.61949015640E+03  0.12500000000E+03 0.  0.
         25    1    1    2    0    0 -0.12832414485E+02  0.20990548009E+02 -0.28958259362E+03  0.31636743273E+03  0.12500000000E+03 0.  0.
         25    1    1    2    0    0  0.91277758097E+02 -0.57905424106E+02 -0.12090916338E+02  0.16569809149E+03  0.12500000000E+03 0.  0.
</event>
<event>
 5    0  0.5590591E-005  0.2213490E+03  0.7546771E-02  0.1132881E+00
         21   -1    0    0  502  501  0.00000000000E+00  0.00000000000E+00  0.15851697650E+03  0.15851697650E+03  0.00000000000E+00 0. -1.
         21   -1    0    0  501  502 -0.00000000000E+00 -0.00000000000E+00 -0.30908591092E+03  0.30908591092E+03  0.00000000000E+00 0. -1.
         25    1    1    2    0    0  0.57790439615E+02  0.16514763330E+02  0.25518617661E+02  0.14102720364E+03  0.12500000000E+03 0.  0.
         25    1    1    2    0    0 -0.63602379070E+02 -0.40996310532E+02 -0.11044106209E+03  0.18316164526E+03  0.12500000000E+03 0.  0.
         25    1    1    2    0    0  0.58119394550E+01  0.24481547202E+02 -0.65646489992E+02  0.14341403851E+03  0.12500000000E+03 0.  0.
</event>
<event>
 5    0  0.5590591E-005  0.3271782E+03  0.7546771E-02  0.1072392E+00
         21   -1    0    0  502  501  0.00000000000E+00  0.00000000000E+00  0.10894258547E+03  0.10894258547E+03  0.00000000000E+00 0. -1.
         21   -1    0    0  501  502 -0.00000000000E+00 -0.00000000000E+00 -0.98258708330E+03  0.98258708330E+03  0.00000000000E+00 0. -1.
         25    1    1    2    0    0  0.26940056845E+02 -0.30304646524E+02 -0.16654763039E+02  0.13246327565E+03  0.12500000000E+03 0.  0.
         25    1    1    2    0    0 -0.19162092759E+02  0.95235135882E+02 -0.78477763686E+03  0.80058594555E+03  0.12500000000E+03 0.  0.
         25    1    1    2    0    0 -0.77779640859E+01 -0.64930489358E+02 -0.72212097942E+02  0.15848044757E+03  0.12500000000E+03 0.  0.
</event>
<event>
 5    0  0.5590591E-005  0.2617967E+03  0.7546771E-02  0.1106069E+00
         21   -1    0    0  502  501  0.00000000000E+00  0.00000000000E+00  0.23500250647E+03  0.23500250647E+03  0.00000000000E+00 0. -1.
         21   -1    0    0  501  502 -0.00000000000E+00 -0.00000000000E+00 -0.29164588374E+03  0.29164588374E+03  0.00000000000E+00 0. -1.
         25    1    1    2    0    0  0.54422261744E+02  0.50118676734E+02 -0.68776878539E+02  0.16071379329E+03  0.12500000000E+03 0.  0.
         25    1    1    2    0    0 -0.94127843601E+02  0.81313797736E+02 -0.20082725994E+02  0.17748324013E+03  0.12500000000E+03 0.  0.
         25    1    1    2    0    0  0.39705581857E+02 -0.13143247447E+03  0.32216227263E+02  0.18845135679E+03  0.12500000000E+03 0.  0.
</event>
<event>
 5    0  0.5590591E-005  0.2392267E+03  0.7546771E-02  0.1120309E+00
         21   -1    0    0  502  501  0.00000000000E+00  0.00000000000E+00  0.10833503438E+03  0.10833503438E+03  0.00000000000E+00 0.  1.
         21   -1    0    0  501  502 -0.00000000000E+00 -0.00000000000E+00 -0.52826318870E+03  0.52826318870E+03  0.00000000000E+00 0.  1.
         25    1    1    2    0    0 -0.56233048854E+02  0.10336362739E+03 -0.25047376550E+03  0.30365820005E+03  0.12500000000E+03 0.  0.
         25    1    1    2    0    0  0.19549479128E+02 -0.16608428376E+02 -0.97952003761E+02  0.16086521398E+03  0.12500000000E+03 0.  0.
         25    1    1    2    0    0  0.36683569727E+02 -0.86755199013E+02 -0.71502385052E+02  0.17207480906E+03  0.12500000000E+03 0.  0.
</event>
<event>
 5    0  0.5590591E-005  0.2882278E+03  0.7546771E-02  0.1091278E+00
         21   -1    0    0  502  501  0.00000000000E+00  0.00000000000E+00  0.15664222236E+03  0.15664222236E+03  0.00000000000E+00 0. -1.
         21   -1    0    0  501  502 -0.00000000000E+00 -0.00000000000E+00 -0.53035033218E+03  0.53035033218E+03  0.00000000000E+00 0. -1.
         25    1    1    2    0    0 -0.16322948398E+03 -0.64007827966E+02 -0.11436481000E+03  0.24381381472E+03  0.12500000000E+03 0.  0.
         25    1    1    2    0    0  0.40426855560E+02 -0.48687033829E+02 -0.52561521912E+02  0.14964114240E+03  0.12500000000E+03 0.  0.
         25    1    1    2    0    0  0.12280262842E+03  0.11269486180E+03 -0.20678177791E+03  0.29353759742E+03  0.12500000000E+03 0.  0.
</event>
<event>
 5    0  0.5639895E-005  0.2894741E+03  0.7546771E-02  0.1090624E+00
         21   -1    0    0  502  501  0.00000000000E+00  0.00000000000E+00  0.42322688317E+03  0.42322688317E+03  0.00000000000E+00 0.  1.
         21   -1    0    0  501  502 -0.00000000000E+00 -0.00000000000E+00 -0.19799139811E+03  0.19799139811E+03  0.00000000000E+00 0.  1.
         25    1    1    2    0    0 -0.92294940758E+01  0.68958238502E+02 -0.35211967223E+02  0.14732720337E+03  0.12500000000E+03 0.  0.
         25    1    1    2    0    0  0.14637907074E+03 -0.32631692049E+02  0.75304475150E+02  0.20925444715E+03  0.12500000000E+03 0.  0.
         25    1    1    2    0    0 -0.13714957666E+03 -0.36326546454E+02  0.18514297714E+03  0.26463663076E+03  0.12500000000E+03 0.  0.
</event>
<event>
 5    0  0.5590591E-005  0.4636233E+03  0.7546771E-02  0.1023736E+00
         21   -1    0    0  502  501  0.00000000000E+00  0.00000000000E+00  0.18357936135E+03  0.18357936135E+03  0.00000000000E+00 0. -1.
         21   -1    0    0  501  502 -0.00000000000E+00 -0.00000000000E+00 -0.11708644088E+04  0.11708644088E+04  0.00000000000E+00 0. -1.
         25    1    1    2    0    0  0.22345774703E+03  0.50526451720E+02  0.13121831921E+02  0.26131105890E+03  0.12500000000E+03 0.  0.
         25    1    1    2    0    0 -0.18296565861E+03  0.73883206598E+02 -0.74030341140E+03  0.77627913883E+03  0.12500000000E+03 0.  0.
         25    1    1    2    0    0 -0.40492088415E+02 -0.12440965832E+03 -0.26010346795E+03  0.31685357240E+03  0.12500000000E+03 0.  0.
</event>
<event>
 5    0  0.5590591E-005  0.2536406E+03  0.7546771E-02  0.1111025E+00
         21   -1    0    0  502  501  0.00000000000E+00  0.00000000000E+00  0.53329337063E+03  0.53329337063E+03  0.00000000000E+00 0. -1.
         21   -1    0    0  501  502 -0.00000000000E+00 -0.00000000000E+00 -0.12063449832E+03  0.12063449832E+03  0.00000000000E+00 0. -1.
         25    1    1    2    0    0  0.16117835568E+02 -0.11992439446E+03  0.20223298846E+03  0.26676736426E+03  0.12500000000E+03 0.  0.
         25    1    1    2    0    0 -0.32886893702E+02  0.11499530970E+03  0.44409305929E+02  0.17861314477E+03  0.12500000000E+03 0.  0.
         25    1    1    2    0    0  0.16769058134E+02  0.49290847537E+01  0.16601657791E+03  0.20854735992E+03  0.12500000000E+03 0.  0.
</event>
<event>
 5    0  0.5590591E-005  0.2384939E+03  0.7546771E-02  0.1120800E+00
         21   -1    0    0  502  501  0.00000000000E+00  0.00000000000E+00  0.60811920199E+02  0.60811920199E+02  0.00000000000E+00 0. -1.
         21   -1    0    0  501  502 -0.00000000000E+00 -0.00000000000E+00 -0.93533199646E+03  0.93533199646E+03  0.00000000000E+00 0. -1.
         25    1    1    2    0    0  0.37271949257E+02  0.99363971158E+02 -0.19492231058E+03  0.25471965792E+03  0.12500000000E+03 0.  0.
         25    1    1    2    0    0  0.79256812154E+01 -0.70849884222E+02 -0.22627517697E+03  0.26815663003E+03  0.12500000000E+03 0.  0.
         25    1    1    2    0    0 -0.45197630472E+02 -0.28514086936E+02 -0.45332258871E+03  0.47326762871E+03  0.12500000000E+03 0.  0.
</event>
<event>
 5    0  0.6286676E-005  0.2949991E+03  0.7546771E-02  0.1087768E+00
         21   -1    0    0  502  501  0.00000000000E+00  0.00000000000E+00  0.29898037690E+03  0.29898037690E+03  0.00000000000E+00 0.  1.
         21   -1    0    0  501  502 -0.00000000000E+00 -0.00000000000E+00 -0.29107076922E+03  0.29107076922E+03  0.00000000000E+00 0.  1.
         25    1    1    2    0    0  0.54582722117E+02 -0.54354729888E+02  0.16419925778E+03  0.22027280011E+03  0.12500000000E+03 0.  0.
         25    1    1    2    0    0 -0.94270037817E+02  0.10110491382E+03 -0.45496636128E+02  0.19184365386E+03  0.12500000000E+03 0.  0.
         25    1    1    2    0    0  0.39687315700E+02 -0.46750183934E+02 -0.11079301397E+03  0.17793469215E+03  0.12500000000E+03 0.  0.
</event>
<event>
 5    0  0.5801664E-005  0.3540792E+03  0.7546771E-02  0.1060953E+00
         21   -1    0    0  502  501  0.00000000000E+00  0.00000000000E+00  0.17891278505E+03  0.17891278505E+03  0.00000000000E+00 0. -1.
         21   -1    0    0  501  502 -0.00000000000E+00 -0.00000000000E+00 -0.70074426308E+03  0.70074426308E+03  0.00000000000E+00 0. -1.
         25    1    1    2    0    0 -0.88823641956E+02  0.85861503382E+02 -0.17500857419E+03  0.24802185019E+03  0.12500000000E+03 0.  0.
         25    1    1    2    0    0 -0.91479759880E+02 -0.30219277378E+02  0.57748969404E+02  0.16805265443E+03  0.12500000000E+03 0.  0.
         25    1    1    2    0    0  0.18030340184E+03 -0.55642226004E+02 -0.40457187324E+03  0.46358254351E+03  0.12500000000E+03 0.  0.
</event>
<event>
 5    0  0.5590591E-005  0.3200946E+03  0.7546771E-02  0.1075606E+00
         21   -1    0    0  502  501  0.00000000000E+00  0.00000000000E+00  0.14054148698E+03  0.14054148698E+03  0.00000000000E+00 0.  1.
         21   -1    0    0  501  502 -0.00000000000E+00 -0.00000000000E+00 -0.72904123919E+03  0.72904123919E+03  0.00000000000E+00 0.  1.
         25    1    1    2    0    0  0.49835876855E+02  0.35867177037E+02 -0.28127121729E+03  0.31386074410E+03  0.12500000000E+03 0.  0.
         25    1    1    2    0    0 -0.17292564663E+03  0.62932686969E+02 -0.48158000660E+02  0.22761369770E+03  0.12500000000E+03 0.  0.
         25    1    1    2    0    0  0.12308976978E+03 -0.98799864006E+02 -0.25907053427E+03  0.32810828438E+03  0.12500000000E+03 0.  0.
</event>
<event>
 5    0  0.5590591E-005  0.2689348E+03  0.7546771E-02  0.1101891E+00
         21   -1    0    0  502  501  0.00000000000E+00  0.00000000000E+00  0.85279970292E+02  0.85279970292E+02  0.00000000000E+00 0.  1.
         21   -1    0    0  501  502 -0.00000000000E+00 -0.00000000000E+00 -0.84809976333E+03  0.84809976333E+03  0.00000000000E+00 0.  1.
         25    1    1    2    0    0 -0.29366733116E+01  0.56269480538E+02 -0.49692441809E+03  0.51549370102E+03  0.12500000000E+03 0.  0.
         25    1    1    2    0    0  0.73003967968E+02 -0.62009390549E+02 -0.63429408482E+02  0.16977347766E+03  0.12500000000E+03 0.  0.
         25    1    1    2    0    0 -0.70067294657E+02  0.57399100112E+01 -0.20246596646E+03  0.24811255495E+03  0.12500000000E+03 0.  0.
</event>
<event>
 5    0  0.5866336E-005  0.4145173E+03  0.7546771E-02  0.1038866E+00
         21   -1    0    0  502  501  0.00000000000E+00  0.00000000000E+00  0.46091451901E+03  0.46091451901E+03  0.00000000000E+00 0.  1.
         21   -1    0    0  501  502 -0.00000000000E+00 -0.00000000000E+00 -0.37279053619E+03  0.37279053619E+03  0.00000000000E+00 0.  1.
         25    1    1    2    0    0 -0.10075898920E+02 -0.23358695074E+03  0.87864604778E+02  0.27930194426E+03  0.12500000000E+03 0.  0.
         25    1    1    2    0    0 -0.13686415511E+03  0.25888442208E+03  0.10265280424E+03  0.33453779931E+03  0.12500000000E+03 0.  0.
         25    1    1    2    0    0  0.14694005403E+03 -0.25297471337E+02 -0.10239342620E+03  0.21986531164E+03  0.12500000000E+03 0.  0.
</event>
<event>
 5    0  0.5792512E-005  0.2416229E+03  0.7546771E-02  0.1118716E+00
         21   -1    0    0  502  501  0.00000000000E+00  0.00000000000E+00  0.18970590630E+03  0.18970590630E+03  0.00000000000E+00 0.  1.
         21   -1    0    0  501  502 -0.00000000000E+00 -0.00000000000E+00 -0.30774801085E+03  0.30774801085E+03  0.00000000000E+00 0.  1.
         25    1    1    2    0    0 -0.57296680101E+02 -0.28367860774E+02  0.35350260872E+02  0.14478358339E+03  0.12500000000E+03 0.  0.
         25    1    1    2    0    0  0.10835655260E+03  0.61698394144E+02 -0.10495299563E+03  0.20539709254E+03  0.12500000000E+03 0.  0.
         25    1    1    2    0    0 -0.51059872498E+02 -0.33330533370E+02 -0.48439369794E+02  0.14727324122E+03  0.12500000000E+03 0.  0.
</event>
<event>
 5    0  0.5590591E-005  0.2695837E+03  0.7546771E-02  0.1101518E+00
         21   -1    0    0  502  501  0.00000000000E+00  0.00000000000E+00  0.16271034183E+04  0.16271034183E+04  0.00000000000E+00 0.  1.
         21   -1    0    0  501  502 -0.00000000000E+00 -0.00000000000E+00 -0.44665488695E+02  0.44665488695E+02  0.00000000000E+00 0.  1.
         25    1    1    2    0    0  0.15645582729E+02 -0.10628154644E+03  0.73893840329E+03  0.75709676742E+03  0.12500000000E+03 0.  0.
         25    1    1    2    0    0 -0.10726848969E+03 -0.88142026907E+00  0.36698333805E+03  0.40225498901E+03  0.12500000000E+03 0.  0.
         25    1    1    2    0    0  0.91622906963E+02  0.10716296671E+03  0.47651618830E+03  0.51241715060E+03  0.12500000000E+03 0.  0.
</event>
<event>
 5    0  0.5590591E-005  0.2597416E+03  0.7546771E-02  0.1107299E+00
         21   -1    0    0  502  501  0.00000000000E+00  0.00000000000E+00  0.20697141204E+03  0.20697141204E+03  0.00000000000E+00 0.  1.
         21   -1    0    0  501  502 -0.00000000000E+00 -0.00000000000E+00 -0.32596636735E+03  0.32596636735E+03  0.00000000000E+00 0.  1.
         25    1    1    2    0    0  0.81180266784E+02 -0.35061165518E+02 -0.11163801320E+03  0.18949292080E+03  0.12500000000E+03 0.  0.
         25    1    1    2    0    0 -0.29407296255E+02 -0.36808401650E+02  0.90776407481E+02  0.16150852504E+03  0.12500000000E+03 0.  0.
         25    1    1    2    0    0 -0.51772970529E+02  0.71869567168E+02 -0.98133349588E+02  0.18193633354E+03  0.12500000000E+03 0.  0.
</event>
<event>
 5    0  0.5590591E-005  0.2318950E+03  0.7546771E-02  0.1125313E+00
         21   -1    0    0  502  501  0.00000000000E+00  0.00000000000E+00  0.11930326018E+03  0.11930326018E+03  0.00000000000E+00 0.  1.
         21   -1    0    0  501  502 -0.00000000000E+00 -0.00000000000E+00 -0.45074454537E+03  0.45074454537E+03  0.00000000000E+00 0.  1.
         25    1    1    2    0    0  0.10449868849E+03 -0.22886099094E+02 -0.65738909203E+02  0.17717323052E+03  0.12500000000E+03 0.  0.
         25    1    1    2    0    0 -0.51872814369E+01  0.54861675050E+01 -0.86251723853E+02  0.15205711358E+03  0.12500000000E+03 0.  0.
         25    1    1    2    0    0 -0.99311407054E+02  0.17399931589E+02 -0.17945065213E+03  0.24081746145E+03  0.12500000000E+03 0.  0.
</event>
<event>
 5    0  0.5590591E-005  0.3602001E+03  0.7546771E-02  0.1058505E+00
         21   -1    0    0  502  501  0.00000000000E+00  0.00000000000E+00  0.11024150183E+03  0.11024150183E+03  0.00000000000E+00 0.  1.
         21   -1    0    0  501  502 -0.00000000000E+00 -0.00000000000E+00 -0.11769081306E+04  0.11769081306E+04  0.00000000000E+00 0.  1.
         25    1    1    2    0    0 -0.33013337260E+02 -0.82466973949E+02  0.25045269324E+02  0.15538001076E+03  0.12500000000E+03 0.  0.
         25    1    1    2    0    0  0.27721885423E+02  0.94211193546E+02 -0.43481737499E+03  0.46296371512E+03  0.12500000000E+03 0.  0.
         25    1    1    2    0    0  0.52914518376E+01 -0.11744219597E+02 -0.65689452310E+03  0.66880590655E+03  0.12500000000E+03 0.  0.
</event>
<event>
 5    0  0.5590591E-005  0.4647318E+03  0.7546771E-02  0.1023418E+00
         21   -1    0    0  502  501  0.00000000000E+00  0.00000000000E+00  0.72228022463E+03  0.72228022463E+03  0.00000000000E+00 0.  1.
         21   -1    0    0  501  502 -0.00000000000E+00 -0.00000000000E+00 -0.29901915829E+03  0.29901915829E+03  0.00000000000E+00 0.  1.
         25    1    1    2    0    0 -0.22307154950E+03 -0.93093790462E+02  0.53271362468E+03  0.59819409554E+03  0.12500000000E+03 0.  0.
         25    1    1    2    0    0  0.99837269078E+02  0.15163214847E+03 -0.85941342498E+02  0.23658128222E+03  0.12500000000E+03 0.  0.
         25    1    1    2    0    0  0.12323428042E+03 -0.58538358007E+02 -0.23511215844E+02  0.18652400516E+03  0.12500000000E+03 0.  0.
</event>
<event>
 5    0  0.5590591E-005  0.2657078E+03  0.7546771E-02  0.1103762E+00
         21   -1    0    0  502  501  0.00000000000E+00  0.00000000000E+00  0.33132127854E+03  0.33132127854E+03  0.00000000000E+00 0. -1.
         21   -1    0    0  501  502 -0.00000000000E+00 -0.00000000000E+00 -0.21308818288E+03  0.21308818288E+03  0.00000000000E+00 0. -1.
         25    1    1    2    0    0  0.34513086920E+02  0.97656196232E+02  0.12775577621E+03  0.20657788891E+03  0.12500000000E+03 0.  0.
         25    1    1    2    0    0 -0.24783844175E+02  0.42446006577E+02 -0.53777191795E+02  0.14468202640E+03  0.12500000000E+03 0.  0.
         25    1    1    2    0    0 -0.97292427447E+01 -0.14010220281E+03  0.44254511255E+02  0.19314954611E+03  0.12500000000E+03 0.  0.
</event>
<event>
 5    0  0.5590591E-005  0.3211557E+03  0.7546771E-02  0.1075119E+00
         21   -1    0    0  502  501  0.00000000000E+00  0.00000000000E+00  0.93258702974E+02  0.93258702974E+02  0.00000000000E+00 0.  1.
         21   -1    0    0  501  502 -0.00000000000E+00 -0.00000000000E+00 -0.11059661661E+04  0.11059661661E+04  0.00000000000E+00 0.  1.
         25    1    1    2    0    0 -0.30592287885E+02  0.10231034910E+03 -0.13059482163E+03  0.20996024159E+03  0.12500000000E+03 0.  0.
         25    1    1    2    0    0  0.10638841871E+01  0.11271179036E+03 -0.53757996716E+03  0.56331367872E+03  0.12500000000E+03 0.  0.
         25    1    1    2    0    0  0.29528403698E+02 -0.21502213946E+03 -0.34453267437E+03  0.42595094881E+03  0.12500000000E+03 0.  0.
</event>
<event>
 5    0  0.5590591E-005  0.2371789E+03  0.7546771E-02  0.1121687E+00
         21   -1    0    0  502  501  0.00000000000E+00  0.00000000000E+00  0.17035329275E+03  0.17035329275E+03  0.00000000000E+00 0.  1.
         21   -1    0    0  501  502 -0.00000000000E+00 -0.00000000000E+00 -0.33021865660E+03  0.33021865660E+03  0.00000000000E+00 0.  1.
         25    1    1    2    0    0 -0.77233370848E+02 -0.51860325141E+02 -0.14446325700E+03  0.21248322173E+03  0.12500000000E+03 0.  0.
         25    1    1    2    0    0  0.74695649454E+02  0.65888261288E+02  0.83826928274E+01  0.16004990647E+03  0.12500000000E+03 0.  0.
         25    1    1    2    0    0  0.25377213937E+01 -0.14027936146E+02 -0.23784799683E+02  0.12803882114E+03  0.12500000000E+03 0.  0.
</event>
<event>
 5    0  0.5959000E-005  0.5373273E+03  0.7546771E-02  0.1004470E+00
         21   -1    0    0  502  501  0.00000000000E+00  0.00000000000E+00  0.24242537488E+03  0.24242537488E+03  0.00000000000E+00 0.  1.
         21   -1    0    0  501  502 -0.00000000000E+00 -0.00000000000E+00 -0.11909670449E+04  0.11909670449E+04  0.00000000000E+00 0.  1.
         25    1    1    2    0    0 -0.19511221848E+03  0.14411798625E+03 -0.65523849065E+03  0.70978958247E+03  0.12500000000E+03 0.  0.
         25    1    1    2    0    0  0.26631958733E+03  0.11287329047E+03 -0.29123408396E+03  0.42907900666E+03  0.12500000000E+03 0.  0.
         25    1    1    2    0    0 -0.71207368845E+02 -0.25699127671E+03 -0.20690954415E+01  0.29452383068E+03  0.12500000000E+03 0.  0.
</event>
<event>
 5    0  0.5590591E-005  0.2609323E+03  0.7546771E-02  0.1106584E+00
         21   -1    0    0  502  501  0.00000000000E+00  0.00000000000E+00  0.59327978440E+03  0.59327978440E+03  0.00000000000E+00 0.  1.
         21   -1    0    0  501  502 -0.00000000000E+00 -0.00000000000E+00 -0.11476147941E+03  0.11476147941E+03  0.00000000000E+00 0.  1.
         25    1    1    2    0    0  0.11387815028E+03 -0.12349538197E+03  0.16451030127E+03  0.26628552665E+03  0.12500000000E+03 0.  0.
         25    1    1    2    0    0 -0.97592150872E+02  0.71273876979E+02  0.16463269947E+03  0.23944335277E+03  0.12500000000E+03 0.  0.
         25    1    1    2    0    0 -0.16285999409E+02  0.52221504986E+02  0.14937530424E+03  0.20231238439E+03  0.12500000000E+03 0.  0.
</event>
<event>
 5    0  0.6297941E-005  0.3550638E+03  0.7546771E-02  0.1060556E+00
         21   -1    0    0  502  501  0.00000000000E+00  0.00000000000E+00  0.39736997123E+03  0.39736997123E+03  0.00000000000E+00 0.  1.
         21   -1    0    0  501  502 -0.00000000000E+00 -0.00000000000E+00 -0.31726180572E+03  0.31726180572E+03  0.00000000000E+00 0.  1.
         25    1    1    2    0    0  0.30522798639E+02 -0.15139819916E+02  0.16434442676E+03  0.20927242052E+03  0.12500000000E+03 0.  0.
         25    1    1    2    0    0  0.35034982824E+02  0.20864770186E+03  0.14786184414E+02  0.24618071566E+03  0.12500000000E+03 0.  0.
         25    1    1    2    0    0 -0.65557781464E+02 -0.19350788195E+03 -0.99022445659E+02  0.25917864077E+03  0.12500000000E+03 0.  0.
</event>
<event>
 5    0  0.5590591E-005  0.4907727E+03  0.7546771E-02  0.1016216E+00
         21   -1    0    0  502  501  0.00000000000E+00  0.00000000000E+00  0.10868855955E+04  0.10868855955E+04  0.00000000000E+00 0. -1.
         21   -1    0    0  501  502 -0.00000000000E+00 -0.00000000000E+00 -0.22160368533E+03  0.22160368533E+03  0.00000000000E+00 0. -1.
         25    1    1    2    0    0  0.12222892302E+03 -0.11326703303E+03 -0.86060050098E+02  0.22539002333E+03  0.12500000000E+03 0.  0.
         25    1    1    2    0    0  0.61461295339E+01  0.12778364912E+03  0.86568356735E+03  0.88396802808E+03  0.12500000000E+03 0.  0.
         25    1    1    2    0    0 -0.12837505255E+03 -0.14516616090E+02  0.85658392945E+02  0.19913122945E+03  0.12500000000E+03 0.  0.
</event>
<event>
 5    0  0.5590591E-005  0.2588346E+03  0.7546771E-02  0.1107845E+00
         21   -1    0    0  502  501  0.00000000000E+00  0.00000000000E+00  0.27225684897E+03  0.27225684897E+03  0.00000000000E+00 0. -1.
         21   -1    0    0  501  502 -0.00000000000E+00 -0.00000000000E+00 -0.24607415620E+03  0.24607415620E+03  0.00000000000E+00 0. -1.
         25    1    1    2    0    0 -0.16897365494E+02  0.57261759280E+02 -0.27191778914E+02  0.14116948281E+03  0.12500000000E+03 0.  0.
         25    1    1    2    0    0 -0.27142745236E+01  0.21581969485E+02  0.15231228558E+03  0.19823516598E+03  0.12500000000E+03 0.  0.
         25    1    1    2    0    0  0.19611640018E+02 -0.78843728765E+02 -0.98937813897E+02  0.17892635638E+03  0.12500000000E+03 0.  0.
</event>
<event>
 5    0  0.5590591E-005  0.6813015E+03  0.7546771E-02  0.9749754E-01
         21   -1    0    0  502  501  0.00000000000E+00  0.00000000000E+00  0.33147865493E+03  0.33147865493E+03  0.00000000000E+00 0. -1.
         21   -1    0    0  501  502 -0.00000000000E+00 -0.00000000000E+00 -0.14003064862E+04  0.14003064862E+04  0.00000000000E+00 0. -1.
         25    1    1    2    0    0 -0.20484757028E+03  0.70746440595E+02 -0.32810927060E+03  0.41261153566E+03  0.12500000000E+03 0.  0.
         25    1    1    2    0    0  0.45732584007E+03 -0.45405090104E+02 -0.88246161076E+03  0.10027821502E+04  0.12500000000E+03 0.  0.
         25    1    1    2    0    0 -0.25247826979E+03 -0.25341350490E+02  0.14174305007E+03  0.31639145533E+03  0.12500000000E+03 0.  0.
</event>
<event>
 5    0  0.5590591E-005  0.3862885E+03  0.7546771E-02  0.1048634E+00
         21   -1    0    0  502  501  0.00000000000E+00  0.00000000000E+00  0.13462921045E+04  0.13462921045E+04  0.00000000000E+00 0.  1.
         21   -1    0    0  501  502 -0.00000000000E+00 -0.00000000000E+00 -0.11083686861E+03  0.11083686861E+03  0.00000000000E+00 0.  1.
         25    1    1    2    0    0 -0.47912763776E+02 -0.70974434394E+02  0.12113341829E+03  0.19398790760E+03  0.12500000000E+03 0.  0.
         25    1    1    2    0    0 -0.14189447087E+03  0.97992062823E+02  0.96877664395E+03  0.99191212872E+03  0.12500000000E+03 0.  0.
         25    1    1    2    0    0  0.18980723464E+03 -0.27017628429E+02  0.14554517361E+03  0.27122893675E+03  0.12500000000E+03 0.  0.
</event>
<event>
 5    0  0.7669028E-005  0.7327577E+03  0.7546771E-02  0.9662796E-01
         21   -1    0    0  502  501  0.00000000000E+00  0.00000000000E+00  0.64927554546E+03  0.64927554546E+03  0.00000000000E+00 0.  1.
         21   -1    0    0  501  502 -0.00000000000E+00 -0.00000000000E+00 -0.82697371385E+03  0.82697371385E+03  0.00000000000E+00 0.  1.
         25    1    1    2    0    0 -0.18077350025E+03  0.29781115806E+03  0.95009092574E+02  0.38212860653E+03  0.12500000000E+03 0.  0.
         25    1    1    2    0    0  0.43079601653E+03 -0.21437691051E+03  0.20225658065E+03  0.53672655239E+03  0.12500000000E+03 0.  0.
         25    1    1    2    0    0 -0.25002251628E+03 -0.83434247545E+02 -0.47496384161E+03  0.55739410039E+03  0.12500000000E+03 0.  0.
</event>
<event>
 5    0  0.5590591E-005  0.6319694E+03  0.7546771E-02  0.9841213E-01
         21   -1    0    0  502  501  0.00000000000E+00  0.00000000000E+00  0.14933361505E+04  0.14933361505E+04  0.00000000000E+00 0. -1.
         21   -1    0    0  501  502 -0.00000000000E+00 -0.00000000000E+00 -0.26744501463E+03  0.26744501463E+03  0.00000000000E+00 0. -1.
         25    1    1    2    0    0  0.36151001058E+03  0.14387732107E+03  0.28077110748E+03  0.49583019882E+03  0.12500000000E+03 0.  0.
         25    1    1    2    0    0 -0.56094244962E+01  0.25889241213E+03  0.28997754257E+03  0.40837326296E+03  0.12500000000E+03 0.  0.
         25    1    1    2    0    0 -0.35590058608E+03 -0.40276973320E+03  0.65514248579E+03  0.85657770333E+03  0.12500000000E+03 0.  0.
</event>
<event>
 5    0  0.6083491E-005  0.2926844E+03  0.7546771E-02  0.1088956E+00
         21   -1    0    0  502  501  0.00000000000E+00  0.00000000000E+00  0.27287142666E+03  0.27287142666E+03  0.00000000000E+00 0. -1.
         21   -1    0    0  501  502 -0.00000000000E+00 -0.00000000000E+00 -0.31393593774E+03  0.31393593774E+03  0.00000000000E+00 0. -1.
         25    1    1    2    0    0 -0.18189770732E+03 -0.26291366761E+02  0.55613015525E+01  0.22233744617E+03  0.12500000000E+03 0.  0.
         25    1    1    2    0    0  0.92892831495E+02 -0.51263167778E+02 -0.90156557802E+02  0.18711011578E+03  0.12500000000E+03 0.  0.
         25    1    1    2    0    0  0.89004875821E+02  0.77554534539E+02  0.43530745171E+02  0.17735980244E+03  0.12500000000E+03 0.  0.
</event>
<event>
 5    0  0.5590591E-005  0.3172721E+03  0.7546771E-02  0.1076912E+00
         21   -1    0    0  502  501  0.00000000000E+00  0.00000000000E+00  0.12958318269E+03  0.12958318269E+03  0.00000000000E+00 0.  1.
         21   -1    0    0  501  502 -0.00000000000E+00 -0.00000000000E+00 -0.77681045111E+03  0.77681045111E+03  0.00000000000E+00 0.  1.
         25    1    1    2    0    0 -0.37671326167E+02  0.15393921147E+03 -0.94962152917E+02  0.22306774785E+03  0.12500000000E+03 0.  0.
         25    1    1    2    0    0 -0.48033847169E+02  0.51562552964E+02 -0.24370558755E+03  0.28281329662E+03  0.12500000000E+03 0.  0.
         25    1    1    2    0    0  0.85705173335E+02 -0.20550176443E+03 -0.30855952796E+03  0.40051258933E+03  0.12500000000E+03 0.  0.
</event>
<event>
 5    0  0.5590591E-005  0.2988740E+03  0.7546771E-02  0.1085805E+00
         21   -1    0    0  502  501  0.00000000000E+00  0.00000000000E+00  0.32024061678E+03  0.32024061678E+03  0.00000000000E+00 0.  1.
         21   -1    0    0  501  502 -0.00000000000E+00 -0.00000000000E+00 -0.27893296019E+03  0.27893296019E+03  0.00000000000E+00 0.  1.
         25    1    1    2    0    0  0.12561827351E+03  0.10028452624E+03 -0.38973812113E+02  0.20731834186E+03  0.12500000000E+03 0.  0.
         25    1    1    2    0    0 -0.10738350970E+03  0.60099960104E+02  0.91038556589E+01  0.17564482215E+03  0.12500000000E+03 0.  0.
         25    1    1    2    0    0 -0.18234763804E+02 -0.16038448634E+03  0.71177613042E+02  0.21621041295E+03  0.12500000000E+03 0.  0.
</event>
<event>
 5    0  0.5590591E-005  0.4745048E+03  0.7546771E-02  0.1020656E+00
         21   -1    0    0  502  501  0.00000000000E+00  0.00000000000E+00  0.61431912931E+03  0.61431912931E+03  0.00000000000E+00 0. -1.
         21   -1    0    0  501  502 -0.00000000000E+00 -0.00000000000E+00 -0.36651115797E+03  0.36651115797E+03  0.00000000000E+00 0. -1.
         25    1    1    2    0    0  0.34366718961E+02  0.55187362720E+02  0.49032549867E+03  0.51016743430E+03  0.12500000000E+03 0.  0.
         25    1    1    2    0    0  0.82853005695E+02 -0.14549053200E+03 -0.11171237648E+03  0.23693199554E+03  0.12500000000E+03 0.  0.
         25    1    1    2    0    0 -0.11721972466E+03  0.90303169278E+02 -0.13080515084E+03  0.23373085743E+03  0.12500000000E+03 0.  0.
</event>
<event>
 5    0  0.5590591E-005  0.4197599E+03  0.7546771E-02  0.1037144E+00
         21   -1    0    0  502  501  0.00000000000E+00  0.00000000000E+00  0.31523413499E+03  0.31523413499E+03  0.00000000000E+00 0.  1.
         21   -1    0    0  501  502 -0.00000000000E+00 -0.00000000000E+00 -0.55894450712E+03  0.55894450712E+03  0.00000000000E+00 0.  1.
         25    1    1    2    0    0  0.20111769498E+03  0.16726002984E+03 -0.36056332271E+03  0.46266094983E+03  0.12500000000E+03 0.  0.
         25    1    1    2    0    0 -0.59151204100E+02 -0.22155227060E+02  0.10084208596E+03  0.17257996794E+03  0.12500000000E+03 0.  0.
         25    1    1    2    0    0 -0.14196649088E+03 -0.14510480278E+03  0.16010864614E+02  0.23893772433E+03  0.12500000000E+03 0.  0.
</event>
<event>
 5    0  0.5590591E-005  0.3159003E+03  0.7546771E-02  0.1077552E+00
         21   -1    0    0  502  501  0.00000000000E+00  0.00000000000E+00  0.10593047576E+03  0.10593047576E+03  0.00000000000E+00 0.  1.
         21   -1    0    0  501  502 -0.00000000000E+00 -0.00000000000E+00 -0.94206123603E+03  0.94206123603E+03  0.00000000000E+00 0.  1.
         25    1    1    2    0    0 -0.11553136335E+03  0.41595915218E+02 -0.45896482520E+03  0.49127530657E+03  0.12500000000E+03 0.  0.
         25    1    1    2    0    0  0.18143780393E+03  0.50412619054E+02 -0.14053499784E+03  0.26615069881E+03  0.12500000000E+03 0.  0.
         25    1    1    2    0    0 -0.65906440579E+02 -0.92008534273E+02 -0.23663093723E+03  0.29056570641E+03  0.12500000000E+03 0.  0.
</event>
<event>
 5    0  0.5590591E-005  0.4477446E+03  0.7546771E-02  0.1028397E+00
         21   -1    0    0  502  501  0.00000000000E+00  0.00000000000E+00  0.27327637810E+03  0.27327637810E+03  0.00000000000E+00 0.  1.
         21   -1    0    0  501  502 -0.00000000000E+00 -0.00000000000E+00 -0.73359886547E+03  0.73359886547E+03  0.00000000000E+00 0. -1.
         25    1    1    2    0    0  0.27381484823E+02 -0.21616322412E+03 -0.38507553820E+02  0.25413405296E+03  0.12500000000E+03 0.  0.
         25    1    1    2    0    0 -0.13880901293E+03  0.28433822632E+03 -0.56136596282E+02  0.34480789791E+03  0.12500000000E+03 0.  0.
         25    1    1    2    0    0  0.11142752811E+03 -0.68175002198E+02 -0.36567833727E+03  0.40793329270E+03  0.12500000000E+03 0.  0.
</event>
<event>
 5    0  0.5590591E-005  0.3146639E+03  0.7546771E-02  0.1078132E+00
         21   -1    0    0  502  501  0.00000000000E+00  0.00000000000E+00  0.10964022072E+04  0.10964022072E+04  0.00000000000E+00 0.  1.
         21   -1    0    0  501  502 -0.00000000000E+00 -0.00000000000E+00 -0.90307505632E+02  0.90307505632E+02  0.00000000000E+00 0.  1.
         25    1    1    2    0    0  0.84889575007E+02  0.49151991928E+01  0.13030152259E+02  0.15174051534E+03  0.12500000000E+03 0.  0.
         25    1    1    2    0    0  0.15706722944E+02  0.18894194554E+02  0.49649379339E+03  0.51257660755E+03  0.12500000000E+03 0.  0.
         25    1    1    2    0    0 -0.10059629795E+03 -0.23809393747E+02  0.49657075596E+03  0.52239258998E+03  0.12500000000E+03 0.  0.
</event>
<event>
 5    0  0.5590591E-005  0.2629043E+03  0.7546771E-02  0.1105411E+00
         21   -1    0    0  502  501  0.00000000000E+00  0.00000000000E+00  0.17970026645E+03  0.17970026645E+03  0.00000000000E+00 0. -1.
         21   -1    0    0  501  502 -0.00000000000E+00 -0.00000000000E+00 -0.38463314137E+03  0.38463314137E+03  0.00000000000E+00 0. -1.
         25    1    1    2    0    0  0.27476912468E+02  0.51484843028E+02  0.54272410179E+02  0.14824359779E+03  0.12500000000E+03 0.  0.
         25    1    1    2    0    0 -0.76036523686E+02  0.13892691969E+02 -0.42488527724E+02  0.15298638767E+03  0.12500000000E+03 0.  0.
         25    1    1    2    0    0  0.48559611218E+02 -0.65377534997E+02 -0.21671675737E+03  0.26310342235E+03  0.12500000000E+03 0.  0.
</event>
<event>
 5    0  0.5590591E-005  0.4831782E+03  0.7546771E-02  0.1018265E+00
         21   -1    0    0  502  501  0.00000000000E+00  0.00000000000E+00  0.81695184948E+03  0.81695184948E+03  0.00000000000E+00 0.  1.
         21   -1    0    0  501  502 -0.00000000000E+00 -0.00000000000E+00 -0.28577109039E+03  0.28577109039E+03  0.00000000000E+00 0.  1.
         25    1    1    2    0    0  0.38590044932E+02  0.10433315201E+01  0.19328250677E+03  0.23339538884E+03  0.12500000000E+03 0.  0.
         25    1    1    2    0    0 -0.31642962785E+03  0.19468087595E+02  0.43160235077E+03  0.54992027150E+03  0.12500000000E+03 0.  0.
         25    1    1    2    0    0  0.27783958292E+03 -0.20511419115E+02 -0.93704098447E+02  0.31940727953E+03  0.12500000000E+03 0.  0.
</event>
<event>
 5    0  0.5590591E-005  0.3198744E+03  0.7546771E-02  0.1075707E+00
         21   -1    0    0  502  501  0.00000000000E+00  0.00000000000E+00  0.28709875985E+03  0.28709875985E+03  0.00000000000E+00 0. -1.
         21   -1    0    0  501  502 -0.00000000000E+00 -0.00000000000E+00 -0.35639184861E+03  0.35639184861E+03  0.00000000000E+00 0. -1.
         25    1    1    2    0    0 -0.19033331749E+03  0.51654548233E+02 -0.36620382646E+02  0.23634935271E+03  0.12500000000E+03 0.  0.
         25    1    1    2    0    0  0.48150879832E+02  0.85285696925E+02 -0.64368142106E+02  0.17134881105E+03  0.12500000000E+03 0.  0.
         25    1    1    2    0    0  0.14218243766E+03 -0.13694024516E+03  0.31695435989E+02  0.23579244471E+03  0.12500000000E+03 0.  0.
</event>
<event>
 5    0  0.5590591E-005  0.2524780E+03  0.7546771E-02  0.1111749E+00
         21   -1    0    0  502  501  0.00000000000E+00  0.00000000000E+00  0.17428865998E+03  0.17428865998E+03  0.00000000000E+00 0.  1.
         21   -1    0    0  501  502 -0.00000000000E+00 -0.00000000000E+00 -0.36574459808E+03  0.36574459808E+03  0.00000000000E+00 0.  1.
         25    1    1    2    0    0  0.93951252645E+01 -0.72630224763E+01 -0.20167622637E+03  0.23756961118E+03  0.12500000000E+03 0.  0.
         25    1    1    2    0    0 -0.31666355246E+02 -0.57801545469E+02  0.56923260882E+02  0.15234511591E+03  0.12500000000E+03 0.  0.
         25    1    1    2    0    0  0.22271229982E+02  0.65064567946E+02 -0.46702972609E+02  0.15011853096E+03  0.12500000000E+03 0.  0.
</event>
<event>
 5    0  0.5590591E-005  0.3537685E+03  0.7546771E-02  0.1061079E+00
         21   -1    0    0  502  501  0.00000000000E+00  0.00000000000E+00  0.86511385202E+03  0.86511385202E+03  0.00000000000E+00 0. -1.
         21   -1    0    0  501  502 -0.00000000000E+00 -0.00000000000E+00 -0.14466556703E+03  0.14466556703E+03  0.00000000000E+00 0. -1.
         25    1    1    2    0    0  0.13046044434E+03  0.13782608327E+03  0.51531177791E+03  0.56319373685E+03  0.12500000000E+03 0.  0.
         25    1    1    2    0    0 -0.12798000658E+03 -0.56910819670E+02  0.22862072452E+03  0.29582116077E+03  0.12500000000E+03 0.  0.
         25    1    1    2    0    0 -0.24804377577E+01 -0.80915263603E+02 -0.23484217443E+02  0.15076452144E+03  0.12500000000E+03 0.  0.
</event>
<event>
 5    0  0.5590591E-005  0.2901042E+03  0.7546771E-02  0.1090295E+00
         21   -1    0    0  502  501  0.00000000000E+00  0.00000000000E+00  0.89774261790E+03  0.89774261790E+03  0.00000000000E+00 0. -1.
         21   -1    0    0  501  502 -0.00000000000E+00 -0.00000000000E+00 -0.93746719164E+02  0.93746719164E+02  0.00000000000E+00 0. -1.
         25    1    1    2    0    0  0.80813314152E+01 -0.55815757554E+02  0.12484345147E+03  0.18544970770E+03  0.12500000000E+03 0.  0.
         25    1    1    2    0    0 -0.91548878050E+02  0.74111373982E+02  0.82619925053E+02  0.19059051614E+03  0.12500000000E+03 0.  0.
         25    1    1    2    0    0  0.83467546635E+02 -0.18295616428E+02  0.59653252221E+03  0.61544911323E+03  0.12500000000E+03 0.  0.
</event>
<event>
 5    0  0.5590591E-005  0.3072065E+03  0.7546771E-02  0.1081693E+00
         21   -1    0    0  502  501  0.00000000000E+00  0.00000000000E+00  0.50804306737E+03  0.50804306737E+03  0.00000000000E+00 0. -1.
         21   -1    0    0  501  502 -0.00000000000E+00 -0.00000000000E+00 -0.18576343629E+03  0.18576343629E+03  0.00000000000E+00 0. -1.
         25    1    1    2    0    0  0.32444645170E+02  0.25386458288E+02 -0.99752534404E+02  0.16514446822E+03  0.12500000000E+03 0.  0.
         25    1    1    2    0    0  0.70725582396E+02  0.30078784673E+02  0.20706536683E+03  0.25378713016E+03  0.12500000000E+03 0.  0.
         25    1    1    2    0    0 -0.10317022757E+03 -0.55465242961E+02  0.21496679865E+03  0.27487490528E+03  0.12500000000E+03 0.  0.
</event>
<event>
 5    0  0.5590591E-005  0.3171420E+03  0.7546771E-02  0.1076972E+00
         21   -1    0    0  502  501  0.00000000000E+00  0.00000000000E+00  0.18901116881E+03  0.18901116881E+03  0.00000000000E+00 0. -1.
         21   -1    0    0  501  502 -0.00000000000E+00 -0.00000000000E+00 -0.53213295369E+03  0.53213295369E+03  0.00000000000E+00 0. -1.
         25    1    1    2    0    0  0.41575909438E+02  0.86997746966E+02 -0.22479691814E+03  0.27469222527E+03  0.12500000000E+03 0.  0.
         25    1    1    2    0    0  0.91667825982E+02  0.33939423576E+02  0.54090855091E+02  0.16764753323E+03  0.12500000000E+03 0.  0.
         25    1    1    2    0    0 -0.13324373542E+03 -0.12093717054E+03 -0.17241572183E+03  0.27880436399E+03  0.12500000000E+03 0.  0.
</event>
<event>
 5    0  0.5590591E-005  0.2910790E+03  0.7546771E-02  0.1089787E+00
         21   -1    0    0  502  501  0.00000000000E+00  0.00000000000E+00  0.21188989781E+03  0.21188989781E+03  0.00000000000E+00 0. -1.
         21   -1    0    0  501  502 -0.00000000000E+00 -0.00000000000E+00 -0.39986331528E+03  0.39986331528E+03  0.00000000000E+00 0. -1.
         25    1    1    2    0    0 -0.22962021260E+02 -0.75287936525E+01 -0.16153256119E+03  0.20567378413E+03  0.12500000000E+03 0.  0.
         25    1    1    2    0    0  0.15727706672E+03 -0.20020861947E+02 -0.73171916164E+02  0.21474645502E+03  0.12500000000E+03 0.  0.
         25    1    1    2    0    0 -0.13431504546E+03  0.27549655600E+02  0.46731059881E+02  0.19133297395E+03  0.12500000000E+03 0.  0.
</event>
<event>
 5    0  0.5590591E-005  0.2396759E+03  0.7546771E-02  0.1120009E+00
         21   -1    0    0  502  501  0.00000000000E+00  0.00000000000E+00  0.13986331211E+03  0.13986331211E+03  0.00000000000E+00 0. -1.
         21   -1    0    0  501  502 -0.00000000000E+00 -0.00000000000E+00 -0.41071929269E+03  0.41071929269E+03  0.00000000000E+00 0. -1.
         25    1    1    2    0    0 -0.10016092067E+03  0.74890505011E+02 -0.60356758757E+02  0.18683879709E+03  0.12500000000E+03 0.  0.
         25    1    1    2    0    0  0.23670606601E+02 -0.59855373380E+02 -0.59142203231E+02  0.15253118875E+03  0.12500000000E+03 0.  0.
         25    1    1    2    0    0  0.76490314065E+02 -0.15035131630E+02 -0.15135701860E+03  0.21121261896E+03  0.12500000000E+03 0.  0.
</event>
<event>
 5    0  0.5590591E-005  0.4505192E+03  0.7546771E-02  0.1027567E+00
         21   -1    0    0  502  501  0.00000000000E+00  0.00000000000E+00  0.37316052947E+03  0.37316052947E+03  0.00000000000E+00 0.  1.
         21   -1    0    0  501  502 -0.00000000000E+00 -0.00000000000E+00 -0.54391483289E+03  0.54391483289E+03  0.00000000000E+00 0.  1.
         25    1    1    2    0    0 -0.62802067769E+02  0.85663205113E+02 -0.16906042294E+03  0.23556041907E+03  0.12500000000E+03 0.  0.
         25    1    1    2    0    0 -0.15233046293E+03 -0.28652636358E+03 -0.69530063230E+02  0.35462847694E+03  0.12500000000E+03 0.  0.
         25    1    1    2    0    0  0.21513253070E+03  0.20086315847E+03  0.67836182753E+02  0.32688646635E+03  0.12500000000E+03 0.  0.
</event>
<event>
 5    0  0.5590591E-005  0.2487562E+03  0.7546771E-02  0.1114093E+00
         21   -1    0    0  502  501  0.00000000000E+00  0.00000000000E+00  0.18997446866E+03  0.18997446866E+03  0.00000000000E+00 0.  1.
         21   -1    0    0  501  502 -0.00000000000E+00 -0.00000000000E+00 -0.32572603801E+03  0.32572603801E+03  0.00000000000E+00 0.  1.
         25    1    1    2    0    0  0.32601805103E+02  0.54755423909E+02 -0.89433375564E+01  0.14059166913E+03  0.12500000000E+03 0.  0.
         25    1    1    2    0    0 -0.24510636686E+02  0.64617378766E+02 -0.14200313409E+03  0.20141019597E+03  0.12500000000E+03 0.  0.
         25    1    1    2    0    0 -0.80911684173E+01 -0.11937280267E+03  0.15194902292E+02  0.17369864156E+03  0.12500000000E+03 0.  0.
</event>
<event>
 5    0  0.5590591E-005  0.2821182E+03  0.7546771E-02  0.1094538E+00
         21   -1    0    0  502  501  0.00000000000E+00  0.00000000000E+00  0.17273859227E+03  0.17273859227E+03  0.00000000000E+00 0. -1.
         21   -1    0    0  501  502 -0.00000000000E+00 -0.00000000000E+00 -0.46075798774E+03  0.46075798774E+03  0.00000000000E+00 0. -1.
         25    1    1    2    0    0  0.31248118700E+02 -0.90811050511E+02 -0.18913105083E+03  0.24620854211E+03  0.12500000000E+03 0.  0.
         25    1    1    2    0    0  0.10026979485E+03 -0.18188975371E+02 -0.60017968368E+02  0.17208145488E+03  0.12500000000E+03 0.  0.
         25    1    1    2    0    0 -0.13151791355E+03  0.10900002588E+03 -0.38870376267E+02  0.21520658303E+03  0.12500000000E+03 0.  0.
</event>
<event>
 5    0  0.5590591E-005  0.2324873E+03  0.7546771E-02  0.1124901E+00
         21   -1    0    0  502  501  0.00000000000E+00  0.00000000000E+00  0.26843692005E+03  0.26843692005E+03  0.00000000000E+00 0. -1.
         21   -1    0    0  501  502 -0.00000000000E+00 -0.00000000000E+00 -0.20135207409E+03  0.20135207409E+03  0.00000000000E+00 0. -1.
         25    1    1    2    0    0 -0.78156011717E+01  0.63215361475E+02  0.53223137264E+02  0.15004988467E+03  0.12500000000E+03 0.  0.
         25    1    1    2    0    0 -0.32863487366E+02 -0.92177488475E+00 -0.74847206001E+02  0.14935850400E+03  0.12500000000E+03 0.  0.
         25    1    1    2    0    0  0.40679088538E+02 -0.62293586591E+02  0.88708914695E+02  0.17038060547E+03  0.12500000000E+03 0.  0.
</event>
<event>
 5    0  0.5590591E-005  0.3241600E+03  0.7546771E-02  0.1073751E+00
         21   -1    0    0  502  501  0.00000000000E+00  0.00000000000E+00  0.26840846390E+03  0.26840846390E+03  0.00000000000E+00 0.  1.
         21   -1    0    0  501  502 -0.00000000000E+00 -0.00000000000E+00 -0.39149183890E+03  0.39149183890E+03  0.00000000000E+00 0.  1.
         25    1    1    2    0    0 -0.73350686225E+02 -0.18437474782E+02  0.26112599451E+02  0.14841540182E+03  0.12500000000E+03 0.  0.
         25    1    1    2    0    0  0.93056624483E+02  0.27917875799E+01 -0.28522963049E+03  0.32503580041E+03  0.12500000000E+03 0.  0.
         25    1    1    2    0    0 -0.19705938258E+02  0.15645687202E+02  0.13603365604E+03  0.18644910058E+03  0.12500000000E+03 0.  0.
</event>
<event>
 5    0  0.5590591E-005  0.2941287E+03  0.7546771E-02  0.1088213E+00
         21   -1    0    0  502  501  0.00000000000E+00  0.00000000000E+00  0.40351255689E+03  0.40351255689E+03  0.00000000000E+00 0. -1.
         21   -1    0    0  501  502 -0.00000000000E+00 -0.00000000000E+00 -0.21439657587E+03  0.21439657587E+03  0.00000000000E+00 0. -1.
         25    1    1    2    0    0  0.15971002565E+03 -0.52601300078E+02 -0.49619347453E+02  0.21531667076E+03  0.12500000000E+03 0.  0.
         25    1    1    2    0    0 -0.63038437101E+02  0.80283422388E+02  0.95467046530E+02  0.18750527842E+03  0.12500000000E+03 0.  0.
         25    1    1    2    0    0 -0.96671588552E+02 -0.27682122310E+02  0.14326828194E+03  0.21508718358E+03  0.12500000000E+03 0.  0.
</event>
<event>
 5    0  0.5590591E-005  0.2564973E+03  0.7546771E-02  0.1109266E+00
         21   -1    0    0  502  501  0.00000000000E+00  0.00000000000E+00  0.11254936360E+04  0.11254936360E+04  0.00000000000E+00 0.  1.
         21   -1    0    0  501  502 -0.00000000000E+00 -0.00000000000E+00 -0.58455107573E+02  0.58455107573E+02  0.00000000000E+00 0.  1.
         25    1    1    2    0    0 -0.66386970867E+02 -0.10096818779E+03  0.28514034347E+03  0.33396380092E+03  0.12500000000E+03 0.  0.
         25    1    1    2    0    0 -0.13551041113E+02  0.30028928688E+02  0.55437060941E+03  0.56924260193E+03  0.12500000000E+03 0.  0.
         25    1    1    2    0    0  0.79938011981E+02  0.70939259103E+02  0.22752757552E+03  0.28074234071E+03  0.12500000000E+03 0.  0.
</event>
<event>
 5    0  0.5590591E-005  0.2493072E+03  0.7546771E-02  0.1113743E+00
         21   -1    0    0  502  501  0.00000000000E+00  0.00000000000E+00  0.82491338674E+02  0.82491338674E+02  0.00000000000E+00 0.  1.
         21   -1    0    0  501  502 -0.00000000000E+00 -0.00000000000E+00 -0.75346159170E+03  0.75346159170E+03  0.00000000000E+00 0.  1.
         25    1    1    2    0    0  0.94857970958E+01 -0.66567068580E+02 -0.42938613357E+03  0.45223733444E+03  0.12500000000E+03 0.  0.
         25    1    1    2    0    0  0.62462854870E+02  0.26624267551E+02 -0.15680087386E+03  0.21171200699E+03  0.12500000000E+03 0.  0.
         25    1    1    2    0    0 -0.71948651965E+02  0.39942801029E+02 -0.84783245604E+02  0.17200358894E+03  0.12500000000E+03 0.  0.
</event>
<event>
 5    0  0.5590591E-005  0.3090951E+03  0.7546771E-02  0.1080780E+00
         21   -1    0    0  502  501  0.00000000000E+00  0.00000000000E+00  0.51204687232E+03  0.51204687232E+03  0.00000000000E+00 0.  1.
         21   -1    0    0  501  502 -0.00000000000E+00 -0.00000000000E+00 -0.18658403973E+03  0.18658403973E+03  0.00000000000E+00 0.  1.
         25    1    1    2    0    0  0.88095722342E+02  0.10207701737E+03  0.34036827570E+03  0.38685415453E+03  0.12500000000E+03 0.  0.
         25    1    1    2    0    0 -0.83654801890E+02 -0.90551866304E+02 -0.47755925067E+02  0.18194338336E+03  0.12500000000E+03 0.  0.
         25    1    1    2    0    0 -0.44409204521E+01 -0.11525151070E+02  0.32850481957E+02  0.12983337416E+03  0.12500000000E+03 0.  0.
</event>
<event>
 5    0  0.5590591E-005  0.3237071E+03  0.7546771E-02  0.1073956E+00
         21   -1    0    0  502  501  0.00000000000E+00  0.00000000000E+00  0.93915802615E+03  0.93915802615E+03  0.00000000000E+00 0.  1.
         21   -1    0    0  501  502 -0.00000000000E+00 -0.00000000000E+00 -0.11157471922E+03  0.11157471922E+03  0.00000000000E+00 0.  1.
         25    1    1    2    0    0  0.82096787697E+02 -0.11311361159E+03  0.28274617090E+03  0.33927123196E+03  0.12500000000E+03 0.  0.
         25    1    1    2    0    0 -0.11974175023E+03 -0.99539614375E+02  0.17614199296E+03  0.26626532493E+03  0.12500000000E+03 0.  0.
         25    1    1    2    0    0  0.37644962530E+02  0.21265322596E+03  0.36869514306E+03  0.44519618848E+03  0.12500000000E+03 0.  0.
</event>
<event>
 5    0  0.5590591E-005  0.2579724E+03  0.7546771E-02  0.1108368E+00
         21   -1    0    0  502  501  0.00000000000E+00  0.00000000000E+00  0.19320880868E+04  0.19320880868E+04  0.00000000000E+00 0.  1.
         21   -1    0    0  501  502 -0.00000000000E+00 -0.00000000000E+00 -0.34444470030E+02  0.34444470030E+02  0.00000000000E+00 0.  1.
         25    1    1    2    0    0 -0.20542443803E+02 -0.29351322998E+02  0.23422287152E+03  0.26789708043E+03  0.12500000000E+03 0.  0.
         25    1    1    2    0    0  0.72394662663E+02  0.11206964880E+03  0.78483725264E+03  0.80585054849E+03  0.12500000000E+03 0.  0.
         25    1    1    2    0    0 -0.51852218860E+02 -0.82718325800E+02  0.87858349257E+03  0.89278492788E+03  0.12500000000E+03 0.  0.
</event>
<event>
 5    0  0.5590591E-005  0.2417590E+03  0.7546771E-02  0.1118627E+00
         21   -1    0    0  502  501  0.00000000000E+00  0.00000000000E+00  0.67805338772E+03  0.67805338772E+03  0.00000000000E+00 0.  1.
         21   -1    0    0  501  502 -0.00000000000E+00 -0.00000000000E+00 -0.86198804546E+02  0.86198804546E+02  0.00000000000E+00 0.  1.
         25    1    1    2    0    0  0.13519621720E+02  0.46871668547E+02  0.27199366453E+03  0.30329076318E+03  0.12500000000E+03 0.  0.
         25    1    1    2    0    0  0.67352317301E+02 -0.44841936564E+02  0.58139460437E+02  0.15985096428E+03  0.12500000000E+03 0.  0.
         25    1    1    2    0    0 -0.80871939021E+02 -0.20297319827E+01  0.26172145821E+03  0.30111046482E+03  0.12500000000E+03 0.  0.
</event>
<event>
 5    0  0.5590591E-005  0.2945750E+03  0.7546771E-02  0.1087984E+00
         21   -1    0    0  502  501  0.00000000000E+00  0.00000000000E+00  0.23141396444E+03  0.23141396444E+03  0.00000000000E+00 0.  1.
         21   -1    0    0  501  502 -0.00000000000E+00 -0.00000000000E+00 -0.37497484068E+03  0.37497484068E+03  0.00000000000E+00 0.  1.
         25    1    1    2    0    0  0.12316087616E+03 -0.45455588388E+02 -0.35620313978E+02  0.18473932635E+03  0.12500000000E+03 0.  0.
         25    1    1    2    0    0 -0.19670228378E+03 -0.26880749045E+02 -0.15602848681E+02  0.23512297208E+03  0.12500000000E+03 0.  0.
         25    1    1    2    0    0  0.73541407611E+02  0.72336337433E+02 -0.92337713577E+02  0.18652650668E+03  0.12500000000E+03 0.  0.
</event>
<event>
 5    0  0.5590591E-005  0.2363664E+03  0.7546771E-02  0.1122237E+00
         21   -1    0    0  502  501  0.00000000000E+00  0.00000000000E+00  0.28112209159E+03  0.28112209159E+03  0.00000000000E+00 0. -1.
         21   -1    0    0  501  502 -0.00000000000E+00 -0.00000000000E+00 -0.19873597332E+03  0.19873597332E+03  0.00000000000E+00 0. -1.
         25    1    1    2    0    0  0.27644483893E+02  0.64203638208E+02  0.13479419239E+02  0.14385068436E+03  0.12500000000E+03 0.  0.
         25    1    1    2    0    0  0.66123684685E+02 -0.75321419573E+02 -0.10134034287E+02  0.16054082526E+03  0.12500000000E+03 0.  0.
         25    1    1    2    0    0 -0.93768168578E+02  0.11117781365E+02  0.79040733327E+02  0.17546655529E+03  0.12500000000E+03 0.  0.
</event>
<event>
 5    0  0.5590591E-005  0.2937166E+03  0.7546771E-02  0.1088424E+00
         21   -1    0    0  502  501  0.00000000000E+00  0.00000000000E+00  0.24831094294E+03  0.24831094294E+03  0.00000000000E+00 0.  1.
         21   -1    0    0  501  502 -0.00000000000E+00 -0.00000000000E+00 -0.34742496661E+03  0.34742496661E+03  0.00000000000E+00 0.  1.
         25    1    1    2    0    0 -0.16768227338E+03 -0.11933586134E+03 -0.62467638270E+01  0.24087842300E+03  0.12500000000E+03 0.  0.
         25    1    1    2    0    0  0.13033204350E+03  0.84513671185E+02 -0.17327555931E+02  0.20013556999E+03  0.12500000000E+03 0.  0.
         25    1    1    2    0    0  0.37350229886E+02  0.34822190151E+02 -0.75539703912E+02  0.15472191657E+03  0.12500000000E+03 0.  0.
</event>
<event>
 5    0  0.5590591E-005  0.2534626E+03  0.7546771E-02  0.1111136E+00
         21   -1    0    0  502  501  0.00000000000E+00  0.00000000000E+00  0.56805415479E+02  0.56805415479E+02  0.00000000000E+00 0. -1.
         21   -1    0    0  501  502 -0.00000000000E+00 -0.00000000000E+00 -0.11309356080E+04  0.11309356080E+04  0.00000000000E+00 0. -1.
         25    1    1    2    0    0  0.55498233831E+02  0.13190853645E+02 -0.14075348111E+03  0.19669925018E+03  0.12500000000E+03 0.  0.
         25    1    1    2    0    0 -0.31147368454E+02 -0.10530970823E+03 -0.59704478550E+03  0.61979655460E+03  0.12500000000E+03 0.  0.
         25    1    1    2    0    0 -0.24350865377E+02  0.92118854586E+02 -0.33633192595E+03  0.37124521873E+03  0.12500000000E+03 0.  0.
</event>
<event>
 5    0  0.5590591E-005  0.3317731E+03  0.7546771E-02  0.1070355E+00
         21   -1    0    0  502  501  0.00000000000E+00  0.00000000000E+00  0.86647366070E+03  0.86647366070E+03  0.00000000000E+00 0. -1.
         21   -1    0    0  501  502 -0.00000000000E+00 -0.00000000000E+00 -0.12703607779E+03  0.12703607779E+03  0.00000000000E+00 0. -1.
         25    1    1    2    0    0 -0.82830419396E+02  0.14059024671E+03  0.58873482247E+03  0.62358655136E+03  0.12500000000E+03 0.  0.
         25    1    1    2    0    0  0.99273288220E+01 -0.13855973771E+03  0.49475704482E+02  0.19331372974E+03  0.12500000000E+03 0.  0.
         25    1    1    2    0    0  0.72903090574E+02 -0.20305090086E+01  0.10122705596E+03  0.17660945739E+03  0.12500000000E+03 0.  0.
</event>
<event>
 5    0  0.5590591E-005  0.2620412E+03  0.7546771E-02  0.1105923E+00
         21   -1    0    0  502  501  0.00000000000E+00  0.00000000000E+00  0.15168782048E+03  0.15168782048E+03  0.00000000000E+00 0. -1.
         21   -1    0    0  501  502 -0.00000000000E+00 -0.00000000000E+00 -0.45267714876E+03  0.45267714876E+03  0.00000000000E+00 0. -1.
         25    1    1    2    0    0 -0.57639395454E+01 -0.14358905762E+03 -0.55422371235E+02  0.19836249570E+03  0.12500000000E+03 0.  0.
         25    1    1    2    0    0 -0.69638355854E+02  0.70264271157E+02 -0.13308597540E+03  0.20766185315E+03  0.12500000000E+03 0.  0.
         25    1    1    2    0    0  0.75402295400E+02  0.73324786461E+02 -0.11248098165E+03  0.19834062039E+03  0.12500000000E+03 0.  0.
</event>
<event>
 5    0  0.5590591E-005  0.2808042E+03  0.7546771E-02  0.1095251E+00
         21   -1    0    0  502  501  0.00000000000E+00  0.00000000000E+00  0.19365729267E+03  0.19365729267E+03  0.00000000000E+00 0. -1.
         21   -1    0    0  501  502 -0.00000000000E+00 -0.00000000000E+00 -0.40716764038E+03  0.40716764038E+03  0.00000000000E+00 0. -1.
         25    1    1    2    0    0  0.90566793709E+02  0.26502668930E+01 -0.22175042690E+03  0.27019922256E+03  0.12500000000E+03 0.  0.
         25    1    1    2    0    0  0.33582508107E+02  0.35785550528E+02 -0.46610780658E+02  0.14214765334E+03  0.12500000000E+03 0.  0.
         25    1    1    2    0    0 -0.12414930182E+03 -0.38435817421E+02  0.54850859845E+02  0.18847805715E+03  0.12500000000E+03 0.  0.
</event>
<event>
 5    0  0.5590591E-005  0.3771238E+03  0.7546771E-02  0.1052002E+00
         21   -1    0    0  502  501  0.00000000000E+00  0.00000000000E+00  0.22539758202E+03  0.22539758202E+03  0.00000000000E+00 0. -1.
         21   -1    0    0  501  502 -0.00000000000E+00 -0.00000000000E+00 -0.63098443664E+03  0.63098443664E+03  0.00000000000E+00 0. -1.
         25    1    1    2    0    0  0.47242093502E+02 -0.15888102865E+03 -0.19719990486E+02  0.20853986355E+03  0.12500000000E+03 0.  0.
         25    1    1    2    0    0 -0.22708563311E+01 -0.14336823243E+03 -0.14329255297E+03  0.23815407323E+03  0.12500000000E+03 0.  0.
         25    1    1    2    0    0 -0.44971237171E+02  0.30224926108E+03 -0.24257431116E+03  0.40968808188E+03  0.12500000000E+03 0.  0.
</event>
<event>
 5    0  0.5590591E-005  0.2980532E+03  0.7546771E-02  0.1086218E+00
         21   -1    0    0  502  501  0.00000000000E+00  0.00000000000E+00  0.26270573186E+03  0.26270573186E+03  0.00000000000E+00 0.  1.
         21   -1    0    0  501  502 -0.00000000000E+00 -0.00000000000E+00 -0.33815662300E+03  0.33815662300E+03  0.00000000000E+00 0.  1.
         25    1    1    2    0    0  0.69867809925E+02  0.18588733464E+03 -0.12493848688E+03  0.26583874351E+03  0.12500000000E+03 0.  0.
         25    1    1    2    0    0 -0.27216327698E+02 -0.10964365037E+03  0.67410510597E+02  0.18147075659E+03  0.12500000000E+03 0.  0.
         25    1    1    2    0    0 -0.42651482227E+02 -0.76243684278E+02 -0.17922914852E+02  0.15355285476E+03  0.12500000000E+03 0.  0.
</event>
<event>
 5    0  0.5590591E-005  0.4025770E+03  0.7546771E-02  0.1042891E+00
         21   -1    0    0  502  501  0.00000000000E+00  0.00000000000E+00  0.30589034138E+03  0.30589034138E+03  0.00000000000E+00 0.  1.
         21   -1    0    0  501  502 -0.00000000000E+00 -0.00000000000E+00 -0.52982454514E+03  0.52982454514E+03  0.00000000000E+00 0.  1.
         25    1    1    2    0    0  0.15164928838E+03 -0.16398197587E+03 -0.16987444874E+03  0.30719688054E+03  0.12500000000E+03 0.  0.
         25    1    1    2    0    0  0.37060041928E+02 -0.71417676886E+02 -0.12512070796E+03  0.19430420181E+03  0.12500000000E+03 0.  0.
         25    1    1    2    0    0 -0.18870933031E+03  0.23539965276E+03  0.71060952937E+02  0.33421380417E+03  0.12500000000E+03 0.  0.
</event>
<event>
 5    0  0.5590591E-005  0.5282283E+03  0.7546771E-02  0.1006663E+00
         21   -1    0    0  502  501  0.00000000000E+00  0.00000000000E+00  0.12951575177E+04  0.12951575177E+04  0.00000000000E+00 0. -1.
         21   -1    0    0  501  502 -0.00000000000E+00 -0.00000000000E+00 -0.21543719241E+03  0.21543719241E+03  0.00000000000E+00 0. -1.
         25    1    1    2    0    0  0.28043628185E+03  0.30404214044E+03  0.78859912921E+03  0.89922172902E+03  0.12500000000E+03 0.  0.
         25    1    1    2    0    0 -0.73366249016E+02 -0.23707927176E+03  0.20762830926E+03  0.34687707102E+03  0.12500000000E+03 0.  0.
         25    1    1    2    0    0 -0.20707003284E+03 -0.66962868682E+02  0.83492886768E+02  0.26449591003E+03  0.12500000000E+03 0.  0.
</event>
<event>
 5    0  0.5590591E-005  0.3079965E+03  0.7546771E-02  0.1081310E+00
         21   -1    0    0  502  501  0.00000000000E+00  0.00000000000E+00  0.16571806265E+03  0.16571806265E+03  0.00000000000E+00 0.  1.
         21   -1    0    0  501  502 -0.00000000000E+00 -0.00000000000E+00 -0.57242893329E+03  0.57242893329E+03  0.00000000000E+00 0.  1.
         25    1    1    2    0    0  0.12510117999E+03  0.21736447425E+01 -0.33925653812E+03  0.38258989613E+03  0.12500000000E+03 0.  0.
         25    1    1    2    0    0 -0.13995221857E+02  0.32911767961E+02  0.59196848877E+02  0.14285768310E+03  0.12500000000E+03 0.  0.
         25    1    1    2    0    0 -0.11110595813E+03 -0.35085412704E+02 -0.12665118140E+03  0.21269941671E+03  0.12500000000E+03 0.  0.
</event>
<event>
 5    0  0.5590591E-005  0.3783146E+03  0.7546771E-02  0.1051558E+00
         21   -1    0    0  502  501  0.00000000000E+00  0.00000000000E+00  0.30985525565E+03  0.30985525565E+03  0.00000000000E+00 0. -1.
         21   -1    0    0  501  502 -0.00000000000E+00 -0.00000000000E+00 -0.46189930889E+03  0.46189930889E+03  0.00000000000E+00 0. -1.
         25    1    1    2    0    0 -0.74344123102E+02 -0.20683494145E+03 -0.36638726155E+02  0.25548999570E+03  0.12500000000E+03 0.  0.
         25    1    1    2    0    0  0.18788869491E+03  0.21542402757E+03 -0.78168950695E+00  0.31198603233E+03  0.12500000000E+03 0.  0.
         25    1    1    2    0    0 -0.11354457181E+03 -0.85890861180E+01 -0.11462363758E+03  0.20427853651E+03  0.12500000000E+03 0.  0.
</event>
<event>
 5    0  0.5590591E-005  0.2923560E+03  0.7546771E-02  0.1089125E+00
         21   -1    0    0  502  501  0.00000000000E+00  0.00000000000E+00  0.10888225654E+04  0.10888225654E+04  0.00000000000E+00 0.  1.
         21   -1    0    0  501  502 -0.00000000000E+00 -0.00000000000E+00 -0.78499517807E+02  0.78499517807E+02  0.00000000000E+00 0.  1.
         25    1    1    2    0    0 -0.82965793312E+02  0.23411842510E+02  0.62847923821E+03  0.64656213166E+03  0.12500000000E+03 0.  0.
         25    1    1    2    0    0 -0.66697679416E+02 -0.58385193951E+02  0.13478941934E+03  0.20408478356E+03  0.12500000000E+03 0.  0.
         25    1    1    2    0    0  0.14966347273E+03  0.34973351442E+02  0.24705438999E+03  0.31667516794E+03  0.12500000000E+03 0.  0.
</event>
<event>
 5    0  0.5590591E-005  0.2910124E+03  0.7546771E-02  0.1089822E+00
         21   -1    0    0  502  501  0.00000000000E+00  0.00000000000E+00  0.16654113843E+03  0.16654113843E+03  0.00000000000E+00 0.  1.
         21   -1    0    0  501  502 -0.00000000000E+00 -0.00000000000E+00 -0.50851220251E+03  0.50851220251E+03  0.00000000000E+00 0.  1.
         25    1    1    2    0    0 -0.11299876138E+03 -0.70099275502E+02 -0.25459585162E+03  0.31325177759E+03  0.12500000000E+03 0.  0.
         25    1    1    2    0    0  0.14251652864E+03  0.84116597504E+02 -0.28567915410E+01  0.20741196728E+03  0.12500000000E+03 0.  0.
         25    1    1    2    0    0 -0.29517767263E+02 -0.14017322002E+02 -0.84518420925E+02  0.15438959607E+03  0.12500000000E+03 0.  0.
</event>
<event>
 5    0  0.5590591E-005  0.5833127E+03  0.7546771E-02  0.9940645E-01
         21   -1    0    0  502  501  0.00000000000E+00  0.00000000000E+00  0.95283942857E+03  0.95283942857E+03  0.00000000000E+00 0. -1.
         21   -1    0    0  501  502 -0.00000000000E+00 -0.00000000000E+00 -0.35709446342E+03  0.35709446342E+03  0.00000000000E+00 0. -1.
         25    1    1    2    0    0  0.16556650007E+03  0.26431219112E+03 -0.15029586327E+03  0.36808565149E+03  0.12500000000E+03 0.  0.
         25    1    1    2    0    0  0.12467802695E+03 -0.17000084011E+03  0.32089474700E+03  0.40378624877E+03  0.12500000000E+03 0.  0.
         25    1    1    2    0    0 -0.29024452703E+03 -0.94311351006E+02  0.42514608142E+03  0.53806199173E+03  0.12500000000E+03 0.  0.
</event>
<event>
 5    0  0.6264392E-005  0.6730642E+03  0.7546771E-02  0.9764438E-01
         21   -1    0    0  502  501  0.00000000000E+00  0.00000000000E+00  0.45738353174E+03  0.45738353174E+03  0.00000000000E+00 0.  1.
         21   -1    0    0  501  502 -0.00000000000E+00 -0.00000000000E+00 -0.99044990585E+03  0.99044990585E+03  0.00000000000E+00 0.  1.
         25    1    1    2    0    0 -0.28826464830E+03  0.74889116371E+01  0.26722969746E+03  0.41254006165E+03  0.12500000000E+03 0.  0.
         25    1    1    2    0    0  0.15393721905E+01 -0.22807456378E+03 -0.43124391059E+03  0.50360370008E+03  0.12500000000E+03 0.  0.
         25    1    1    2    0    0  0.28672527611E+03  0.22058565214E+03 -0.36905216098E+03  0.53168967586E+03  0.12500000000E+03 0.  0.
</event>
<event>
 5    0  0.5590591E-005  0.4527116E+03  0.7546771E-02  0.1026917E+00
         21   -1    0    0  502  501  0.00000000000E+00  0.00000000000E+00  0.13015013385E+04  0.13015013385E+04  0.00000000000E+00 0.  1.
         21   -1    0    0  501  502 -0.00000000000E+00 -0.00000000000E+00 -0.15747026150E+03  0.15747026150E+03  0.00000000000E+00 0.  1.
         25    1    1    2    0    0  0.27132321971E+02 -0.66454304474E+02  0.10505056354E+04  0.10603487291E+04  0.12500000000E+03 0.  0.
         25    1    1    2    0    0 -0.21980069152E+02  0.15008703904E+03  0.13977852973E+03  0.24118930346E+03  0.12500000000E+03 0.  0.
         25    1    1    2    0    0 -0.51522528194E+01 -0.83632734567E+02 -0.46253088050E+02  0.15743356743E+03  0.12500000000E+03 0.  0.
</event>
<event>
 5    0  0.5590591E-005  0.3205613E+03  0.7546771E-02  0.1075391E+00
         21   -1    0    0  502  501  0.00000000000E+00  0.00000000000E+00  0.60835890412E+03  0.60835890412E+03  0.00000000000E+00 0.  1.
         21   -1    0    0  501  502 -0.00000000000E+00 -0.00000000000E+00 -0.16891275475E+03  0.16891275475E+03  0.00000000000E+00 0.  1.
         25    1    1    2    0    0  0.34214689423E+02  0.93325285169E+02  0.20800723476E+02  0.16105255019E+03  0.12500000000E+03 0.  0.
         25    1    1    2    0    0 -0.19765657839E+03 -0.72226262872E+02  0.24224724259E+03  0.34437404456E+03  0.12500000000E+03 0.  0.
         25    1    1    2    0    0  0.16344188896E+03 -0.21099022297E+02  0.17639818331E+03  0.27184506412E+03  0.12500000000E+03 0.  0.
</event>
<event>
 5    0  0.5590591E-005  0.2278376E+03  0.7546771E-02  0.1128171E+00
         21   -1    0    0  502  501  0.00000000000E+00  0.00000000000E+00  0.47078452853E+03  0.47078452853E+03  0.00000000000E+00 0. -1.
         21   -1    0    0  501  502 -0.00000000000E+00 -0.00000000000E+00 -0.11026268462E+03  0.11026268462E+03  0.00000000000E+00 0. -1.
         25    1    1    2    0    0  0.55453562179E+02  0.15400475439E+02  0.62720955105E+02  0.15123223999E+03  0.12500000000E+03 0.  0.
         25    1    1    2    0    0 -0.32690043883E+02 -0.62147676337E+02  0.58452483391E+02  0.15483108686E+03  0.12500000000E+03 0.  0.
         25    1    1    2    0    0 -0.22763518296E+02  0.46747200898E+02  0.23934840541E+03  0.27498388631E+03  0.12500000000E+03 0.  0.
</event>
<event>
 5    0  0.5590591E-005  0.4326802E+03  0.7546771E-02  0.1033017E+00
         21   -1    0    0  502  501  0.00000000000E+00  0.00000000000E+00  0.27155266497E+03  0.27155266497E+03  0.00000000000E+00 0. -1.
         21   -1    0    0  501  502 -0.00000000000E+00 -0.00000000000E+00 -0.68941382154E+03  0.68941382154E+03  0.00000000000E+00 0. -1.
         25    1    1    2    0    0  0.31378803767E+03 -0.13384924163E+03 -0.67574031445E+02  0.36955351682E+03  0.12500000000E+03 0.  0.
         25    1    1    2    0    0 -0.10860292406E+03 -0.37058082755E+01 -0.24390047024E+03  0.29482328184E+03  0.12500000000E+03 0.  0.
         25    1    1    2    0    0 -0.20518511361E+03  0.13755504991E+03 -0.10638665488E+03  0.29658968785E+03  0.12500000000E+03 0.  0.
</event>
<event>
 5    0  0.5590591E-005  0.3489486E+03  0.7546771E-02  0.1063047E+00
         21   -1    0    0  502  501  0.00000000000E+00  0.00000000000E+00  0.77566142418E+03  0.77566142418E+03  0.00000000000E+00 0.  1.
         21   -1    0    0  501  502 -0.00000000000E+00 -0.00000000000E+00 -0.15698231668E+03  0.15698231668E+03  0.00000000000E+00 0.  1.
         25    1    1    2    0    0  0.82412477431E+02  0.17101080960E+03  0.25308550306E+03  0.34016729016E+03  0.12500000000E+03 0.  0.
         25    1    1    2    0    0 -0.88204983957E+02  0.53617142213E+02  0.22412170542E+02  0.16365274982E+03  0.12500000000E+03 0.  0.
         25    1    1    2    0    0  0.57925065254E+01 -0.22462795181E+03  0.34318143390E+03  0.42882370088E+03  0.12500000000E+03 0.  0.
</event>
<event>
 5    0  0.5590591E-005  0.2268052E+03  0.7546771E-02  0.1128909E+00
         21   -1    0    0  502  501  0.00000000000E+00  0.00000000000E+00  0.19263314126E+03  0.19263314126E+03  0.00000000000E+00 0. -1.
         21   -1    0    0  501  502 -0.00000000000E+00 -0.00000000000E+00 -0.26703909836E+03  0.26703909836E+03  0.00000000000E+00 0. -1.
         25    1    1    2    0    0  0.49010216721E+02 -0.23117078967E+02 -0.48086356500E+00  0.13624108012E+03  0.12500000000E+03 0.  0.
         25    1    1    2    0    0  0.50600179007E+02  0.87626027207E+01  0.21331737657E+02  0.13681083420E+03  0.12500000000E+03 0.  0.
         25    1    1    2    0    0 -0.99610395728E+02  0.14354476246E+02 -0.95256831201E+02  0.18662032530E+03  0.12500000000E+03 0.  0.
</event>
<event>
 5    0  0.5590591E-005  0.2887867E+03  0.7546771E-02  0.1090984E+00
         21   -1    0    0  502  501  0.00000000000E+00  0.00000000000E+00  0.59642400458E+02  0.59642400458E+02  0.00000000000E+00 0.  1.
         21   -1    0    0  501  502 -0.00000000000E+00 -0.00000000000E+00 -0.13982962496E+04  0.13982962496E+04  0.00000000000E+00 0.  1.
         25    1    1    2    0    0  0.10432750665E+03  0.62093145523E+02 -0.90340915548E+03  0.92006135099E+03  0.12500000000E+03 0.  0.
         25    1    1    2    0    0 -0.20338392729E+01 -0.66276894694E+01 -0.94924158538E+02  0.15711033907E+03  0.12500000000E+03 0.  0.
         25    1    1    2    0    0 -0.10229366737E+03 -0.55465456054E+02 -0.34032053510E+03  0.38076695997E+03  0.12500000000E+03 0.  0.
</event>
<event>
 5    0  0.5590591E-005  0.2316918E+03  0.7546771E-02  0.1125455E+00
         21   -1    0    0  502  501  0.00000000000E+00  0.00000000000E+00  0.11975335630E+03  0.11975335630E+03  0.00000000000E+00 0. -1.
         21   -1    0    0  501  502 -0.00000000000E+00 -0.00000000000E+00 -0.44826377697E+03  0.44826377697E+03  0.00000000000E+00 0. -1.
         25    1    1    2    0    0  0.67992500047E+02  0.56650099621E+01 -0.62629588395E+02  0.15557164826E+03  0.12500000000E+03 0.  0.
         25    1    1    2    0    0  0.10449592179E+02 -0.27963325942E+02 -0.27857422562E+02  0.13149972459E+03  0.12500000000E+03 0.  0.
         25    1    1    2    0    0 -0.78442092226E+02  0.22298315980E+02 -0.23802340971E+03  0.28094576042E+03  0.12500000000E+03 0.  0.
</event>
<event>
 5    0  0.5590591E-005  0.2389363E+03  0.7546771E-02  0.1120503E+00
         21   -1    0    0  502  501  0.00000000000E+00  0.00000000000E+00  0.57075362932E+03  0.57075362932E+03  0.00000000000E+00 0. -1.
         21   -1    0    0  501  502 -0.00000000000E+00 -0.00000000000E+00 -0.10002657657E+03  0.10002657657E+03  0.00000000000E+00 0. -1.
         25    1    1    2    0    0  0.30165212139E+02 -0.11834032701E+03  0.20954471700E+03  0.27285227037E+03  0.12500000000E+03 0.  0.
         25    1    1    2    0    0  0.30186708269E+02  0.20643691762E+02  0.12125083313E+03  0.17794427190E+03  0.12500000000E+03 0.  0.
         25    1    1    2    0    0 -0.60351920408E+02  0.97696635251E+02  0.13993150262E+03  0.21998366362E+03  0.12500000000E+03 0.  0.
</event>
<event>
 5    0  0.5590591E-005  0.2873253E+03  0.7546771E-02  0.1091754E+00
         21   -1    0    0  502  501  0.00000000000E+00  0.00000000000E+00  0.98728900890E+03  0.98728900890E+03  0.00000000000E+00 0. -1.
         21   -1    0    0  501  502 -0.00000000000E+00 -0.00000000000E+00 -0.83618731544E+02  0.83618731544E+02  0.00000000000E+00 0. -1.
         25    1    1    2    0    0  0.12934035582E+03  0.18966625433E+02  0.25751951491E+03  0.31469026214E+03  0.12500000000E+03 0.  0.
         25    1    1    2    0    0 -0.12230991751E+03  0.10225336115E+03  0.23879126852E+03  0.31314810507E+03  0.12500000000E+03 0.  0.
         25    1    1    2    0    0 -0.70304383171E+01 -0.12121998658E+03  0.40735949392E+03  0.44306937323E+03  0.12500000000E+03 0.  0.
</event>
<event>
 5    0  0.5590591E-005  0.2943614E+03  0.7546771E-02  0.1088094E+00
         21   -1    0    0  502  501  0.00000000000E+00  0.00000000000E+00  0.12745978818E+03  0.12745978818E+03  0.00000000000E+00 0.  1.
         21   -1    0    0  501  502 -0.00000000000E+00 -0.00000000000E+00 -0.67981135106E+03  0.67981135106E+03  0.00000000000E+00 0.  1.
         25    1    1    2    0    0  0.22108358141E+02  0.99051153161E+02 -0.29844566938E+03  0.33910872595E+03  0.12500000000E+03 0.  0.
         25    1    1    2    0    0  0.54264536119E+02 -0.88831393553E+02 -0.27530441032E+03  0.31977050318E+03  0.12500000000E+03 0.  0.
         25    1    1    2    0    0 -0.76372894260E+02 -0.10219759609E+02  0.21398516819E+02  0.14839191011E+03  0.12500000000E+03 0.  0.
</event>
<event>
 5    0  0.6605854E-005  0.3431060E+03  0.7546771E-02  0.1065481E+00
         21   -1    0    0  502  501  0.00000000000E+00  0.00000000000E+00  0.43346155715E+03  0.43346155715E+03  0.00000000000E+00 0. -1.
         21   -1    0    0  501  502 -0.00000000000E+00 -0.00000000000E+00 -0.27158516031E+03  0.27158516031E+03  0.00000000000E+00 0. -1.
         25    1    1    2    0    0  0.13788396104E+03  0.10685041768E+03  0.92215219713E+02  0.23357578046E+03  0.12500000000E+03 0.  0.
         25    1    1    2    0    0  0.14301959801E+02 -0.20767387678E+03  0.13405289469E+02  0.24318241494E+03  0.12500000000E+03 0.  0.
         25    1    1    2    0    0 -0.15218592084E+03  0.10082345910E+03  0.56255887659E+02  0.22828852206E+03  0.12500000000E+03 0.  0.
</event>
<event>
 5    0  0.5590591E-005  0.3223705E+03  0.7546771E-02  0.1074563E+00
         21   -1    0    0  502  501  0.00000000000E+00  0.00000000000E+00  0.29720080850E+03  0.29720080850E+03  0.00000000000E+00 0. -1.
         21   -1    0    0  501  502 -0.00000000000E+00 -0.00000000000E+00 -0.34967172554E+03  0.34967172554E+03  0.00000000000E+00 0.  1.
         25    1    1    2    0    0 -0.64117821167E+02 -0.53187671846E+02  0.82467486744E+01  0.15044278744E+03  0.12500000000E+03 0.  0.
         25    1    1    2    0    0 -0.10591235018E+03  0.18241462832E+03 -0.26441563544E+02  0.24661037859E+03  0.12500000000E+03 0.  0.
         25    1    1    2    0    0  0.17003017135E+03 -0.12922695648E+03 -0.34276102171E+02  0.24981936800E+03  0.12500000000E+03 0.  0.
</event>
<event>
 5    0  0.5590591E-005  0.2622433E+03  0.7546771E-02  0.1105803E+00
         21   -1    0    0  502  501  0.00000000000E+00  0.00000000000E+00  0.25150703624E+04  0.25150703624E+04  0.00000000000E+00 0.  1.
         21   -1    0    0  501  502 -0.00000000000E+00 -0.00000000000E+00 -0.27343778935E+02  0.27343778935E+02  0.00000000000E+00 0.  1.
         25    1    1    2    0    0 -0.15082602866E+02 -0.43633201581E+02  0.80530951049E+03  0.81625960875E+03  0.12500000000E+03 0.  0.
         25    1    1    2    0    0  0.91615670360E+02  0.13875912718E+03  0.79992346324E+03  0.82652893082E+03  0.12500000000E+03 0.  0.
         25    1    1    2    0    0 -0.76533067494E+02 -0.95125925596E+02  0.88249360972E+03  0.89962560176E+03  0.12500000000E+03 0.  0.
</event>
<event>
 5    0  0.5590591E-005  0.2423150E+03  0.7546771E-02  0.1118260E+00
         21   -1    0    0  502  501  0.00000000000E+00  0.00000000000E+00  0.80886049898E+02  0.80886049898E+02  0.00000000000E+00 0.  1.
         21   -1    0    0  501  502 -0.00000000000E+00 -0.00000000000E+00 -0.72591712429E+03  0.72591712429E+03  0.00000000000E+00 0.  1.
         25    1    1    2    0    0  0.16460166660E+02  0.41729032092E+02 -0.34296222090E+03  0.36777756073E+03  0.12500000000E+03 0.  0.
         25    1    1    2    0    0 -0.31834508525E+02  0.48332542255E+02 -0.56851425740E+02  0.14901864039E+03  0.12500000000E+03 0.  0.
         25    1    1    2    0    0  0.15374341865E+02 -0.90061574347E+02 -0.24521742775E+03  0.29000697308E+03  0.12500000000E+03 0.  0.
</event>
<event>
 5    0  0.5590591E-005  0.3071815E+03  0.7546771E-02  0.1081705E+00
         21   -1    0    0  502  501  0.00000000000E+00  0.00000000000E+00  0.10714674086E+04  0.10714674086E+04  0.00000000000E+00 0. -1.
         21   -1    0    0  501  502 -0.00000000000E+00 -0.00000000000E+00 -0.88066566650E+02  0.88066566650E+02  0.00000000000E+00 0. -1.
         25    1    1    2    0    0 -0.23658607160E+02  0.54479894587E+02  0.42284327162E+03  0.44491484687E+03  0.12500000000E+03 0.  0.
         25    1    1    2    0    0 -0.33127335246E+02 -0.20005656200E+03  0.25123808648E+03  0.34621615277E+03  0.12500000000E+03 0.  0.
         25    1    1    2    0    0  0.56785942406E+02  0.14557666741E+03  0.30931948382E+03  0.36840297559E+03  0.12500000000E+03 0.  0.
</event>
<event>
 5    0  0.5590591E-005  0.2242533E+03  0.7546771E-02  0.1130751E+00
         21   -1    0    0  502  501  0.00000000000E+00  0.00000000000E+00  0.89298609007E+03  0.89298609007E+03  0.00000000000E+00 0.  1.
         21   -1    0    0  501  502 -0.00000000000E+00 -0.00000000000E+00 -0.56316141766E+02  0.56316141766E+02  0.00000000000E+00 0.  1.
         25    1    1    2    0    0  0.42965750961E+02  0.99297151239E+02  0.33679266973E+03  0.37518033315E+03  0.12500000000E+03 0.  0.
         25    1    1    2    0    0 -0.16646503485E+02 -0.69957210650E+02  0.19735894338E+03  0.24443131946E+03  0.12500000000E+03 0.  0.
         25    1    1    2    0    0 -0.26319247475E+02 -0.29339940590E+02  0.30251833520E+03  0.32969057923E+03  0.12500000000E+03 0.  0.
</event>
<event>
 5    0  0.5590591E-005  0.2582598E+03  0.7546771E-02  0.1108193E+00
         21   -1    0    0  502  501  0.00000000000E+00  0.00000000000E+00  0.78849777033E+02  0.78849777033E+02  0.00000000000E+00 0.  1.
         21   -1    0    0  501  502 -0.00000000000E+00 -0.00000000000E+00 -0.84588886169E+03  0.84588886169E+03  0.00000000000E+00 0.  1.
         25    1    1    2    0    0 -0.15065815015E+02  0.10594218353E+03 -0.20848085839E+03  0.26559366210E+03  0.12500000000E+03 0.  0.
         25    1    1    2    0    0  0.84152793642E+02 -0.17417484606E+02 -0.13346610735E+03  0.20204767571E+03  0.12500000000E+03 0.  0.
         25    1    1    2    0    0 -0.69086978627E+02 -0.88524698926E+02 -0.42509211891E+03  0.45709730091E+03  0.12500000000E+03 0.  0.
</event>
<event>
 5    0  0.5590591E-005  0.3564989E+03  0.7546771E-02  0.1059979E+00
         21   -1    0    0  502  501  0.00000000000E+00  0.00000000000E+00  0.11786394256E+04  0.11786394256E+04  0.00000000000E+00 0. -1.
         21   -1    0    0  501  502 -0.00000000000E+00 -0.00000000000E+00 -0.10782897288E+03  0.10782897288E+03  0.00000000000E+00 0. -1.
         25    1    1    2    0    0 -0.11059841339E+03 -0.36821924042E+02  0.49652460133E+03  0.52511859885E+03  0.12500000000E+03 0.  0.
         25    1    1    2    0    0  0.20732202452E+03 -0.11626595721E+03  0.23445757526E+03  0.35650462726E+03  0.12500000000E+03 0.  0.
         25    1    1    2    0    0 -0.96723611131E+02  0.15308788126E+03  0.33982827614E+03  0.40484517238E+03  0.12500000000E+03 0.  0.
</event>
<event>
 5    0  0.5590591E-005  0.2404406E+03  0.7546771E-02  0.1119500E+00
         21   -1    0    0  502  501  0.00000000000E+00  0.00000000000E+00  0.35842517852E+02  0.35842517852E+02  0.00000000000E+00 0. -1.
         21   -1    0    0  501  502 -0.00000000000E+00 -0.00000000000E+00 -0.16129355535E+04  0.16129355535E+04  0.00000000000E+00 0. -1.
         25    1    1    2    0    0 -0.14864679590E+02  0.71749126538E+02 -0.30071408022E+03  0.33380061998E+03  0.12500000000E+03 0.  0.
         25    1    1    2    0    0 -0.15166260732E+02 -0.51125976395E+02 -0.29259893358E+03  0.32261899643E+03  0.12500000000E+03 0.  0.
         25    1    1    2    0    0  0.30030940323E+02 -0.20623150142E+02 -0.98378002186E+03  0.99235845495E+03  0.12500000000E+03 0.  0.
</event>
<event>
 5    0  0.5590591E-005  0.2912461E+03  0.7546771E-02  0.1089700E+00
         21   -1    0    0  502  501  0.00000000000E+00  0.00000000000E+00  0.41107385664E+03  0.41107385664E+03  0.00000000000E+00 0.  1.
         21   -1    0    0  501  502 -0.00000000000E+00 -0.00000000000E+00 -0.20634801658E+03  0.20634801658E+03  0.00000000000E+00 0.  1.
         25    1    1    2    0    0 -0.46329468529E+02 -0.38913452403E+02  0.26330039689E+03  0.29767898051E+03  0.12500000000E+03 0.  0.
         25    1    1    2    0    0  0.28652939286E+02  0.10426343790E+03 -0.64614419682E+02  0.17745951269E+03  0.12500000000E+03 0.  0.
         25    1    1    2    0    0  0.17676529243E+02 -0.65349985494E+02  0.60398628470E+01  0.14228338003E+03  0.12500000000E+03 0.  0.
</event>
<event>
 5    0  0.5590591E-005  0.5893009E+03  0.7546771E-02  0.9927855E-01
         21   -1    0    0  502  501  0.00000000000E+00  0.00000000000E+00  0.73010943617E+03  0.73010943617E+03  0.00000000000E+00 0. -1.
         21   -1    0    0  501  502 -0.00000000000E+00 -0.00000000000E+00 -0.47564867587E+03  0.47564867587E+03  0.00000000000E+00 0. -1.
         25    1    1    2    0    0  0.28877157574E+03  0.16989761421E+03  0.33827988515E+03  0.49225247888E+03  0.12500000000E+03 0.  0.
         25    1    1    2    0    0  0.77686653653E+02  0.82998251523E+02  0.12089206087E+03  0.20775903421E+03  0.12500000000E+03 0.  0.
         25    1    1    2    0    0 -0.36645822939E+03 -0.25289586573E+03 -0.20471118572E+03  0.50574659896E+03  0.12500000000E+03 0.  0.
</event>
<event>
 5    0  0.5590591E-005  0.2406417E+03  0.7546771E-02  0.1119366E+00
         21   -1    0    0  502  501  0.00000000000E+00  0.00000000000E+00  0.41099080263E+03  0.41099080263E+03  0.00000000000E+00 0.  1.
         21   -1    0    0  501  502 -0.00000000000E+00 -0.00000000000E+00 -0.14089951992E+03  0.14089951992E+03  0.00000000000E+00 0.  1.
         25    1    1    2    0    0 -0.98836316525E+02 -0.28232284735E+02  0.91667169318E+02  0.18599341197E+03  0.12500000000E+03 0.  0.
         25    1    1    2    0    0 -0.18289479437E+02  0.29605290917E+02  0.13892933539E+03  0.19009823392E+03  0.12500000000E+03 0.  0.
         25    1    1    2    0    0  0.11712579596E+03 -0.13730061816E+01  0.39494778000E+02  0.17579867666E+03  0.12500000000E+03 0.  0.
</event>
<event>
 5    0  0.6259958E-005  0.3560126E+03  0.7546771E-02  0.1060174E+00
         21   -1    0    0  502  501  0.00000000000E+00  0.00000000000E+00  0.82129557044E+03  0.82129557044E+03  0.00000000000E+00 0. -1.
         21   -1    0    0  501  502 -0.00000000000E+00 -0.00000000000E+00 -0.15432317793E+03  0.15432317793E+03  0.00000000000E+00 0. -1.
         25    1    1    2    0    0 -0.44362196661E+01 -0.15140596007E+03  0.22021651198E+03  0.29506568242E+03  0.12500000000E+03 0.  0.
         25    1    1    2    0    0  0.19534087893E+03  0.89676296914E+02  0.33989047275E+03  0.42112994512E+03  0.12500000000E+03 0.  0.
         25    1    1    2    0    0 -0.19090465927E+03  0.61729663157E+02  0.10686540778E+03  0.25942312084E+03  0.12500000000E+03 0.  0.
</event>
<event>
 5    0  0.5590591E-005  0.3135244E+03  0.7546771E-02  0.1078669E+00
         21   -1    0    0  502  501  0.00000000000E+00  0.00000000000E+00  0.24787633594E+03  0.24787633594E+03  0.00000000000E+00 0. -1.
         21   -1    0    0  501  502 -0.00000000000E+00 -0.00000000000E+00 -0.39655886187E+03  0.39655886187E+03  0.00000000000E+00 0.  1.
         25    1    1    2    0    0 -0.15121725083E+02  0.38690928371E+01 -0.20642957707E+01  0.12598768895E+03  0.12500000000E+03 0.  0.
         25    1    1    2    0    0  0.11518934257E+02  0.21149487503E+03 -0.97776468815E+02  0.26466583811E+03  0.12500000000E+03 0.  0.
         25    1    1    2    0    0  0.36027908254E+01 -0.21536396787E+03 -0.48841761346E+02  0.25378167075E+03  0.12500000000E+03 0.  0.
</event>
<event>
 5    0  0.5590591E-005  0.2559491E+03  0.7546771E-02  0.1109602E+00
         21   -1    0    0  502  501  0.00000000000E+00  0.00000000000E+00  0.20125523611E+03  0.20125523611E+03  0.00000000000E+00 0.  1.
         21   -1    0    0  501  502 -0.00000000000E+00 -0.00000000000E+00 -0.32550676029E+03  0.32550676029E+03  0.00000000000E+00 0.  1.
         25    1    1    2    0    0 -0.14698493770E+03 -0.56733848250E+02 -0.28371907704E+01  0.20113764217E+03  0.12500000000E+03 0.  0.
         25    1    1    2    0    0  0.78813991337E+02  0.10764284447E+02 -0.32859080672E+02  0.15176374479E+03  0.12500000000E+03 0.  0.
         25    1    1    2    0    0  0.68170946363E+02  0.45969563803E+02 -0.88555252737E+02  0.17386060943E+03  0.12500000000E+03 0.  0.
</event>
<event>
 5    0  0.5590591E-005  0.3206015E+03  0.7546771E-02  0.1075373E+00
         21   -1    0    0  502  501  0.00000000000E+00  0.00000000000E+00  0.43156599115E+03  0.43156599115E+03  0.00000000000E+00 0. -1.
         21   -1    0    0  501  502 -0.00000000000E+00 -0.00000000000E+00 -0.23816827913E+03  0.23816827913E+03  0.00000000000E+00 0. -1.
         25    1    1    2    0    0 -0.11104094281E+03 -0.10809459237E+03  0.74549662640E+02  0.21259629366E+03  0.12500000000E+03 0.  0.
         25    1    1    2    0    0 -0.45936953330E+02  0.15170467213E+03  0.14720643905E+03  0.24983844165E+03  0.12500000000E+03 0.  0.
         25    1    1    2    0    0  0.15697789614E+03 -0.43610079763E+02 -0.28358389674E+02  0.20729953497E+03  0.12500000000E+03 0.  0.
</event>
<event>
 5    0  0.5590591E-005  0.3974836E+03  0.7546771E-02  0.1044655E+00
         21   -1    0    0  502  501  0.00000000000E+00  0.00000000000E+00  0.16236113823E+04  0.16236113823E+04  0.00000000000E+00 0.  1.
         21   -1    0    0  501  502 -0.00000000000E+00 -0.00000000000E+00 -0.97309748953E+02  0.97309748953E+02  0.00000000000E+00 0.  1.
         25    1    1    2    0    0 -0.27654056902E+03 -0.90424909432E+02  0.96823945775E+03  0.10187070227E+04  0.12500000000E+03 0.  0.
         25    1    1    2    0    0  0.15712908301E+03  0.93256742221E+02  0.17588663912E+03  0.28274985149E+03  0.12500000000E+03 0.  0.
         25    1    1    2    0    0  0.11941148601E+03 -0.28318327898E+01  0.38217553646E+03  0.41946425704E+03  0.12500000000E+03 0.  0.
</event>
<event>
 5    0  0.5590591E-005  0.3964650E+03  0.7546771E-02  0.1045011E+00
         21   -1    0    0  502  501  0.00000000000E+00  0.00000000000E+00  0.59648640723E+03  0.59648640723E+03  0.00000000000E+00 0.  1.
         21   -1    0    0  501  502 -0.00000000000E+00 -0.00000000000E+00 -0.26351732653E+03  0.26351732653E+03  0.00000000000E+00 0.  1.
         25    1    1    2    0    0  0.10286765729E+03 -0.16408185616E+03 -0.63950246616E+02  0.23920544409E+03  0.12500000000E+03 0.  0.
         25    1    1    2    0    0 -0.13409461857E+02  0.68533086743E+02  0.41490536580E+03  0.43891691722E+03  0.12500000000E+03 0.  0.
         25    1    1    2    0    0 -0.89458195437E+02  0.95548769418E+02 -0.17986038486E+02  0.18188137246E+03  0.12500000000E+03 0.  0.
</event>
<event>
 5    0  0.5590591E-005  0.2282560E+03  0.7546771E-02  0.1127873E+00
         21   -1    0    0  502  501  0.00000000000E+00  0.00000000000E+00  0.15280998092E+03  0.15280998092E+03  0.00000000000E+00 0.  1.
         21   -1    0    0  501  502 -0.00000000000E+00 -0.00000000000E+00 -0.34095142728E+03  0.34095142728E+03  0.00000000000E+00 0.  1.
         25    1    1    2    0    0  0.12585781344E+02 -0.55615635331E+02 -0.78483005262E+02  0.15822794602E+03  0.12500000000E+03 0.  0.
         25    1    1    2    0    0  0.33906368262E+02 -0.54576512147E+02 -0.74226642241E+02  0.15894285736E+03  0.12500000000E+03 0.  0.
         25    1    1    2    0    0 -0.46492149606E+02  0.11019214748E+03 -0.35431798863E+02  0.17659060482E+03  0.12500000000E+03 0.  0.
</event>
<event>
 5    0  0.5590591E-005  0.2671679E+03  0.7546771E-02  0.1102912E+00
         21   -1    0    0  502  501  0.00000000000E+00  0.00000000000E+00  0.94138813984E+03  0.94138813984E+03  0.00000000000E+00 0. -1.
         21   -1    0    0  501  502 -0.00000000000E+00 -0.00000000000E+00 -0.75822800219E+02  0.75822800219E+02  0.00000000000E+00 0. -1.
         25    1    1    2    0    0 -0.10638869873E+03 -0.10994670308E+02  0.31453671249E+03  0.35496166201E+03  0.12500000000E+03 0.  0.
         25    1    1    2    0    0  0.61156780407E+02 -0.11740937739E+03  0.25703565349E+03  0.31498800113E+03  0.12500000000E+03 0.  0.
         25    1    1    2    0    0  0.45231918319E+02  0.12840404770E+03  0.29399297364E+03  0.34726127692E+03  0.12500000000E+03 0.  0.
</event>
<event>
 5    0  0.5590591E-005  0.3457493E+03  0.7546771E-02  0.1064373E+00
         21   -1    0    0  502  501  0.00000000000E+00  0.00000000000E+00  0.92015151405E+03  0.92015151405E+03  0.00000000000E+00 0.  1.
         21   -1    0    0  501  502 -0.00000000000E+00 -0.00000000000E+00 -0.12991620722E+03  0.12991620722E+03  0.00000000000E+00 0.  1.
         25    1    1    2    0    0 -0.12407582630E+03  0.18674427228E+03  0.35273467304E+03  0.43625105555E+03  0.12500000000E+03 0.  0.
         25    1    1    2    0    0  0.49775046718E+02  0.49680636856E+02  0.21318882864E+03  0.25694395812E+03  0.12500000000E+03 0.  0.
         25    1    1    2    0    0  0.74300779586E+02 -0.23642490914E+03  0.22431180514E+03  0.35687270761E+03  0.12500000000E+03 0.  0.
</event>
<event>
 5    0  0.5590591E-005  0.3218416E+03  0.7546771E-02  0.1074805E+00
         21   -1    0    0  502  501  0.00000000000E+00  0.00000000000E+00  0.85015441472E+03  0.85015441472E+03  0.00000000000E+00 0. -1.
         21   -1    0    0  501  502 -0.00000000000E+00 -0.00000000000E+00 -0.12183908379E+03  0.12183908379E+03  0.00000000000E+00 0. -1.
         25    1    1    2    0    0 -0.10650515204E+03  0.72385728789E+02  0.12233508974E+03  0.21719556930E+03  0.12500000000E+03 0.  0.
         25    1    1    2    0    0 -0.69754250197E+02 -0.10599395587E+03  0.10161088650E+03  0.20506132340E+03  0.12500000000E+03 0.  0.
         25    1    1    2    0    0  0.17625940224E+03  0.33608227077E+02  0.50436935469E+03  0.54973660580E+03  0.12500000000E+03 0.  0.
</event>
<event>
 5    0  0.5590591E-005  0.2090934E+03  0.7546771E-02  0.1142286E+00
         21   -1    0    0  502  501  0.00000000000E+00  0.00000000000E+00  0.53221233783E+03  0.53221233783E+03  0.00000000000E+00 0.  1.
         21   -1    0    0  501  502 -0.00000000000E+00 -0.00000000000E+00 -0.82147753215E+02  0.82147753215E+02  0.00000000000E+00 0.  1.
         25    1    1    2    0    0  0.55941164981E+02  0.92573357640E+01  0.13764963389E+03  0.19439015899E+03  0.12500000000E+03 0.  0.
         25    1    1    2    0    0 -0.17802569071E+02 -0.32473280897E+02  0.81872130382E+02  0.15394639058E+03  0.12500000000E+03 0.  0.
         25    1    1    2    0    0 -0.38138595910E+02  0.23215945133E+02  0.23054282035E+03  0.26602354148E+03  0.12500000000E+03 0.  0.
</event>
<event>
 5    0  0.6410720E-005  0.2801585E+03  0.7546771E-02  0.1095602E+00
         21   -1    0    0  502  501  0.00000000000E+00  0.00000000000E+00  0.64167549808E+03  0.64167549808E+03  0.00000000000E+00 0. -1.
         21   -1    0    0  501  502 -0.00000000000E+00 -0.00000000000E+00 -0.12231853782E+03  0.12231853782E+03  0.00000000000E+00 0. -1.
         25    1    1    2    0    0  0.16845222341E+03  0.70809828025E+01  0.33792376758E+03  0.39779864830E+03  0.12500000000E+03 0.  0.
         25    1    1    2    0    0 -0.51536960559E+02  0.22608068054E+02  0.41784884305E+02  0.14331140778E+03  0.12500000000E+03 0.  0.
         25    1    1    2    0    0 -0.11691526285E+03 -0.29689050856E+02  0.13964830837E+03  0.22288397982E+03  0.12500000000E+03 0.  0.
</event>
<event>
 5    0  0.5590591E-005  0.2549168E+03  0.7546771E-02  0.1110236E+00
         21   -1    0    0  502  501  0.00000000000E+00  0.00000000000E+00  0.26329771483E+03  0.26329771483E+03  0.00000000000E+00 0. -1.
         21   -1    0    0  501  502 -0.00000000000E+00 -0.00000000000E+00 -0.24680270075E+03  0.24680270075E+03  0.00000000000E+00 0. -1.
         25    1    1    2    0    0 -0.56284721336E+02  0.66094439620E+00  0.36982098702E+02  0.14198972613E+03  0.12500000000E+03 0.  0.
         25    1    1    2    0    0  0.88552949588E+02  0.11679448657E+03 -0.19029237447E+02  0.19357088844E+03  0.12500000000E+03 0.  0.
         25    1    1    2    0    0 -0.32268228253E+02 -0.11745543096E+03 -0.14578471817E+01  0.17453980101E+03  0.12500000000E+03 0.  0.
</event>
<event>
 5    0  0.5590591E-005  0.3087183E+03  0.7546771E-02  0.1080962E+00
         21   -1    0    0  502  501  0.00000000000E+00  0.00000000000E+00  0.33598905604E+03  0.33598905604E+03  0.00000000000E+00 0.  1.
         21   -1    0    0  501  502 -0.00000000000E+00 -0.00000000000E+00 -0.28366100310E+03  0.28366100310E+03  0.00000000000E+00 0.  1.
         25    1    1    2    0    0  0.83899556147E+01  0.84988937846E+02  0.31229329320E+02  0.15457613633E+03  0.12500000000E+03 0.  0.
         25    1    1    2    0    0 -0.71723909924E+02  0.38942038060E+02 -0.14995112137E+03  0.21159191946E+03  0.12500000000E+03 0.  0.
         25    1    1    2    0    0  0.63333954309E+02 -0.12393097591E+03  0.17104984498E+03  0.25348200336E+03  0.12500000000E+03 0.  0.
</event>
<event>
 5    0  0.5590591E-005  0.2417404E+03  0.7546771E-02  0.1118639E+00
         21   -1    0    0  502  501  0.00000000000E+00  0.00000000000E+00  0.22801303137E+03  0.22801303137E+03  0.00000000000E+00 0.  1.
         21   -1    0    0  501  502 -0.00000000000E+00 -0.00000000000E+00 -0.25629430137E+03  0.25629430137E+03  0.00000000000E+00 0.  1.
         25    1    1    2    0    0 -0.38706720632E+02 -0.86487993054E+02  0.31151055585E+02  0.15991801471E+03  0.12500000000E+03 0.  0.
         25    1    1    2    0    0 -0.53818436854E+02 -0.16719011675E+01 -0.32860528230E+00  0.13610410494E+03  0.12500000000E+03 0.  0.
         25    1    1    2    0    0  0.92525157486E+02  0.88159894222E+02 -0.59103720304E+02  0.18828521310E+03  0.12500000000E+03 0.  0.
</event>
<event>
 5    0  0.5590591E-005  0.3027002E+03  0.7546771E-02  0.1083899E+00
         21   -1    0    0  502  501  0.00000000000E+00  0.00000000000E+00  0.82504931521E+03  0.82504931521E+03  0.00000000000E+00 0.  1.
         21   -1    0    0  501  502 -0.00000000000E+00 -0.00000000000E+00 -0.11105689776E+03  0.11105689776E+03  0.00000000000E+00 0.  1.
         25    1    1    2    0    0 -0.33245574500E+02 -0.22845420980E+02  0.10493766100E+03  0.16811928557E+03  0.12500000000E+03 0.  0.
         25    1    1    2    0    0  0.13743746836E+03  0.53076474175E+02  0.56439915326E+03  0.59655475358E+03  0.12500000000E+03 0.  0.
         25    1    1    2    0    0 -0.10419189386E+03 -0.30231053195E+02  0.44655603198E+02  0.17143217382E+03  0.12500000000E+03 0.  0.
</event>
<event>
 5    0  0.5590591E-005  0.3329599E+03  0.7546771E-02  0.1069835E+00
         21   -1    0    0  502  501  0.00000000000E+00  0.00000000000E+00  0.29149385877E+03  0.29149385877E+03  0.00000000000E+00 0. -1.
         21   -1    0    0  501  502 -0.00000000000E+00 -0.00000000000E+00 -0.38032460505E+03  0.38032460505E+03  0.00000000000E+00 0. -1.
         25    1    1    2    0    0 -0.86210923467E+02  0.13630344278E+03  0.14797033871E+02  0.20458471118E+03  0.12500000000E+03 0.  0.
         25    1    1    2    0    0  0.60618338996E+02 -0.18670754779E+03  0.72710235370E+02  0.24381564706E+03  0.12500000000E+03 0.  0.
         25    1    1    2    0    0  0.25592584471E+02  0.50404105011E+02 -0.17633801552E+03  0.22341810558E+03  0.12500000000E+03 0.  0.
</event>
<event>
 5    0  0.5590591E-005  0.2426976E+03  0.7546771E-02  0.1118009E+00
         21   -1    0    0  502  501  0.00000000000E+00  0.00000000000E+00  0.33321874411E+02  0.33321874411E+02  0.00000000000E+00 0. -1.
         21   -1    0    0  501  502 -0.00000000000E+00 -0.00000000000E+00 -0.17676711972E+04  0.17676711972E+04  0.00000000000E+00 0. -1.
         25    1    1    2    0    0  0.18702105748E+02  0.14467218741E+02 -0.10207103015E+04  0.10286075971E+04  0.12500000000E+03 0.  0.
         25    1    1    2    0    0 -0.32055334558E+02  0.38570960683E+02 -0.50835338010E+03  0.52589297632E+03  0.12500000000E+03 0.  0.
         25    1    1    2    0    0  0.13353228810E+02 -0.53038179423E+02 -0.20528564117E+03  0.24649249820E+03  0.12500000000E+03 0.  0.
</event>
<event>
 5    0  0.8470797E-005  0.6289828E+03  0.7546771E-02  0.9847036E-01
         21   -1    0    0  502  501  0.00000000000E+00  0.00000000000E+00  0.66102106315E+03  0.66102106315E+03  0.00000000000E+00 0. -1.
         21   -1    0    0  501  502 -0.00000000000E+00 -0.00000000000E+00 -0.59849745127E+03  0.59849745127E+03  0.00000000000E+00 0.  1.
         25    1    1    2    0    0  0.29876338902E+03  0.18501561612E+03 -0.10808021274E+03  0.38832547330E+03  0.12500000000E+03 0.  0.
         25    1    1    2    0    0 -0.33066605838E+03 -0.18442387708E+03 -0.22309920313E+03  0.45689217879E+03  0.12500000000E+03 0.  0.
         25    1    1    2    0    0  0.31902669360E+02 -0.59173904068E+00  0.39370302775E+03  0.41430086233E+03  0.12500000000E+03 0.  0.
</event>
<event>
 5    0  0.5590591E-005  0.4353824E+03  0.7546771E-02  0.1032173E+00
         21   -1    0    0  502  501  0.00000000000E+00  0.00000000000E+00  0.89516433583E+03  0.89516433583E+03  0.00000000000E+00 0.  1.
         21   -1    0    0  501  502 -0.00000000000E+00 -0.00000000000E+00 -0.21175755671E+03  0.21175755671E+03  0.00000000000E+00 0.  1.
         25    1    1    2    0    0  0.20170362701E+03  0.23017788981E+03  0.27182451853E+03  0.42799507355E+03  0.12500000000E+03 0.  0.
         25    1    1    2    0    0 -0.94253329933E+02 -0.45520445569E+01 -0.26967539069E+02  0.15892343904E+03  0.12500000000E+03 0.  0.
         25    1    1    2    0    0 -0.10745029707E+03 -0.22562584525E+03  0.43854979965E+03  0.52000337995E+03  0.12500000000E+03 0.  0.
</event>
<event>
 5    0  0.5590591E-005  0.3116956E+03  0.7546771E-02  0.1079536E+00
         21   -1    0    0  502  501  0.00000000000E+00  0.00000000000E+00  0.30041177258E+03  0.30041177258E+03  0.00000000000E+00 0. -1.
         21   -1    0    0  501  502 -0.00000000000E+00 -0.00000000000E+00 -0.32340318881E+03  0.32340318881E+03  0.00000000000E+00 0. -1.
         25    1    1    2    0    0 -0.11932128728E+03  0.58719492115E+02 -0.91839918410E+02  0.20431622296E+03  0.12500000000E+03 0.  0.
         25    1    1    2    0    0  0.97508547640E+02 -0.63260215342E+02 -0.10785415785E+03  0.20190911588E+03  0.12500000000E+03 0.  0.
         25    1    1    2    0    0  0.21812739642E+02  0.45407232267E+01  0.17670266003E+03  0.21758962255E+03  0.12500000000E+03 0.  0.
</event>
<event>
 5    0  0.5590591E-005  0.2989658E+03  0.7546771E-02  0.1085759E+00
         21   -1    0    0  502  501  0.00000000000E+00  0.00000000000E+00  0.73544880683E+03  0.73544880683E+03  0.00000000000E+00 0.  1.
         21   -1    0    0  501  502 -0.00000000000E+00 -0.00000000000E+00 -0.12153199376E+03  0.12153199376E+03  0.00000000000E+00 0.  1.
         25    1    1    2    0    0  0.22951571000E+02  0.82701349306E+02  0.38808627536E+03  0.41665602709E+03  0.12500000000E+03 0.  0.
         25    1    1    2    0    0 -0.73573687583E+02  0.42777725569E+02  0.20529080108E+03  0.25497516412E+03  0.12500000000E+03 0.  0.
         25    1    1    2    0    0  0.50622116583E+02 -0.12547907487E+03  0.20539736630E+02  0.18534960939E+03  0.12500000000E+03 0.  0.
</event>
<event>
 5    0  0.5590591E-005  0.3221648E+03  0.7546771E-02  0.1074657E+00
         21   -1    0    0  502  501  0.00000000000E+00  0.00000000000E+00  0.14213173626E+03  0.14213173626E+03  0.00000000000E+00 0. -1.
         21   -1    0    0  501  502 -0.00000000000E+00 -0.00000000000E+00 -0.73023926317E+03  0.73023926317E+03  0.00000000000E+00 0. -1.
         25    1    1    2    0    0 -0.44549336387E+02  0.96155972666E+02 -0.28505430756E+03  0.32880324315E+03  0.12500000000E+03 0.  0.
         25    1    1    2    0    0  0.66462539539E+02  0.15357379260E+00  0.54836979735E+02  0.15182024599E+03  0.12500000000E+03 0.  0.
         25    1    1    2    0    0 -0.21913203152E+02 -0.96309546459E+02 -0.35789019909E+03  0.39174751028E+03  0.12500000000E+03 0.  0.
</event>
<event>
 5    0  0.5590591E-005  0.3758745E+03  0.7546771E-02  0.1052469E+00
         21   -1    0    0  502  501  0.00000000000E+00  0.00000000000E+00  0.13879094965E+03  0.13879094965E+03  0.00000000000E+00 0.  1.
         21   -1    0    0  501  502 -0.00000000000E+00 -0.00000000000E+00 -0.10179458932E+04  0.10179458932E+04  0.00000000000E+00 0.  1.
         25    1    1    2    0    0  0.35070538813E+01 -0.11457783251E+03 -0.31762000869E+03  0.36006645088E+03  0.12500000000E+03 0.  0.
         25    1    1    2    0    0  0.14793323869E+03  0.24842171612E+03 -0.23586999490E+03  0.39351905500E+03  0.12500000000E+03 0.  0.
         25    1    1    2    0    0 -0.15144029257E+03 -0.13384388361E+03 -0.32566493999E+03  0.40315133701E+03  0.12500000000E+03 0.  0.
</event>
<event>
 5    0  0.5590591E-005  0.4396962E+03  0.7546771E-02  0.1030840E+00
         21   -1    0    0  502  501  0.00000000000E+00  0.00000000000E+00  0.52835392343E+03  0.52835392343E+03  0.00000000000E+00 0.  1.
         21   -1    0    0  501  502 -0.00000000000E+00 -0.00000000000E+00 -0.36591522717E+03  0.36591522717E+03  0.00000000000E+00 0.  1.
         25    1    1    2    0    0  0.26807330958E+03  0.12393409479E+03 -0.15737597644E+03  0.35723263726E+03  0.12500000000E+03 0.  0.
         25    1    1    2    0    0 -0.20919264716E+03 -0.88054397868E+02  0.10602715230E+03  0.27996767248E+03  0.12500000000E+03 0.  0.
         25    1    1    2    0    0 -0.58880662413E+02 -0.35879696923E+02  0.21378752041E+03  0.25706884086E+03  0.12500000000E+03 0.  0.
</event>
<event>
 5    0  0.5590591E-005  0.2277060E+03  0.7546771E-02  0.1128265E+00
         21   -1    0    0  502  501  0.00000000000E+00  0.00000000000E+00  0.39222117535E+03  0.39222117535E+03  0.00000000000E+00 0. -1.
         21   -1    0    0  501  502 -0.00000000000E+00 -0.00000000000E+00 -0.13219591151E+03  0.13219591151E+03  0.00000000000E+00 0. -1.
         25    1    1    2    0    0 -0.13594062026E+01 -0.11444684626E+02  0.16970642293E+03  0.21108789348E+03  0.12500000000E+03 0.  0.
         25    1    1    2    0    0  0.26855797407E+02 -0.25194544810E+01 -0.36418256524E+02  0.13296191527E+03  0.12500000000E+03 0.  0.
         25    1    1    2    0    0 -0.25496391204E+02  0.13964139107E+02  0.12673709743E+03  0.18036727810E+03  0.12500000000E+03 0.  0.
</event>
<event>
 5    0  0.5590591E-005  0.2713208E+03  0.7546771E-02  0.1100526E+00
         21   -1    0    0  502  501  0.00000000000E+00  0.00000000000E+00  0.11367577721E+03  0.11367577721E+03  0.00000000000E+00 0. -1.
         21   -1    0    0  501  502 -0.00000000000E+00 -0.00000000000E+00 -0.64758697044E+03  0.64758697044E+03  0.00000000000E+00 0. -1.
         25    1    1    2    0    0  0.14950943429E+02  0.92402615054E+02 -0.26676573889E+03  0.30911281666E+03  0.12500000000E+03 0.  0.
         25    1    1    2    0    0  0.57152087556E+02  0.60321362952E+02 -0.14708336499E+03  0.21015124124E+03  0.12500000000E+03 0.  0.
         25    1    1    2    0    0 -0.72103030984E+02 -0.15272397801E+03 -0.12006208936E+03  0.24199868974E+03  0.12500000000E+03 0.  0.
</event>
<event>
 5    0  0.5590591E-005  0.3896335E+03  0.7546771E-02  0.1047430E+00
         21   -1    0    0  502  501  0.00000000000E+00  0.00000000000E+00  0.21504522041E+03  0.21504522041E+03  0.00000000000E+00 0.  1.
         21   -1    0    0  501  502 -0.00000000000E+00 -0.00000000000E+00 -0.70596443284E+03  0.70596443284E+03  0.00000000000E+00 0.  1.
         25    1    1    2    0    0  0.18272199631E+03 -0.16655016566E+03 -0.39542508631E+03  0.48281703004E+03  0.12500000000E+03 0.  0.
         25    1    1    2    0    0 -0.83769647908E+02 -0.25410774988E+02 -0.11019191924E+03  0.18822943569E+03  0.12500000000E+03 0.  0.
         25    1    1    2    0    0 -0.98952348403E+02  0.19196094065E+03  0.14697793109E+02  0.24996318751E+03  0.12500000000E+03 0.  0.
</event>
<event>
 5    0  0.5590591E-005  0.2111383E+03  0.7546771E-02  0.1140668E+00
         21   -1    0    0  502  501  0.00000000000E+00  0.00000000000E+00  0.33803411166E+03  0.33803411166E+03  0.00000000000E+00 0. -1.
         21   -1    0    0  501  502 -0.00000000000E+00 -0.00000000000E+00 -0.13187840914E+03  0.13187840914E+03  0.00000000000E+00 0. -1.
         25    1    1    2    0    0 -0.25049963789E+02  0.19539853692E+02  0.13489167078E+02  0.12967753929E+03  0.12500000000E+03 0.  0.
         25    1    1    2    0    0 -0.46426857560E+02 -0.66481278681E+01  0.70607898615E+02  0.15103021570E+03  0.12500000000E+03 0.  0.
         25    1    1    2    0    0  0.71476821349E+02 -0.12891725824E+02  0.12205863683E+03  0.18920476582E+03  0.12500000000E+03 0.  0.
</event>
<event>
 5    0  0.5590591E-005  0.2559138E+03  0.7546771E-02  0.1109623E+00
         21   -1    0    0  502  501  0.00000000000E+00  0.00000000000E+00  0.77521788216E+03  0.77521788216E+03  0.00000000000E+00 0.  1.
         21   -1    0    0  501  502 -0.00000000000E+00 -0.00000000000E+00 -0.84481892220E+02  0.84481892220E+02  0.00000000000E+00 0.  1.
         25    1    1    2    0    0  0.52473291299E+02  0.91972499639E+02  0.36967548030E+03  0.40434805270E+03  0.12500000000E+03 0.  0.
         25    1    1    2    0    0  0.38687879689E+02 -0.73492247862E+01  0.20810845389E+03  0.24593676366E+03  0.12500000000E+03 0.  0.
         25    1    1    2    0    0 -0.91161170989E+02 -0.84623274853E+02  0.11295205575E+03  0.20941495802E+03  0.12500000000E+03 0.  0.
</event>
<event>
 5    0  0.5590591E-005  0.2622409E+03  0.7546771E-02  0.1105804E+00
         21   -1    0    0  502  501  0.00000000000E+00  0.00000000000E+00  0.79449517453E+03  0.79449517453E+03  0.00000000000E+00 0. -1.
         21   -1    0    0  501  502 -0.00000000000E+00 -0.00000000000E+00 -0.86558447732E+02  0.86558447732E+02  0.00000000000E+00 0. -1.
         25    1    1    2    0    0  0.82255212011E+02  0.17959106456E+02  0.81194598325E+02  0.17118998862E+03  0.12500000000E+03 0.  0.
         25    1    1    2    0    0 -0.11571719767E+03 -0.77737938136E+02  0.40604565233E+03  0.44713725928E+03  0.12500000000E+03 0.  0.
         25    1    1    2    0    0  0.33461985659E+02  0.59778831680E+02  0.22069647615E+03  0.26272637436E+03  0.12500000000E+03 0.  0.
</event>
<event>
 5    0  0.5590591E-005  0.4117865E+03  0.7546771E-02  0.1039773E+00
         21   -1    0    0  502  501  0.00000000000E+00  0.00000000000E+00  0.33750578058E+03  0.33750578058E+03  0.00000000000E+00 0.  1.
         21   -1    0    0  501  502 -0.00000000000E+00 -0.00000000000E+00 -0.50241542280E+03  0.50241542280E+03  0.00000000000E+00 0.  1.
         25    1    1    2    0    0  0.79258592409E+02  0.56218911673E+02 -0.11549881629E+03  0.19597823110E+03  0.12500000000E+03 0.  0.
         25    1    1    2    0    0  0.21793030208E+03  0.96244363506E+02 -0.92980924161E+02  0.28465250101E+03  0.12500000000E+03 0.  0.
         25    1    1    2    0    0 -0.29718889449E+03 -0.15246327518E+03  0.43570098243E+02  0.35929047127E+03  0.12500000000E+03 0.  0.
</event>
<event>
 5    0  0.5590591E-005  0.2623225E+03  0.7546771E-02  0.1105756E+00
         21   -1    0    0  502  501  0.00000000000E+00  0.00000000000E+00  0.16399708220E+04  0.16399708220E+04  0.00000000000E+00 0.  1.
         21   -1    0    0  501  502 -0.00000000000E+00 -0.00000000000E+00 -0.41959963991E+02  0.41959963991E+02  0.00000000000E+00 0.  1.
         25    1    1    2    0    0 -0.11659727840E+02  0.72135778707E+02  0.11408185859E+04  0.11499702456E+04  0.12500000000E+03 0.  0.
         25    1    1    2    0    0  0.77046769063E+01 -0.46591752269E+02  0.15962454378E+03  0.20817095956E+03  0.12500000000E+03 0.  0.
         25    1    1    2    0    0  0.39550509336E+01 -0.25544026437E+02  0.29756772830E+03  0.32378958081E+03  0.12500000000E+03 0.  0.
</event>
<event>
 5    0  0.5590591E-005  0.4536434E+03  0.7546771E-02  0.1026641E+00
         21   -1    0    0  502  501  0.00000000000E+00  0.00000000000E+00  0.16551519903E+03  0.16551519903E+03  0.00000000000E+00 0.  1.
         21   -1    0    0  501  502 -0.00000000000E+00 -0.00000000000E+00 -0.12433439012E+04  0.12433439012E+04  0.00000000000E+00 0.  1.
         25    1    1    2    0    0  0.65270869679E+02 -0.43096163905E+02 -0.42428949209E+02  0.15343657160E+03  0.12500000000E+03 0.  0.
         25    1    1    2    0    0 -0.85031326640E+02 -0.30006652591E+03 -0.59129648831E+03  0.68009321682E+03  0.12500000000E+03 0.  0.
         25    1    1    2    0    0  0.19760456961E+02  0.34316268982E+03 -0.44410326460E+03  0.57532931176E+03  0.12500000000E+03 0.  0.
</event>
<event>
 5    0  0.5590591E-005  0.2584447E+03  0.7546771E-02  0.1108081E+00
         21   -1    0    0  502  501  0.00000000000E+00  0.00000000000E+00  0.65279466529E+03  0.65279466529E+03  0.00000000000E+00 0. -1.
         21   -1    0    0  501  502 -0.00000000000E+00 -0.00000000000E+00 -0.10231956385E+03  0.10231956385E+03  0.00000000000E+00 0. -1.
         25    1    1    2    0    0 -0.64312756757E+01  0.10384930552E+03  0.29939692422E+03  0.34071917732E+03  0.12500000000E+03 0.  0.
         25    1    1    2    0    0 -0.55590772343E+02 -0.10939613102E+03  0.19959062040E+03  0.26555463318E+03  0.12500000000E+03 0.  0.
         25    1    1    2    0    0  0.62022048018E+02  0.55468255008E+01  0.51487556827E+02  0.14884041864E+03  0.12500000000E+03 0.  0.
</event>
<event>
 5    0  0.5590591E-005  0.3512841E+03  0.7546771E-02  0.1062089E+00
         21   -1    0    0  502  501  0.00000000000E+00  0.00000000000E+00  0.26271385132E+04  0.26271385132E+04  0.00000000000E+00 0. -1.
         21   -1    0    0  501  502 -0.00000000000E+00 -0.00000000000E+00 -0.46971442661E+02  0.46971442661E+02  0.00000000000E+00 0. -1.
         25    1    1    2    0    0  0.64559407790E+02 -0.23052056585E+03  0.85448713307E+03  0.89614781649E+03  0.12500000000E+03 0.  0.
         25    1    1    2    0    0  0.68255961034E+01  0.22111263203E+03  0.13831542710E+04  0.14062994426E+04  0.12500000000E+03 0.  0.
         25    1    1    2    0    0 -0.71385003894E+02  0.94079338136E+01  0.34252566647E+03  0.37166269680E+03  0.12500000000E+03 0.  0.
</event>
<event>
 5    0  0.5590591E-005  0.3033680E+03  0.7546771E-02  0.1083569E+00
         21   -1    0    0  502  501  0.00000000000E+00  0.00000000000E+00  0.10121454627E+03  0.10121454627E+03  0.00000000000E+00 0.  1.
         21   -1    0    0  501  502 -0.00000000000E+00 -0.00000000000E+00 -0.90927771033E+03  0.90927771033E+03  0.00000000000E+00 0.  1.
         25    1    1    2    0    0  0.15231628227E+03 -0.64165372517E+02 -0.26626865194E+03  0.33740397135E+03  0.12500000000E+03 0.  0.
         25    1    1    2    0    0 -0.17490675823E+03  0.12909647973E+03 -0.28737377634E+03  0.38140131421E+03  0.12500000000E+03 0.  0.
         25    1    1    2    0    0  0.22590475954E+02 -0.64931107209E+02 -0.25442073577E+03  0.29168697105E+03  0.12500000000E+03 0.  0.
</event>
<event>
 5    0  0.5590591E-005  0.2611635E+03  0.7546771E-02  0.1106446E+00
         21   -1    0    0  502  501  0.00000000000E+00  0.00000000000E+00  0.13128768039E+03  0.13128768039E+03  0.00000000000E+00 0. -1.
         21   -1    0    0  501  502 -0.00000000000E+00 -0.00000000000E+00 -0.51951849426E+03  0.51951849426E+03  0.00000000000E+00 0. -1.
         25    1    1    2    0    0  0.84389343089E+02  0.10937978497E+03 -0.10401571092E+03  0.21337705290E+03  0.12500000000E+03 0.  0.
         25    1    1    2    0    0 -0.76778459162E+02  0.13071341881E+02 -0.18383362279E+03  0.23555379988E+03  0.12500000000E+03 0.  0.
         25    1    1    2    0    0 -0.76108839268E+01 -0.12245112685E+03 -0.10038148017E+03  0.20187532188E+03  0.12500000000E+03 0.  0.
</event>
<event>
 5    0  0.5590591E-005  0.2604447E+03  0.7546771E-02  0.1106876E+00
         21   -1    0    0  502  501  0.00000000000E+00  0.00000000000E+00  0.18024983686E+04  0.18024983686E+04  0.00000000000E+00 0. -1.
         21   -1    0    0  501  502 -0.00000000000E+00 -0.00000000000E+00 -0.37631900923E+02  0.37631900923E+02  0.00000000000E+00 0. -1.
         25    1    1    2    0    0 -0.65544516576E+02 -0.14763237385E+03  0.81555956237E+03  0.84074597902E+03  0.12500000000E+03 0.  0.
         25    1    1    2    0    0  0.20058090210E+02  0.20562928933E+02  0.40628842923E+03  0.42605216671E+03  0.12500000000E+03 0.  0.
         25    1    1    2    0    0  0.45486426366E+02  0.12706944492E+03  0.54301847604E+03  0.57333212376E+03  0.12500000000E+03 0.  0.
</event>
<event>
 5    0  0.5590591E-005  0.2788594E+03  0.7546771E-02  0.1096314E+00
         21   -1    0    0  502  501  0.00000000000E+00  0.00000000000E+00  0.72992751578E+02  0.72992751578E+02  0.00000000000E+00 0. -1.
         21   -1    0    0  501  502 -0.00000000000E+00 -0.00000000000E+00 -0.10653462764E+04  0.10653462764E+04  0.00000000000E+00 0. -1.
         25    1    1    2    0    0 -0.60081689041E+02  0.99650163364E+02 -0.48226107301E+03  0.51160600755E+03  0.12500000000E+03 0.  0.
         25    1    1    2    0    0  0.63733640070E+02 -0.48525037826E+02 -0.65869716148E+02  0.16242067503E+03  0.12500000000E+03 0.  0.
         25    1    1    2    0    0 -0.36519510288E+01 -0.51125125537E+02 -0.44422273562E+03  0.46431234535E+03  0.12500000000E+03 0.  0.
</event>
<event>
 5    0  0.5590591E-005  0.2921771E+03  0.7546771E-02  0.1089218E+00
         21   -1    0    0  502  501  0.00000000000E+00  0.00000000000E+00  0.32111604839E+03  0.32111604839E+03  0.00000000000E+00 0.  1.
         21   -1    0    0  501  502 -0.00000000000E+00 -0.00000000000E+00 -0.26584606264E+03  0.26584606264E+03  0.00000000000E+00 0.  1.
         25    1    1    2    0    0  0.37243635641E+02  0.80766287851E+02 -0.42674450589E+02  0.15923690019E+03  0.12500000000E+03 0.  0.
         25    1    1    2    0    0 -0.13990509065E+02  0.17001471010E+02  0.20053963031E+03  0.23733084015E+03  0.12500000000E+03 0.  0.
         25    1    1    2    0    0 -0.23253126577E+02 -0.97767758861E+02 -0.10259519397E+03  0.19039437070E+03  0.12500000000E+03 0.  0.
</event>
<event>
 5    0  0.5590591E-005  0.2933745E+03  0.7546771E-02  0.1088600E+00
         21   -1    0    0  502  501  0.00000000000E+00  0.00000000000E+00  0.14695701845E+04  0.14695701845E+04  0.00000000000E+00 0. -1.
         21   -1    0    0  501  502 -0.00000000000E+00 -0.00000000000E+00 -0.58567197523E+02  0.58567197523E+02  0.00000000000E+00 0. -1.
         25    1    1    2    0    0 -0.87730342785E+02  0.89085543393E+01  0.65055824232E+03  0.66830158016E+03  0.12500000000E+03 0.  0.
         25    1    1    2    0    0 -0.93073059822E+02 -0.58388868211E+02  0.23344768011E+03  0.28669613486E+03  0.12500000000E+03 0.  0.
         25    1    1    2    0    0  0.18080340261E+03  0.49480313872E+02  0.52699706451E+03  0.57313966698E+03  0.12500000000E+03 0.  0.
</event>
<event>
 5    0  0.5590591E-005  0.3740227E+03  0.7546771E-02  0.1053165E+00
         21   -1    0    0  502  501  0.00000000000E+00  0.00000000000E+00  0.91869543313E+03  0.91869543313E+03  0.00000000000E+00 0.  1.
         21   -1    0    0  501  502 -0.00000000000E+00 -0.00000000000E+00 -0.15227348403E+03  0.15227348403E+03  0.00000000000E+00 0.  1.
         25    1    1    2    0    0  0.58715083650E+02 -0.12611100013E+03  0.60563415920E+03  0.63385264865E+03  0.12500000000E+03 0.  0.
         25    1    1    2    0    0  0.87540737432E+01 -0.21354339617E+01 -0.64965702297E+02  0.14116209250E+03  0.12500000000E+03 0.  0.
         25    1    1    2    0    0 -0.67469157393E+02  0.12824643409E+03  0.22575349220E+03  0.29595417601E+03  0.12500000000E+03 0.  0.
</event>
<event>
 5    0  0.5590591E-005  0.3881154E+03  0.7546771E-02  0.1047974E+00
         21   -1    0    0  502  501  0.00000000000E+00  0.00000000000E+00  0.62990230341E+03  0.62990230341E+03  0.00000000000E+00 0.  1.
         21   -1    0    0  501  502 -0.00000000000E+00 -0.00000000000E+00 -0.23913800487E+03  0.23913800487E+03  0.00000000000E+00 0. -1.
         25    1    1    2    0    0  0.80358497893E+02 -0.18552921157E+03  0.29793213350E+02  0.23956463030E+03  0.12500000000E+03 0.  0.
         25    1    1    2    0    0 -0.16958573843E+03  0.23782179602E+03  0.34090158233E+03  0.46600152165E+03  0.12500000000E+03 0.  0.
         25    1    1    2    0    0  0.89227240539E+02 -0.52292584454E+02  0.20069502863E+02  0.16347415633E+03  0.12500000000E+03 0.  0.
</event>
<event>
 5    0  0.5590591E-005  0.2139898E+03  0.7546771E-02  0.1138445E+00
         21   -1    0    0  502  501  0.00000000000E+00  0.00000000000E+00  0.81139571516E+02  0.81139571516E+02  0.00000000000E+00 0.  1.
         21   -1    0    0  501  502 -0.00000000000E+00 -0.00000000000E+00 -0.56435654288E+03  0.56435654288E+03  0.00000000000E+00 0.  1.
         25    1    1    2    0    0 -0.71502297169E+02  0.56555198335E+00 -0.22832482743E+03  0.26994467057E+03  0.12500000000E+03 0.  0.
         25    1    1    2    0    0  0.30205302776E+02 -0.12035412641E+02 -0.18622398721E+03  0.22663094423E+03  0.12500000000E+03 0.  0.
         25    1    1    2    0    0  0.41296994393E+02  0.11469860657E+02 -0.68668156727E+02  0.14892049959E+03  0.12500000000E+03 0.  0.
</event>
<event>
 5    0  0.5590591E-005  0.3333773E+03  0.7546771E-02  0.1069652E+00
         21   -1    0    0  502  501  0.00000000000E+00  0.00000000000E+00  0.48019126987E+03  0.48019126987E+03  0.00000000000E+00 0. -1.
         21   -1    0    0  501  502 -0.00000000000E+00 -0.00000000000E+00 -0.23145036565E+03  0.23145036565E+03  0.00000000000E+00 0. -1.
         25    1    1    2    0    0  0.92493889239E+02  0.11543843141E+03  0.64334635501E+02  0.20407130204E+03  0.12500000000E+03 0.  0.
         25    1    1    2    0    0  0.12515588871E+03  0.23326348514E+02  0.27096707883E+02  0.18046425295E+03  0.12500000000E+03 0.  0.
         25    1    1    2    0    0 -0.21764977795E+03 -0.13876477992E+03  0.15730956083E+03  0.32710608053E+03  0.12500000000E+03 0.  0.
</event>
<event>
 5    0  0.5590591E-005  0.2177629E+03  0.7546771E-02  0.1135562E+00
         21   -1    0    0  502  501  0.00000000000E+00  0.00000000000E+00  0.20529212643E+04  0.20529212643E+04  0.00000000000E+00 0. -1.
         21   -1    0    0  501  502 -0.00000000000E+00 -0.00000000000E+00 -0.23099121575E+02  0.23099121575E+02  0.00000000000E+00 0. -1.
         25    1    1    2    0    0 -0.28450643308E+02 -0.22451338352E+02  0.59143774027E+03  0.60558822835E+03  0.12500000000E+03 0.  0.
         25    1    1    2    0    0  0.78086886012E+02 -0.28680606427E+02  0.93139705496E+03  0.94342228771E+03  0.12500000000E+03 0.  0.
         25    1    1    2    0    0 -0.49636242703E+02  0.51131944779E+02  0.50698734746E+03  0.52700986979E+03  0.12500000000E+03 0.  0.
</event>
<event>
 5    0  0.5590591E-005  0.2372184E+03  0.7546771E-02  0.1121660E+00
         21   -1    0    0  502  501  0.00000000000E+00  0.00000000000E+00  0.53926932275E+02  0.53926932275E+02  0.00000000000E+00 0. -1.
         21   -1    0    0  501  502 -0.00000000000E+00 -0.00000000000E+00 -0.10434968375E+04  0.10434968375E+04  0.00000000000E+00 0. -1.
         25    1    1    2    0    0  0.37422069181E+02 -0.30018097546E+02 -0.46093159005E+03  0.47998377905E+03  0.12500000000E+03 0.  0.
         25    1    1    2    0    0  0.68651863909E+02  0.55409436620E+02 -0.26232130682E+03  0.30367869879E+03  0.12500000000E+03 0.  0.
         25    1    1    2    0    0 -0.10607393309E+03 -0.25391339074E+02 -0.26631700835E+03  0.31376129193E+03  0.12500000000E+03 0.  0.
</event>
<event>
 5    0  0.5590591E-005  0.2403737E+03  0.7546771E-02  0.1119544E+00
         21   -1    0    0  502  501  0.00000000000E+00  0.00000000000E+00  0.28884537420E+02  0.28884537420E+02  0.00000000000E+00 0.  1.
         21   -1    0    0  501  502 -0.00000000000E+00 -0.00000000000E+00 -0.20003622893E+04  0.20003622893E+04  0.00000000000E+00 0.  1.
         25    1    1    2    0    0  0.96667785065E+02 -0.91333160838E+01 -0.63209967061E+03  0.65161573931E+03  0.12500000000E+03 0.  0.
         25    1    1    2    0    0 -0.10558480884E+03 -0.40185828744E+02 -0.96876860305E+03  0.98331106927E+03  0.12500000000E+03 0.  0.
         25    1    1    2    0    0  0.89170237798E+01  0.49319144828E+02 -0.37060947820E+03  0.39432001813E+03  0.12500000000E+03 0.  0.
</event>
<event>
 5    0  0.5590591E-005  0.2837229E+03  0.7546771E-02  0.1093673E+00
         21   -1    0    0  502  501  0.00000000000E+00  0.00000000000E+00  0.55564764614E+02  0.55564764614E+02  0.00000000000E+00 0.  1.
         21   -1    0    0  501  502 -0.00000000000E+00 -0.00000000000E+00 -0.14487357729E+04  0.14487357729E+04  0.00000000000E+00 0.  1.
         25    1    1    2    0    0 -0.58651053054E+02  0.31561762667E+02 -0.89071423577E+03  0.90190517278E+03  0.12500000000E+03 0.  0.
         25    1    1    2    0    0  0.52589478344E+02  0.72822117921E+02 -0.15412025558E+03  0.21782278869E+03  0.12500000000E+03 0.  0.
         25    1    1    2    0    0  0.60615747105E+01 -0.10438388059E+03 -0.34833651693E+03  0.38457257604E+03  0.12500000000E+03 0.  0.
</event>
<event>
 5    0  0.5590591E-005  0.3796238E+03  0.7546771E-02  0.1051073E+00
         21   -1    0    0  502  501  0.00000000000E+00  0.00000000000E+00  0.41745029174E+03  0.41745029174E+03  0.00000000000E+00 0. -1.
         21   -1    0    0  501  502 -0.00000000000E+00 -0.00000000000E+00 -0.34522479797E+03  0.34522479797E+03  0.00000000000E+00 0. -1.
         25    1    1    2    0    0  0.20081560341E+03  0.13333312868E+03  0.14892672408E+03  0.30969145762E+03  0.12500000000E+03 0.  0.
         25    1    1    2    0    0  0.38649558449E+02 -0.17694733578E+01  0.29806131403E+02  0.13420255167E+03  0.12500000000E+03 0.  0.
         25    1    1    2    0    0 -0.23946516186E+03 -0.13156365532E+03 -0.10650736171E+03  0.31878108043E+03  0.12500000000E+03 0.  0.
</event>
<event>
 5    0  0.5590591E-005  0.4833213E+03  0.7546771E-02  0.1018226E+00
         21   -1    0    0  502  501  0.00000000000E+00  0.00000000000E+00  0.12202189976E+03  0.12202189976E+03  0.00000000000E+00 0. -1.
         21   -1    0    0  501  502 -0.00000000000E+00 -0.00000000000E+00 -0.19144059985E+04  0.19144059985E+04  0.00000000000E+00 0. -1.
         25    1    1    2    0    0  0.66624500765E+02 -0.10998293521E+03 -0.22765574957E+03  0.28980547002E+03  0.12500000000E+03 0.  0.
         25    1    1    2    0    0  0.31689310990E+03  0.53464418876E+02 -0.50673479445E+03  0.61293134941E+03  0.12500000000E+03 0.  0.
         25    1    1    2    0    0 -0.38351761066E+03  0.56518516336E+02 -0.10579935547E+04  0.11336910788E+04  0.12500000000E+03 0.  0.
</event>
<event>
 5    0  0.5590591E-005  0.3407906E+03  0.7546771E-02  0.1066460E+00
         21   -1    0    0  502  501  0.00000000000E+00  0.00000000000E+00  0.23420903799E+03  0.23420903799E+03  0.00000000000E+00 0.  1.
         21   -1    0    0  501  502 -0.00000000000E+00 -0.00000000000E+00 -0.49587411982E+03  0.49587411982E+03  0.00000000000E+00 0.  1.
         25    1    1    2    0    0 -0.72978583998E+02  0.49339711600E+02 -0.13754371901E+03  0.20567828155E+03  0.12500000000E+03 0.  0.
         25    1    1    2    0    0 -0.16536115479E+03  0.44255499320E+02  0.39665373867E+01  0.21199904281E+03  0.12500000000E+03 0.  0.
         25    1    1    2    0    0  0.23833973879E+03 -0.93595210920E+02 -0.12808790021E+03  0.31240583345E+03  0.12500000000E+03 0.  0.
</event>
<event>
 5    0  0.5590591E-005  0.3041958E+03  0.7546771E-02  0.1083162E+00
         21   -1    0    0  502  501  0.00000000000E+00  0.00000000000E+00  0.16336949622E+04  0.16336949622E+04  0.00000000000E+00 0.  1.
         21   -1    0    0  501  502 -0.00000000000E+00 -0.00000000000E+00 -0.56641593657E+02  0.56641593657E+02  0.00000000000E+00 0.  1.
         25    1    1    2    0    0 -0.44280114322E+02  0.91617926436E+02  0.30035947012E+03  0.34087444061E+03  0.12500000000E+03 0.  0.
         25    1    1    2    0    0 -0.14955240656E+03 -0.43306473847E+02  0.52444507500E+03  0.56116754154E+03  0.12500000000E+03 0.  0.
         25    1    1    2    0    0  0.19383252088E+03 -0.48311452589E+02  0.75224882341E+03  0.78829457370E+03  0.12500000000E+03 0.  0.
</event>
<event>
 5    0  0.5590591E-005  0.2935943E+03  0.7546771E-02  0.1088487E+00
         21   -1    0    0  502  501  0.00000000000E+00  0.00000000000E+00  0.10864069043E+03  0.10864069043E+03  0.00000000000E+00 0. -1.
         21   -1    0    0  501  502 -0.00000000000E+00 -0.00000000000E+00 -0.79341897691E+03  0.79341897691E+03  0.00000000000E+00 0. -1.
         25    1    1    2    0    0  0.11629491733E+02  0.38672622824E+02 -0.99156941834E+02  0.16458406954E+03  0.12500000000E+03 0.  0.
         25    1    1    2    0    0  0.14885193643E+03 -0.11025358884E+03 -0.22380232965E+03  0.31626766447E+03  0.12500000000E+03 0.  0.
         25    1    1    2    0    0 -0.16048142816E+03  0.71580966018E+02 -0.36181901500E+03  0.42120793333E+03  0.12500000000E+03 0.  0.
</event>
<event>
 5    0  0.5590591E-005  0.3524633E+03  0.7546771E-02  0.1061609E+00
         21   -1    0    0  502  501  0.00000000000E+00  0.00000000000E+00  0.54875636479E+03  0.54875636479E+03  0.00000000000E+00 0.  1.
         21   -1    0    0  501  502 -0.00000000000E+00 -0.00000000000E+00 -0.22638528062E+03  0.22638528062E+03  0.00000000000E+00 0.  1.
         25    1    1    2    0    0  0.15445612275E+03  0.37586434407E+02 -0.56138595161E+02  0.20987133147E+03  0.12500000000E+03 0.  0.
         25    1    1    2    0    0 -0.11114483468E+03  0.12574667553E+03  0.20095312723E+03  0.29012507652E+03  0.12500000000E+03 0.  0.
         25    1    1    2    0    0 -0.43311288063E+02 -0.16333310994E+03  0.17755655211E+03  0.27514523742E+03  0.12500000000E+03 0.  0.
</event>
<event>
 5    0  0.5590591E-005  0.3387412E+03  0.7546771E-02  0.1067333E+00
         21   -1    0    0  502  501  0.00000000000E+00  0.00000000000E+00  0.21181119490E+04  0.21181119490E+04  0.00000000000E+00 0.  1.
         21   -1    0    0  501  502 -0.00000000000E+00 -0.00000000000E+00 -0.54173522479E+02  0.54173522479E+02  0.00000000000E+00 0.  1.
         25    1    1    2    0    0  0.69712189041E+02  0.79176705528E+02  0.21231575575E+03  0.26801440286E+03  0.12500000000E+03 0.  0.
         25    1    1    2    0    0  0.24509566298E+02 -0.72103955628E+02  0.16077395149E+04  0.16143887534E+04  0.12500000000E+03 0.  0.
         25    1    1    2    0    0 -0.94221755340E+02 -0.70727498991E+01  0.24388315583E+03  0.28988231521E+03  0.12500000000E+03 0.  0.
</event>
<event>
 5    0  0.5590591E-005  0.4127339E+03  0.7546771E-02  0.1039457E+00
         21   -1    0    0  502  501  0.00000000000E+00  0.00000000000E+00  0.15160986208E+03  0.15160986208E+03  0.00000000000E+00 0. -1.
         21   -1    0    0  501  502 -0.00000000000E+00 -0.00000000000E+00 -0.11236029946E+04  0.11236029946E+04  0.00000000000E+00 0. -1.
         25    1    1    2    0    0 -0.27694064766E+02 -0.17500944236E+03 -0.42541140528E+03  0.47748835576E+03  0.12500000000E+03 0.  0.
         25    1    1    2    0    0 -0.11573655525E+03 -0.10154408538E+03 -0.61147836196E+02  0.20753363431E+03  0.12500000000E+03 0.  0.
         25    1    1    2    0    0  0.14343062001E+03  0.27655352775E+03 -0.48543389107E+03  0.59019086664E+03  0.12500000000E+03 0.  0.
</event>
<event>
 5    0  0.5590591E-005  0.3998002E+03  0.7546771E-02  0.1043849E+00
         21   -1    0    0  502  501  0.00000000000E+00  0.00000000000E+00  0.16828334961E+03  0.16828334961E+03  0.00000000000E+00 0. -1.
         21   -1    0    0  501  502 -0.00000000000E+00 -0.00000000000E+00 -0.94982773267E+03  0.94982773267E+03  0.00000000000E+00 0. -1.
         25    1    1    2    0    0 -0.99556756426E+00  0.17081493919E+03 -0.25183826626E+03  0.32897757820E+03  0.12500000000E+03 0.  0.
         25    1    1    2    0    0  0.17943219418E+02  0.17120137911E+03 -0.25846837444E+03  0.33475778096E+03  0.12500000000E+03 0.  0.
         25    1    1    2    0    0 -0.16947651854E+02 -0.34201631829E+03 -0.27123774235E+03  0.45437572312E+03  0.12500000000E+03 0.  0.
</event>
<event>
 5    0  0.5719192E-005  0.6201078E+03  0.7546771E-02  0.9864545E-01
         21   -1    0    0  502  501  0.00000000000E+00  0.00000000000E+00  0.15904450851E+04  0.15904450851E+04  0.00000000000E+00 0.  1.
         21   -1    0    0  501  502 -0.00000000000E+00 -0.00000000000E+00 -0.24177739854E+03  0.24177739854E+03  0.00000000000E+00 0.  1.
         25    1    1    2    0    0  0.25896371352E+03 -0.23656320070E+03  0.31553733990E+03  0.48807086137E+03  0.12500000000E+03 0.  0.
         25    1    1    2    0    0 -0.28691756865E+03 -0.14565384098E+03  0.81660963068E+03  0.88657375413E+03  0.12500000000E+03 0.  0.
         25    1    1    2    0    0  0.27953855134E+02  0.38221704169E+03  0.21652071600E+03  0.45757786816E+03  0.12500000000E+03 0.  0.
</event>
<event>
 5    0  0.5590591E-005  0.4080439E+03  0.7546771E-02  0.1041029E+00
         21   -1    0    0  502  501  0.00000000000E+00  0.00000000000E+00  0.10443228571E+04  0.10443228571E+04  0.00000000000E+00 0. -1.
         21   -1    0    0  501  502 -0.00000000000E+00 -0.00000000000E+00 -0.15943326425E+03  0.15943326425E+03  0.00000000000E+00 0. -1.
         25    1    1    2    0    0 -0.79940346377E+01 -0.83441915450E+02  0.64604325661E+02  0.16378393309E+03  0.12500000000E+03 0.  0.
         25    1    1    2    0    0  0.82058499440E+02  0.24045053328E+03  0.76973045569E+03  0.82015853998E+03  0.12500000000E+03 0.  0.
         25    1    1    2    0    0 -0.74064464802E+02 -0.15700861783E+03  0.50554811538E+02  0.21981364833E+03  0.12500000000E+03 0.  0.
</event>
<event>
 5    0  0.5590591E-005  0.2801720E+03  0.7546771E-02  0.1095595E+00
         21   -1    0    0  502  501  0.00000000000E+00  0.00000000000E+00  0.62989560480E+03  0.62989560480E+03  0.00000000000E+00 0. -1.
         21   -1    0    0  501  502 -0.00000000000E+00 -0.00000000000E+00 -0.12461804775E+03  0.12461804775E+03  0.00000000000E+00 0. -1.
         25    1    1    2    0    0  0.11366232304E+02  0.61774068351E+02  0.14570858014E+03  0.20199311148E+03  0.12500000000E+03 0.  0.
         25    1    1    2    0    0 -0.23549393263E+02  0.81214496888E+01  0.38589352104E+03  0.40639800867E+03  0.12500000000E+03 0.  0.
         25    1    1    2    0    0  0.12183160959E+02 -0.69895518040E+02 -0.26324544133E+02  0.14612253241E+03  0.12500000000E+03 0.  0.
</event>
<event>
 5    0  0.5590591E-005  0.3953427E+03  0.7546771E-02  0.1045404E+00
         21   -1    0    0  502  501  0.00000000000E+00  0.00000000000E+00  0.42894011351E+02  0.42894011351E+02  0.00000000000E+00 0.  1.
         21   -1    0    0  501  502 -0.00000000000E+00 -0.00000000000E+00 -0.36437694794E+04  0.36437694794E+04  0.00000000000E+00 0.  1.
         25    1    1    2    0    0  0.47022269931E+02  0.28131151263E+03 -0.93982735872E+03  0.99007460588E+03  0.12500000000E+03 0.  0.
         25    1    1    2    0    0 -0.28955810892E+02 -0.13399513471E+03 -0.19729575375E+04  0.19816608135E+04  0.12500000000E+03 0.  0.
         25    1    1    2    0    0 -0.18066459039E+02 -0.14731637792E+03 -0.68809057182E+03  0.71492807132E+03  0.12500000000E+03 0.  0.
</event>
<event>
 5    0  0.5590591E-005  0.3948902E+03  0.7546771E-02  0.1045564E+00
         21   -1    0    0  502  501  0.00000000000E+00  0.00000000000E+00  0.21956150713E+03  0.21956150713E+03  0.00000000000E+00 0.  1.
         21   -1    0    0  501  502 -0.00000000000E+00 -0.00000000000E+00 -0.71022574083E+03  0.71022574083E+03  0.00000000000E+00 0.  1.
         25    1    1    2    0    0  0.93602757655E+02  0.16409827997E+03 -0.37803172572E+03  0.44070705393E+03  0.12500000000E+03 0.  0.
         25    1    1    2    0    0 -0.19609420459E+03 -0.20369174442E+03 -0.82368221037E+02  0.31992622221E+03  0.12500000000E+03 0.  0.
         25    1    1    2    0    0  0.10249144693E+03  0.39593464455E+02 -0.30264286942E+02  0.16915397183E+03  0.12500000000E+03 0.  0.
</event>
<event>
 5    0  0.5590591E-005  0.3680423E+03  0.7546771E-02  0.1055444E+00
         21   -1    0    0  502  501  0.00000000000E+00  0.00000000000E+00  0.18486568771E+04  0.18486568771E+04  0.00000000000E+00 0. -1.
         21   -1    0    0  501  502 -0.00000000000E+00 -0.00000000000E+00 -0.73272188994E+02  0.73272188994E+02  0.00000000000E+00 0. -1.
         25    1    1    2    0    0 -0.19217123047E+03 -0.23964083139E+02  0.85220017403E+03  0.88282172363E+03  0.12500000000E+03 0.  0.
         25    1    1    2    0    0  0.94797519777E+02 -0.16672170211E+03  0.43319618336E+03  0.48996594676E+03  0.12500000000E+03 0.  0.
         25    1    1    2    0    0  0.97373710696E+02  0.19068578525E+03  0.48998833070E+03  0.54914139569E+03  0.12500000000E+03 0.  0.
</event>
<event>
 5    0  0.5590591E-005  0.5410632E+03  0.7546771E-02  0.1003584E+00
         21   -1    0    0  502  501  0.00000000000E+00  0.00000000000E+00  0.21914536425E+03  0.21914536425E+03  0.00000000000E+00 0. -1.
         21   -1    0    0  501  502 -0.00000000000E+00 -0.00000000000E+00 -0.13358682411E+04  0.13358682411E+04  0.00000000000E+00 0. -1.
         25    1    1    2    0    0  0.14006027496E+02  0.46035041766E+02  0.97543061183E+02  0.16569563260E+03  0.12500000000E+03 0.  0.
         25    1    1    2    0    0  0.10900168700E+03  0.18147812967E+03 -0.15232868977E+03  0.28921395030E+03  0.12500000000E+03 0.  0.
         25    1    1    2    0    0 -0.12300771450E+03 -0.22751317144E+03 -0.10619372483E+04  0.11001040225E+04  0.12500000000E+03 0.  0.
</event>
<event>
 5    0  0.5590591E-005  0.2487793E+03  0.7546771E-02  0.1114079E+00
         21   -1    0    0  502  501  0.00000000000E+00  0.00000000000E+00  0.42120357080E+03  0.42120357080E+03  0.00000000000E+00 0. -1.
         21   -1    0    0  501  502 -0.00000000000E+00 -0.00000000000E+00 -0.14693875299E+03  0.14693875299E+03  0.00000000000E+00 0. -1.
         25    1    1    2    0    0  0.60025977124E+01 -0.48402820464E+02  0.24867669276E+03  0.28256673854E+03  0.12500000000E+03 0.  0.
         25    1    1    2    0    0 -0.32777369999E+01  0.75135397287E+02  0.52276560182E+02  0.15496422242E+03  0.12500000000E+03 0.  0.
         25    1    1    2    0    0 -0.27248607125E+01 -0.26732576822E+02 -0.26688435140E+02  0.13061136283E+03  0.12500000000E+03 0.  0.
</event>
<event>
 5    0  0.5590591E-005  0.4070185E+03  0.7546771E-02  0.1041376E+00
         21   -1    0    0  502  501  0.00000000000E+00  0.00000000000E+00  0.93689981166E+03  0.93689981166E+03  0.00000000000E+00 0.  1.
         21   -1    0    0  501  502 -0.00000000000E+00 -0.00000000000E+00 -0.17682153626E+03  0.17682153626E+03  0.00000000000E+00 0.  1.
         25    1    1    2    0    0  0.72832909835E+02 -0.61836612380E+01  0.31994031578E+03  0.35118325143E+03  0.12500000000E+03 0.  0.
         25    1    1    2    0    0  0.23956047029E+03  0.35127957995E+01  0.28256704637E+03  0.39098682120E+03  0.12500000000E+03 0.  0.
         25    1    1    2    0    0 -0.31239338012E+03  0.26708654385E+01  0.15757091325E+03  0.37155127529E+03  0.12500000000E+03 0.  0.
</event>
<event>
 5    0  0.5590591E-005  0.3417490E+03  0.7546771E-02  0.1066053E+00
         21   -1    0    0  502  501  0.00000000000E+00  0.00000000000E+00  0.24094410227E+03  0.24094410227E+03  0.00000000000E+00 0.  1.
         21   -1    0    0  501  502 -0.00000000000E+00 -0.00000000000E+00 -0.48472807672E+03  0.48472807672E+03  0.00000000000E+00 0.  1.
         25    1    1    2    0    0  0.10352566007E+03 -0.38381183047E+02 -0.23418973364E+03  0.28750740660E+03  0.12500000000E+03 0.  0.
         25    1    1    2    0    0 -0.60314818818E+01  0.44400863249E+02 -0.16789142428E+03  0.21405687510E+03  0.12500000000E+03 0.  0.
         25    1    1    2    0    0 -0.97494178192E+02 -0.60196802018E+01  0.15829718348E+03  0.22410789729E+03  0.12500000000E+03 0.  0.
</event>
<event>
 5    0  0.5590591E-005  0.3096822E+03  0.7546771E-02  0.1080498E+00
         21   -1    0    0  502  501  0.00000000000E+00  0.00000000000E+00  0.39031166492E+03  0.39031166492E+03  0.00000000000E+00 0. -1.
         21   -1    0    0  501  502 -0.00000000000E+00 -0.00000000000E+00 -0.24570890834E+03  0.24570890834E+03  0.00000000000E+00 0. -1.
         25    1    1    2    0    0 -0.88085512454E+02  0.95020926917E+02  0.68376532348E+02  0.19258344745E+03  0.12500000000E+03 0.  0.
         25    1    1    2    0    0  0.17221232469E+03 -0.10532805393E+03  0.14422768005E+03  0.27780876050E+03  0.12500000000E+03 0.  0.
         25    1    1    2    0    0 -0.84126812231E+02  0.10307127013E+02 -0.68001455814E+02  0.16562836531E+03  0.12500000000E+03 0.  0.
</event>
<event>
 5    0  0.5590591E-005  0.3396251E+03  0.7546771E-02  0.1066956E+00
         21   -1    0    0  502  501  0.00000000000E+00  0.00000000000E+00  0.21513049301E+03  0.21513049301E+03  0.00000000000E+00 0.  1.
         21   -1    0    0  501  502 -0.00000000000E+00 -0.00000000000E+00 -0.53616397409E+03  0.53616397409E+03  0.00000000000E+00 0.  1.
         25    1    1    2    0    0 -0.16856861291E+03 -0.63236524895E+02 -0.18281624877E+03  0.28541376308E+03  0.12500000000E+03 0.  0.
         25    1    1    2    0    0  0.12420862526E+03  0.19024028107E+03 -0.10229700983E+03  0.27876302723E+03  0.12500000000E+03 0.  0.
         25    1    1    2    0    0  0.44359987658E+02 -0.12700375617E+03 -0.35920222472E+02  0.18711767679E+03  0.12500000000E+03 0.  0.
</event>
<event>
 5    0  0.5590591E-005  0.3589938E+03  0.7546771E-02  0.1058983E+00
         21   -1    0    0  502  501  0.00000000000E+00  0.00000000000E+00  0.20894522210E+03  0.20894522210E+03  0.00000000000E+00 0.  1.
         21   -1    0    0  501  502 -0.00000000000E+00 -0.00000000000E+00 -0.61679574120E+03  0.61679574120E+03  0.00000000000E+00 0.  1.
         25    1    1    2    0    0  0.12318352285E+03 -0.16842306295E+03 -0.16881450659E+03  0.29608081003E+03  0.12500000000E+03 0.  0.
         25    1    1    2    0    0 -0.17197413291E+02  0.66240468075E+02 -0.29581870220E+03  0.32835537944E+03  0.12500000000E+03 0.  0.
         25    1    1    2    0    0 -0.10598610956E+03  0.10218259487E+03  0.56782689688E+02  0.20130477382E+03  0.12500000000E+03 0.  0.
</event>
<event>
 5    0  0.5590591E-005  0.2728880E+03  0.7546771E-02  0.1099638E+00
         21   -1    0    0  502  501  0.00000000000E+00  0.00000000000E+00  0.26208617745E+03  0.26208617745E+03  0.00000000000E+00 0. -1.
         21   -1    0    0  501  502 -0.00000000000E+00 -0.00000000000E+00 -0.28413497738E+03  0.28413497738E+03  0.00000000000E+00 0. -1.
         25    1    1    2    0    0  0.14309690597E+02  0.10420306605E+03 -0.35077397009E+02  0.16708821023E+03  0.12500000000E+03 0.  0.
         25    1    1    2    0    0  0.53426644804E+02 -0.63807000861E+00 -0.10113735433E+03  0.16943605859E+03  0.12500000000E+03 0.  0.
         25    1    1    2    0    0 -0.67736335400E+02 -0.10356499604E+03  0.11416595141E+03  0.20969688600E+03  0.12500000000E+03 0.  0.
</event>
<event>
 5    0  0.5590591E-005  0.2661455E+03  0.7546771E-02  0.1103506E+00
         21   -1    0    0  502  501  0.00000000000E+00  0.00000000000E+00  0.15439402990E+04  0.15439402990E+04  0.00000000000E+00 0. -1.
         21   -1    0    0  501  502 -0.00000000000E+00 -0.00000000000E+00 -0.45878336398E+02  0.45878336398E+02  0.00000000000E+00 0. -1.
         25    1    1    2    0    0 -0.78063504690E+02  0.73419258340E+02  0.10100431783E+04  0.10233750633E+04  0.12500000000E+03 0.  0.
         25    1    1    2    0    0  0.69403309589E+02 -0.13652599345E+02  0.19481186658E+03  0.24203279987E+03  0.12500000000E+03 0.  0.
         25    1    1    2    0    0  0.86601951011E+01 -0.59766658996E+02  0.29320691772E+03  0.32441077218E+03  0.12500000000E+03 0.  0.
</event>
<event>
 5    0  0.5590591E-005  0.3553065E+03  0.7546771E-02  0.1060458E+00
         21   -1    0    0  502  501  0.00000000000E+00  0.00000000000E+00  0.54307324698E+03  0.54307324698E+03  0.00000000000E+00 0. -1.
         21   -1    0    0  501  502 -0.00000000000E+00 -0.00000000000E+00 -0.23245987768E+03  0.23245987768E+03  0.00000000000E+00 0. -1.
         25    1    1    2    0    0 -0.13518161721E+03 -0.55293738448E+02 -0.98461608810E+02  0.21598878571E+03  0.12500000000E+03 0.  0.
         25    1    1    2    0    0  0.30246390841E+02  0.32912858590E+02  0.36591283152E+03  0.38924966370E+03  0.12500000000E+03 0.  0.
         25    1    1    2    0    0  0.10493522637E+03  0.22380879858E+02  0.43162146590E+02  0.17029467524E+03  0.12500000000E+03 0.  0.
</event>
<event>
 5    0  0.5590591E-005  0.5005311E+03  0.7546771E-02  0.1013640E+00
         21   -1    0    0  502  501  0.00000000000E+00  0.00000000000E+00  0.58670279367E+03  0.58670279367E+03  0.00000000000E+00 0. -1.
         21   -1    0    0  501  502 -0.00000000000E+00 -0.00000000000E+00 -0.42701580989E+03  0.42701580989E+03  0.00000000000E+00 0. -1.
         25    1    1    2    0    0  0.19681903883E+03 -0.77899577965E+02  0.20043128640E+03  0.31718098755E+03  0.12500000000E+03 0.  0.
         25    1    1    2    0    0  0.13860817775E+03 -0.13243732133E+03 -0.14180398344E+03  0.26923083170E+03  0.12500000000E+03 0.  0.
         25    1    1    2    0    0 -0.33542721658E+03  0.21033689930E+03  0.10105968081E+03  0.42730678430E+03  0.12500000000E+03 0.  0.
</event>
<event>
 5    0  0.5590591E-005  0.3706950E+03  0.7546771E-02  0.1054428E+00
         21   -1    0    0  502  501  0.00000000000E+00  0.00000000000E+00  0.25448799866E+04  0.25448799866E+04  0.00000000000E+00 0. -1.
         21   -1    0    0  501  502 -0.00000000000E+00 -0.00000000000E+00 -0.53996562145E+02  0.53996562145E+02  0.00000000000E+00 0. -1.
         25    1    1    2    0    0  0.93400340934E+01  0.17657110168E+03  0.15770923015E+04  0.15918887266E+04  0.12500000000E+03 0.  0.
         25    1    1    2    0    0  0.10518768210E+03 -0.23549311366E+02  0.21020369960E+03  0.26726319211E+03  0.12500000000E+03 0.  0.
         25    1    1    2    0    0 -0.11452771620E+03 -0.15302179031E+03  0.70358742334E+03  0.73972463010E+03  0.12500000000E+03 0.  0.
</event>
<event>
 5    0  0.5590591E-005  0.3360173E+03  0.7546771E-02  0.1068505E+00
         21   -1    0    0  502  501  0.00000000000E+00  0.00000000000E+00  0.30310924240E+03  0.30310924240E+03  0.00000000000E+00 0.  1.
         21   -1    0    0  501  502 -0.00000000000E+00 -0.00000000000E+00 -0.37249815471E+03  0.37249815471E+03  0.00000000000E+00 0.  1.
         25    1    1    2    0    0 -0.26026473010E+02  0.61220541244E+02 -0.14939144741E+03  0.20583521692E+03  0.12500000000E+03 0.  0.
         25    1    1    2    0    0  0.16008025018E+03 -0.67007221531E+01  0.16378128950E+03  0.26099788690E+03  0.12500000000E+03 0.  0.
         25    1    1    2    0    0 -0.13405377717E+03 -0.54519819091E+02 -0.83778754404E+02  0.20877429328E+03  0.12500000000E+03 0.  0.
</event>
<event>
 5    0  0.5590591E-005  0.2714398E+03  0.7546771E-02  0.1100458E+00
         21   -1    0    0  502  501  0.00000000000E+00  0.00000000000E+00  0.32386228598E+03  0.32386228598E+03  0.00000000000E+00 0. -1.
         21   -1    0    0  501  502 -0.00000000000E+00 -0.00000000000E+00 -0.22750282846E+03  0.22750282846E+03  0.00000000000E+00 0. -1.
         25    1    1    2    0    0 -0.21346199023E+02  0.85004778272E+02  0.11086634199E+03  0.18867384113E+03  0.12500000000E+03 0.  0.
         25    1    1    2    0    0  0.77776212074E+02 -0.10104945909E+03  0.79689821096E+02  0.19553925420E+03  0.12500000000E+03 0.  0.
         25    1    1    2    0    0 -0.56430013051E+02  0.16044680814E+02 -0.94196705561E+02  0.16715201911E+03  0.12500000000E+03 0.  0.
</event>
<event>
 5    0  0.6701246E-005  0.2422866E+03  0.7546771E-02  0.1118279E+00
         21   -1    0    0  502  501  0.00000000000E+00  0.00000000000E+00  0.31681517974E+03  0.31681517974E+03  0.00000000000E+00 0. -1.
         21   -1    0    0  501  502 -0.00000000000E+00 -0.00000000000E+00 -0.18529035411E+03  0.18529035411E+03  0.00000000000E+00 0. -1.
         25    1    1    2    0    0  0.86694447383E+02  0.44839531825E+02 -0.60004023407E+02  0.16956412842E+03  0.12500000000E+03 0.  0.
         25    1    1    2    0    0 -0.41508049484E+02 -0.26179147934E+02  0.12176575456E+03  0.18127372932E+03  0.12500000000E+03 0.  0.
         25    1    1    2    0    0 -0.45186397898E+02 -0.18660383891E+02  0.69763094477E+02  0.15126767610E+03  0.12500000000E+03 0.  0.
</event>
<event>
 5    0  0.5590591E-005  0.4819448E+03  0.7546771E-02  0.1018602E+00
         21   -1    0    0  502  501  0.00000000000E+00  0.00000000000E+00  0.50668883758E+03  0.50668883758E+03  0.00000000000E+00 0. -1.
         21   -1    0    0  501  502 -0.00000000000E+00 -0.00000000000E+00 -0.45840919057E+03  0.45840919057E+03  0.00000000000E+00 0. -1.
         25    1    1    2    0    0  0.21688595314E+03 -0.10193205864E+03 -0.33044131106E+03  0.42690294132E+03  0.12500000000E+03 0.  0.
         25    1    1    2    0    0 -0.13787633886E+03  0.10568101252E+03  0.30585789928E+03  0.37329936482E+03  0.12500000000E+03 0.  0.
         25    1    1    2    0    0 -0.79009614288E+02 -0.37489538820E+01  0.72863058788E+02  0.16489572202E+03  0.12500000000E+03 0.  0.
</event>
<event>
 5    0  0.5590591E-005  0.3219385E+03  0.7546771E-02  0.1074761E+00
         21   -1    0    0  502  501  0.00000000000E+00  0.00000000000E+00  0.90783522889E+02  0.90783522889E+02  0.00000000000E+00 0. -1.
         21   -1    0    0  501  502 -0.00000000000E+00 -0.00000000000E+00 -0.11416652324E+04  0.11416652324E+04  0.00000000000E+00 0. -1.
         25    1    1    2    0    0  0.17448531678E+03  0.89701358210E+02 -0.46504241174E+03  0.51998163829E+03  0.12500000000E+03 0.  0.
         25    1    1    2    0    0 -0.62092638909E+02 -0.33722210254E+02 -0.49087964421E+03  0.51144941918E+03  0.12500000000E+03 0.  0.
         25    1    1    2    0    0 -0.11239267787E+03 -0.55979147956E+02 -0.94959653597E+02  0.20101769787E+03  0.12500000000E+03 0.  0.
</event>
<event>
 5    0  0.5590591E-005  0.4481026E+03  0.7546771E-02  0.1028289E+00
         21   -1    0    0  502  501  0.00000000000E+00  0.00000000000E+00  0.41947864535E+03  0.41947864535E+03  0.00000000000E+00 0.  1.
         21   -1    0    0  501  502 -0.00000000000E+00 -0.00000000000E+00 -0.47867966084E+03  0.47867966084E+03  0.00000000000E+00 0. -1.
         25    1    1    2    0    0 -0.83316299955E+02 -0.21404774106E+03  0.14611382456E+02  0.26190939996E+03  0.12500000000E+03 0.  0.
         25    1    1    2    0    0  0.36577186134E+01  0.11927674917E+03 -0.30209880974E+03  0.34803593585E+03  0.12500000000E+03 0.  0.
         25    1    1    2    0    0  0.79658581341E+02  0.94770991893E+02  0.22828641179E+03  0.28821297038E+03  0.12500000000E+03 0.  0.
</event>
<event>
 5    0  0.7205618E-005  0.5961016E+03  0.7546771E-02  0.9913527E-01
         21   -1    0    0  502  501  0.00000000000E+00  0.00000000000E+00  0.41530732458E+03  0.41530732458E+03  0.00000000000E+00 0.  1.
         21   -1    0    0  501  502 -0.00000000000E+00 -0.00000000000E+00 -0.85560043961E+03  0.85560043961E+03  0.00000000000E+00 0.  1.
         25    1    1    2    0    0 -0.28318239362E+03  0.29379712516E+03 -0.17298876788E+03  0.46049878678E+03  0.12500000000E+03 0.  0.
         25    1    1    2    0    0  0.87096907043E+02 -0.29189437089E+03  0.12678119993E+03  0.35282668214E+03  0.12500000000E+03 0.  0.
         25    1    1    2    0    0  0.19608548658E+03 -0.19027542678E+01 -0.39408554708E+03  0.45758229527E+03  0.12500000000E+03 0.  0.
</event>
<event>
 5    0  0.5590591E-005  0.3495612E+03  0.7546771E-02  0.1062795E+00
         21   -1    0    0  502  501  0.00000000000E+00  0.00000000000E+00  0.59994955953E+03  0.59994955953E+03  0.00000000000E+00 0.  1.
         21   -1    0    0  501  502 -0.00000000000E+00 -0.00000000000E+00 -0.20367219454E+03  0.20367219454E+03  0.00000000000E+00 0.  1.
         25    1    1    2    0    0  0.50198944617E+02 -0.58799523598E+02  0.84009249756E+02  0.16929226817E+03  0.12500000000E+03 0.  0.
         25    1    1    2    0    0 -0.10150640131E+03  0.23593190323E+03  0.29538205030E+03  0.41090505972E+03  0.12500000000E+03 0.  0.
         25    1    1    2    0    0  0.51307456689E+02 -0.17713237963E+03  0.16886064933E+02  0.22342442618E+03  0.12500000000E+03 0.  0.
</event>
<event>
 5    0  0.5590591E-005  0.3167101E+03  0.7546771E-02  0.1077173E+00
         21   -1    0    0  502  501  0.00000000000E+00  0.00000000000E+00  0.28517070263E+03  0.28517070263E+03  0.00000000000E+00 0. -1.
         21   -1    0    0  501  502 -0.00000000000E+00 -0.00000000000E+00 -0.35173776666E+03  0.35173776666E+03  0.00000000000E+00 0. -1.
         25    1    1    2    0    0  0.32782157729E+02  0.18819293097E+03 -0.17754639942E+03  0.28920403364E+03  0.12500000000E+03 0.  0.
         25    1    1    2    0    0 -0.38996064834E+02 -0.87453970604E+02  0.96457946092E+01  0.15775592350E+03  0.12500000000E+03 0.  0.
         25    1    1    2    0    0  0.62139071056E+01 -0.10073896036E+03  0.10133354078E+03  0.18994851214E+03  0.12500000000E+03 0.  0.
</event>
<event>
 5    0  0.5590591E-005  0.2832222E+03  0.7546771E-02  0.1093942E+00
         21   -1    0    0  502  501  0.00000000000E+00  0.00000000000E+00  0.29786792860E+03  0.29786792860E+03  0.00000000000E+00 0.  1.
         21   -1    0    0  501  502 -0.00000000000E+00 -0.00000000000E+00 -0.26929649252E+03  0.26929649252E+03  0.00000000000E+00 0.  1.
         25    1    1    2    0    0  0.35512537077E+02 -0.83878740313E+02  0.55622736420E+02  0.16436444924E+03  0.12500000000E+03 0.  0.
         25    1    1    2    0    0 -0.15943041200E+03  0.84561624848E+02  0.20470811345E+02  0.22048305782E+03  0.12500000000E+03 0.  0.
         25    1    1    2    0    0  0.12391787492E+03 -0.68288453534E+00 -0.47522111680E+02  0.18231691407E+03  0.12500000000E+03 0.  0.
</event>
<event>
 5    0  0.5590591E-005  0.2469068E+03  0.7546771E-02  0.1115275E+00
         21   -1    0    0  502  501  0.00000000000E+00  0.00000000000E+00  0.15606887208E+03  0.15606887208E+03  0.00000000000E+00 0.  1.
         21   -1    0    0  501  502 -0.00000000000E+00 -0.00000000000E+00 -0.39061574640E+03  0.39061574640E+03  0.00000000000E+00 0.  1.
         25    1    1    2    0    0 -0.54963602470E+02 -0.28533209595E+02 -0.97094384303E+01  0.13983710109E+03  0.12500000000E+03 0.  0.
         25    1    1    2    0    0  0.12302130496E+03  0.44603129378E+02 -0.18361072755E+03  0.25780143502E+03  0.12500000000E+03 0.  0.
         25    1    1    2    0    0 -0.68057702490E+02 -0.16069919784E+02 -0.41226708343E+02  0.14904608237E+03  0.12500000000E+03 0.  0.
</event>
<event>
 5    0  0.5590591E-005  0.2779907E+03  0.7546771E-02  0.1096791E+00
         21   -1    0    0  502  501  0.00000000000E+00  0.00000000000E+00  0.12672547222E+04  0.12672547222E+04  0.00000000000E+00 0.  1.
         21   -1    0    0  501  502 -0.00000000000E+00 -0.00000000000E+00 -0.60981303341E+02  0.60981303341E+02  0.00000000000E+00 0.  1.
         25    1    1    2    0    0  0.50070489826E+02 -0.11796338664E+03  0.40790437844E+03  0.44545863612E+03  0.12500000000E+03 0.  0.
         25    1    1    2    0    0 -0.13295684203E+03  0.12008586084E+03  0.37982819866E+03  0.43816959766E+03  0.12500000000E+03 0.  0.
         25    1    1    2    0    0  0.82886352209E+02 -0.21224741996E+01  0.41854084178E+03  0.44460779179E+03  0.12500000000E+03 0.  0.
</event>
<event>
 5    0  0.5590591E-005  0.2444484E+03  0.7546771E-02  0.1116864E+00
         21   -1    0    0  502  501  0.00000000000E+00  0.00000000000E+00  0.13232259177E+03  0.13232259177E+03  0.00000000000E+00 0. -1.
         21   -1    0    0  501  502 -0.00000000000E+00 -0.00000000000E+00 -0.45158596524E+03  0.45158596524E+03  0.00000000000E+00 0. -1.
         25    1    1    2    0    0  0.24440802698E+02  0.29573242628E+01 -0.22469271573E+03  0.25829811286E+03  0.12500000000E+03 0.  0.
         25    1    1    2    0    0 -0.81669211236E+02  0.34558906474E+02  0.23332979090E+01  0.15327955624E+03  0.12500000000E+03 0.  0.
         25    1    1    2    0    0  0.57228408537E+02 -0.37516230737E+02 -0.96903955644E+02  0.17233088792E+03  0.12500000000E+03 0.  0.
</event>
<event>
 5    0  0.5590591E-005  0.2691762E+03  0.7546771E-02  0.1101752E+00
         21   -1    0    0  502  501  0.00000000000E+00  0.00000000000E+00  0.19508467308E+03  0.19508467308E+03  0.00000000000E+00 0. -1.
         21   -1    0    0  501  502 -0.00000000000E+00 -0.00000000000E+00 -0.37140694554E+03  0.37140694554E+03  0.00000000000E+00 0. -1.
         25    1    1    2    0    0  0.26313233968E+02 -0.64664449160E+02 -0.24340403066E+02  0.14522855259E+03  0.12500000000E+03 0.  0.
         25    1    1    2    0    0 -0.39438625209E+02 -0.93155283579E+02 -0.14939545567E+03  0.21949331241E+03  0.12500000000E+03 0.  0.
         25    1    1    2    0    0  0.13125391241E+02  0.15781973274E+03 -0.25864137234E+01  0.20176975361E+03  0.12500000000E+03 0.  0.
</event>
<event>
 5    0  0.5590591E-005  0.2963089E+03  0.7546771E-02  0.1087100E+00
         21   -1    0    0  502  501  0.00000000000E+00  0.00000000000E+00  0.14357334695E+04  0.14357334695E+04  0.00000000000E+00 0.  1.
         21   -1    0    0  501  502 -0.00000000000E+00 -0.00000000000E+00 -0.61152672566E+02  0.61152672566E+02  0.00000000000E+00 0.  1.
         25    1    1    2    0    0  0.19296434128E+02 -0.20871076640E+02  0.32122338405E+03  0.34585750920E+03  0.12500000000E+03 0.  0.
         25    1    1    2    0    0 -0.37405950760E+02  0.46604109380E+02  0.10031869973E+04  0.10127093856E+04  0.12500000000E+03 0.  0.
         25    1    1    2    0    0  0.18109516632E+02 -0.25733032740E+02  0.50170415626E+02  0.13831924729E+03  0.12500000000E+03 0.  0.
</event>
<event>
 5    0  0.5590591E-005  0.2562031E+03  0.7546771E-02  0.1109446E+00
         21   -1    0    0  502  501  0.00000000000E+00  0.00000000000E+00  0.20188086462E+03  0.20188086462E+03  0.00000000000E+00 0. -1.
         21   -1    0    0  501  502 -0.00000000000E+00 -0.00000000000E+00 -0.32514241882E+03  0.32514241882E+03  0.00000000000E+00 0. -1.
         25    1    1    2    0    0 -0.58958149418E+02  0.20866586958E+02  0.10477617008E+03  0.17468406811E+03  0.12500000000E+03 0.  0.
         25    1    1    2    0    0  0.26462134619E+02 -0.25174576865E+02 -0.68866071390E+02  0.14731442454E+03  0.12500000000E+03 0.  0.
         25    1    1    2    0    0  0.32496014798E+02  0.43079899069E+01 -0.15917165290E+03  0.20502479080E+03  0.12500000000E+03 0.  0.
</event>
<event>
 5    0  0.5590591E-005  0.3001550E+03  0.7546771E-02  0.1085163E+00
         21   -1    0    0  502  501  0.00000000000E+00  0.00000000000E+00  0.35358390188E+04  0.35358390188E+04  0.00000000000E+00 0.  1.
         21   -1    0    0  501  502 -0.00000000000E+00 -0.00000000000E+00 -0.25479957067E+02  0.25479957067E+02  0.00000000000E+00 0.  1.
         25    1    1    2    0    0  0.68375310712E+02 -0.63926367994E+02  0.57146897236E+03  0.59242176700E+03  0.12500000000E+03 0.  0.
         25    1    1    2    0    0  0.10157538037E+03  0.85404718411E+02  0.18908341596E+04  0.18996026803E+04  0.12500000000E+03 0.  0.
         25    1    1    2    0    0 -0.16995069109E+03 -0.21478350417E+02  0.10480559297E+04  0.10692945285E+04  0.12500000000E+03 0.  0.
</event>
<event>
 5    0  0.5590591E-005  0.3755654E+03  0.7546771E-02  0.1052585E+00
         21   -1    0    0  502  501  0.00000000000E+00  0.00000000000E+00  0.29540895543E+04  0.29540895543E+04  0.00000000000E+00 0.  1.
         21   -1    0    0  501  502 -0.00000000000E+00 -0.00000000000E+00 -0.47747151766E+02  0.47747151766E+02  0.00000000000E+00 0.  1.
         25    1    1    2    0    0 -0.17190220581E+03 -0.72714159084E+02  0.19901642977E+04  0.20028021992E+04  0.12500000000E+03 0.  0.
         25    1    1    2    0    0 -0.45924279953E+02 -0.65313789123E+01  0.35247842861E+03  0.37685241280E+03  0.12500000000E+03 0.  0.
         25    1    1    2    0    0  0.21782648576E+03  0.79245537997E+02  0.56369967620E+03  0.62218209403E+03  0.12500000000E+03 0.  0.
</event>
<event>
 5    0  0.5590591E-005  0.2071087E+03  0.7546771E-02  0.1143876E+00
         21   -1    0    0  502  501  0.00000000000E+00  0.00000000000E+00  0.69791640443E+02  0.69791640443E+02  0.00000000000E+00 0. -1.
         21   -1    0    0  501  502 -0.00000000000E+00 -0.00000000000E+00 -0.61460089128E+03  0.61460089128E+03  0.00000000000E+00 0. -1.
         25    1    1    2    0    0 -0.97776413904E+01  0.63934556348E+01 -0.23883578237E+03  0.26982218124E+03  0.12500000000E+03 0.  0.
         25    1    1    2    0    0 -0.42986191051E+02  0.10382909664E+02 -0.94761386104E+02  0.16297342645E+03  0.12500000000E+03 0.  0.
         25    1    1    2    0    0  0.52763832442E+02 -0.16776365299E+02 -0.21121208236E+03  0.25159692403E+03  0.12500000000E+03 0.  0.
</event>
<event>
 5    0  0.5590591E-005  0.5039644E+03  0.7546771E-02  0.1012749E+00
         21   -1    0    0  502  501  0.00000000000E+00  0.00000000000E+00  0.16006039099E+04  0.16006039099E+04  0.00000000000E+00 0.  1.
         21   -1    0    0  501  502 -0.00000000000E+00 -0.00000000000E+00 -0.15867769082E+03  0.15867769082E+03  0.00000000000E+00 0.  1.
         25    1    1    2    0    0 -0.13559716047E+03  0.32586459502E+02  0.12443510084E+04  0.12583651693E+04  0.12500000000E+03 0.  0.
         25    1    1    2    0    0  0.81400008490E+02  0.15675794779E+03  0.14877674005E+03  0.26259956961E+03  0.12500000000E+03 0.  0.
         25    1    1    2    0    0  0.54197151981E+02 -0.18934440729E+03  0.48798470592E+02  0.23831686174E+03  0.12500000000E+03 0.  0.
</event>
<event>
 5    0  0.5590591E-005  0.2569339E+03  0.7546771E-02  0.1109000E+00
         21   -1    0    0  502  501  0.00000000000E+00  0.00000000000E+00  0.15113274304E+03  0.15113274304E+03  0.00000000000E+00 0. -1.
         21   -1    0    0  501  502 -0.00000000000E+00 -0.00000000000E+00 -0.43680159844E+03  0.43680159844E+03  0.00000000000E+00 0. -1.
         25    1    1    2    0    0 -0.75419888542E+02  0.10310498075E+03 -0.92549042277E+02  0.20126878016E+03  0.12500000000E+03 0.  0.
         25    1    1    2    0    0 -0.16372868273E+01 -0.11777743162E+03 -0.16146817733E+03  0.23573539488E+03  0.12500000000E+03 0.  0.
         25    1    1    2    0    0  0.77057175369E+02  0.14672450875E+02 -0.31651635793E+02  0.15093016643E+03  0.12500000000E+03 0.  0.
</event>
<event>
 5    0  0.5590591E-005  0.2513797E+03  0.7546771E-02  0.1112436E+00
         21   -1    0    0  502  501  0.00000000000E+00  0.00000000000E+00  0.11929867438E+03  0.11929867438E+03  0.00000000000E+00 0. -1.
         21   -1    0    0  501  502 -0.00000000000E+00 -0.00000000000E+00 -0.52969383377E+03  0.52969383377E+03  0.00000000000E+00 0. -1.
         25    1    1    2    0    0 -0.47806446372E+02  0.37755373767E+00 -0.18531545663E+03  0.22858787660E+03  0.12500000000E+03 0.  0.
         25    1    1    2    0    0 -0.72719545935E+02 -0.66964203056E+02 -0.55580980913E+02  0.16877968566E+03  0.12500000000E+03 0.  0.
         25    1    1    2    0    0  0.12052599231E+03  0.66586649319E+02 -0.16949872185E+03  0.25162494590E+03  0.12500000000E+03 0.  0.
</event>
<event>
 5    0  0.5590591E-005  0.3333324E+03  0.7546771E-02  0.1069672E+00
         21   -1    0    0  502  501  0.00000000000E+00  0.00000000000E+00  0.21268779343E+03  0.21268779343E+03  0.00000000000E+00 0.  1.
         21   -1    0    0  501  502 -0.00000000000E+00 -0.00000000000E+00 -0.52241118712E+03  0.52241118712E+03  0.00000000000E+00 0.  1.
         25    1    1    2    0    0  0.59004316162E+02 -0.22210500379E+03 -0.89691440487E+02  0.27655324357E+03  0.12500000000E+03 0.  0.
         25    1    1    2    0    0 -0.55623473005E+02  0.12177665691E+03  0.38244687932E+01  0.18320248765E+03  0.12500000000E+03 0.  0.
         25    1    1    2    0    0 -0.33808431568E+01  0.10032834687E+03 -0.22385642199E+03  0.27534324933E+03  0.12500000000E+03 0.  0.
</event>
<event>
 5    0  0.5590591E-005  0.2885810E+03  0.7546771E-02  0.1091092E+00
         21   -1    0    0  502  501  0.00000000000E+00  0.00000000000E+00  0.83573117239E+03  0.83573117239E+03  0.00000000000E+00 0.  1.
         21   -1    0    0  501  502 -0.00000000000E+00 -0.00000000000E+00 -0.99648055361E+02  0.99648055361E+02  0.00000000000E+00 0.  1.
         25    1    1    2    0    0 -0.10210899490E+03  0.11836424760E+03  0.48703425985E+03  0.52655836544E+03  0.12500000000E+03 0.  0.
         25    1    1    2    0    0  0.30310808713E+02 -0.11682915764E+03  0.95789962028E+02  0.19841500454E+03  0.12500000000E+03 0.  0.
         25    1    1    2    0    0  0.71798186185E+02 -0.15350899615E+01  0.15325889515E+03  0.21040585777E+03  0.12500000000E+03 0.  0.
</event>
<event>
 5    0  0.5590591E-005  0.3695487E+03  0.7546771E-02  0.1054866E+00
         21   -1    0    0  502  501  0.00000000000E+00  0.00000000000E+00  0.10129746977E+04  0.10129746977E+04  0.00000000000E+00 0. -1.
         21   -1    0    0  501  502 -0.00000000000E+00 -0.00000000000E+00 -0.13481703302E+03  0.13481703302E+03  0.00000000000E+00 0. -1.
         25    1    1    2    0    0  0.11259031871E+03  0.15399533763E+03  0.20782202576E+03  0.30855491938E+03  0.12500000000E+03 0.  0.
         25    1    1    2    0    0 -0.13491164913E+02 -0.26025295728E+03  0.52274864784E+03  0.59733136710E+03  0.12500000000E+03 0.  0.
         25    1    1    2    0    0 -0.99099153796E+02  0.10625761965E+03  0.14758699107E+03  0.24190544423E+03  0.12500000000E+03 0.  0.
</event>
<event>
 5    0  0.5590591E-005  0.2390191E+03  0.7546771E-02  0.1120448E+00
         21   -1    0    0  502  501  0.00000000000E+00  0.00000000000E+00  0.30393292307E+03  0.30393292307E+03  0.00000000000E+00 0. -1.
         21   -1    0    0  501  502 -0.00000000000E+00 -0.00000000000E+00 -0.18796951842E+03  0.18796951842E+03  0.00000000000E+00 0. -1.
         25    1    1    2    0    0 -0.41586468708E+00 -0.38417913679E+02  0.60278412027E+02  0.14399512489E+03  0.12500000000E+03 0.  0.
         25    1    1    2    0    0 -0.65500532013E+02  0.86048388423E+02  0.98937722874E+02  0.19263519370E+03  0.12500000000E+03 0.  0.
         25    1    1    2    0    0  0.65916396700E+02 -0.47630474744E+02 -0.43252730249E+02  0.15527212291E+03  0.12500000000E+03 0.  0.
</event>
<event>
 5    0  0.5590591E-005  0.3019155E+03  0.7546771E-02  0.1084287E+00
         21   -1    0    0  502  501  0.00000000000E+00  0.00000000000E+00  0.10730643648E+03  0.10730643648E+03  0.00000000000E+00 0.  1.
         21   -1    0    0  501  502 -0.00000000000E+00 -0.00000000000E+00 -0.84946440438E+03  0.84946440438E+03  0.00000000000E+00 0.  1.
         25    1    1    2    0    0  0.18545912437E+02 -0.68325272837E+02 -0.61199463242E+03  0.62862924199E+03  0.12500000000E+03 0.  0.
         25    1    1    2    0    0 -0.22326506756E+02  0.10938928168E+03 -0.54081641187E+02  0.17610880661E+03  0.12500000000E+03 0.  0.
         25    1    1    2    0    0  0.37805943191E+01 -0.41064008847E+02 -0.76081694296E+02  0.15203279226E+03  0.12500000000E+03 0.  0.
</event>
<event>
 5    0  0.5590591E-005  0.2986727E+03  0.7546771E-02  0.1085906E+00
         21   -1    0    0  502  501  0.00000000000E+00  0.00000000000E+00  0.10455638169E+04  0.10455638169E+04  0.00000000000E+00 0.  1.
         21   -1    0    0  501  502 -0.00000000000E+00 -0.00000000000E+00 -0.85317977519E+02  0.85317977519E+02  0.00000000000E+00 0.  1.
         25    1    1    2    0    0  0.24549734069E+02 -0.79231353726E+02  0.54993698149E+03  0.57003156094E+03  0.12500000000E+03 0.  0.
         25    1    1    2    0    0  0.20551481657E+02 -0.39992750814E+02  0.34677879776E+03  0.37135201372E+03  0.12500000000E+03 0.  0.
         25    1    1    2    0    0 -0.45101215726E+02  0.11922410454E+03  0.63530060170E+02  0.18949821980E+03  0.12500000000E+03 0.  0.
</event>
<event>
 5    0  0.5590591E-005  0.4556877E+03  0.7546771E-02  0.1026039E+00
         21   -1    0    0  502  501  0.00000000000E+00  0.00000000000E+00  0.23393752122E+03  0.23393752122E+03  0.00000000000E+00 0. -1.
         21   -1    0    0  501  502 -0.00000000000E+00 -0.00000000000E+00 -0.88763549470E+03  0.88763549470E+03  0.00000000000E+00 0. -1.
         25    1    1    2    0    0 -0.16043217692E+03 -0.12613522938E+03 -0.37702753700E+03  0.44656840813E+03  0.12500000000E+03 0.  0.
         25    1    1    2    0    0 -0.72309271426E+02  0.26734714035E+03 -0.20636697914E+03  0.36730839123E+03  0.12500000000E+03 0.  0.
         25    1    1    2    0    0  0.23274144834E+03 -0.14121191096E+03 -0.70303457338E+02  0.30769621656E+03  0.12500000000E+03 0.  0.
</event>
<event>
 5    0  0.6115559E-005  0.3297848E+03  0.7546771E-02  0.1071232E+00
         21   -1    0    0  502  501  0.00000000000E+00  0.00000000000E+00  0.11813495904E+03  0.11813495904E+03  0.00000000000E+00 0.  1.
         21   -1    0    0  501  502 -0.00000000000E+00 -0.00000000000E+00 -0.92062520989E+03  0.92062520989E+03  0.00000000000E+00 0.  1.
         25    1    1    2    0    0  0.22106368575E+02 -0.10597005029E+03 -0.62495569282E+02  0.17677397792E+03  0.12500000000E+03 0.  0.
         25    1    1    2    0    0 -0.23587435759E+02  0.10279032066E+03 -0.65789747097E+02  0.17628246643E+03  0.12500000000E+03 0.  0.
         25    1    1    2    0    0  0.14810671838E+01  0.31797296353E+01 -0.67420493447E+03  0.68570372458E+03  0.12500000000E+03 0.  0.
</event>
<event>
 5    0  0.5590591E-005  0.2797284E+03  0.7546771E-02  0.1095837E+00
         21   -1    0    0  502  501  0.00000000000E+00  0.00000000000E+00  0.52757882583E+03  0.52757882583E+03  0.00000000000E+00 0. -1.
         21   -1    0    0  501  502 -0.00000000000E+00 -0.00000000000E+00 -0.14831520566E+03  0.14831520566E+03  0.00000000000E+00 0. -1.
         25    1    1    2    0    0 -0.89712916770E+02 -0.26702262227E+01  0.34871594102E+01  0.15392432499E+03  0.12500000000E+03 0.  0.
         25    1    1    2    0    0  0.56878310393E+02  0.12310474030E+03  0.21302700121E+03  0.28177193352E+03  0.12500000000E+03 0.  0.
         25    1    1    2    0    0  0.32834606377E+02 -0.12043451408E+03  0.16274945956E+03  0.24019777298E+03  0.12500000000E+03 0.  0.
</event>
<event>
 5    0  0.5590591E-005  0.3594439E+03  0.7546771E-02  0.1058804E+00
         21   -1    0    0  502  501  0.00000000000E+00  0.00000000000E+00  0.17073911196E+03  0.17073911196E+03  0.00000000000E+00 0.  1.
         21   -1    0    0  501  502 -0.00000000000E+00 -0.00000000000E+00 -0.75670942384E+03  0.75670942384E+03  0.00000000000E+00 0.  1.
         25    1    1    2    0    0 -0.10886509907E+03  0.27039474129E+03 -0.28166341265E+03  0.42417473279E+03  0.12500000000E+03 0.  0.
         25    1    1    2    0    0  0.12357697346E+02 -0.69766918103E+02 -0.86820671979E+02  0.16787782649E+03  0.12500000000E+03 0.  0.
         25    1    1    2    0    0  0.96507401719E+02 -0.20062782319E+03 -0.21748622724E+03  0.33539597652E+03  0.12500000000E+03 0.  0.
</event>
<event>
 5    0  0.6474195E-005  0.2866073E+03  0.7546771E-02  0.1092134E+00
         21   -1    0    0  502  501  0.00000000000E+00  0.00000000000E+00  0.22711940503E+03  0.22711940503E+03  0.00000000000E+00 0. -1.
         21   -1    0    0  501  502 -0.00000000000E+00 -0.00000000000E+00 -0.36167655942E+03  0.36167655942E+03  0.00000000000E+00 0. -1.
         25    1    1    2    0    0 -0.12539581113E+03 -0.12991557749E+03  0.52072079813E+02  0.22569596411E+03  0.12500000000E+03 0.  0.
         25    1    1    2    0    0  0.44346550340E+02  0.72900800115E+02 -0.10217460934E+03  0.18260830753E+03  0.12500000000E+03 0.  0.
         25    1    1    2    0    0  0.81049260786E+02  0.57014777371E+02 -0.84454624868E+02  0.18049169281E+03  0.12500000000E+03 0.  0.
</event>
<event>
 5    0  0.5590591E-005  0.3233736E+03  0.7546771E-02  0.1074107E+00
         21   -1    0    0  502  501  0.00000000000E+00  0.00000000000E+00  0.49676756210E+03  0.49676756210E+03  0.00000000000E+00 0. -1.
         21   -1    0    0  501  502 -0.00000000000E+00 -0.00000000000E+00 -0.21050185716E+03  0.21050185716E+03  0.00000000000E+00 0. -1.
         25    1    1    2    0    0  0.62901336956E+02 -0.10723350433E+03  0.15109973430E+03  0.23218900135E+03  0.12500000000E+03 0.  0.
         25    1    1    2    0    0 -0.11164533239E+03  0.10829326979E+03  0.23467038259E+03  0.30803782396E+03  0.12500000000E+03 0.  0.
         25    1    1    2    0    0  0.48743995434E+02 -0.10597654592E+01 -0.99504411959E+02  0.16704259395E+03  0.12500000000E+03 0.  0.
</event>
<event>
 5    0  0.5590591E-005  0.4000747E+03  0.7546771E-02  0.1043754E+00
         21   -1    0    0  502  501  0.00000000000E+00  0.00000000000E+00  0.51574805894E+03  0.51574805894E+03  0.00000000000E+00 0. -1.
         21   -1    0    0  501  502 -0.00000000000E+00 -0.00000000000E+00 -0.31034492320E+03  0.31034492320E+03  0.00000000000E+00 0. -1.
         25    1    1    2    0    0  0.19194672034E+03  0.78927968132E+02  0.13049868544E+03  0.27518734437E+03  0.12500000000E+03 0.  0.
         25    1    1    2    0    0  0.21133986980E+02 -0.19134535542E+03 -0.74205807294E+02  0.24122850636E+03  0.12500000000E+03 0.  0.
         25    1    1    2    0    0 -0.21308070732E+03  0.11241738728E+03  0.14911025760E+03  0.30967713141E+03  0.12500000000E+03 0.  0.
</event>
<event>
 5    0  0.5590591E-005  0.2998817E+03  0.7546771E-02  0.1085300E+00
         21   -1    0    0  502  501  0.00000000000E+00  0.00000000000E+00  0.81800109080E+02  0.81800109080E+02  0.00000000000E+00 0.  1.
         21   -1    0    0  501  502 -0.00000000000E+00 -0.00000000000E+00 -0.10993754658E+04  0.10993754658E+04  0.00000000000E+00 0.  1.
         25    1    1    2    0    0 -0.28896138340E+02 -0.63605381500E+02 -0.78412992343E+02  0.16326122851E+03  0.12500000000E+03 0.  0.
         25    1    1    2    0    0 -0.67900069986E+02 -0.92256465832E+02 -0.37048964660E+03  0.40744233117E+03  0.12500000000E+03 0.  0.
         25    1    1    2    0    0  0.96796208326E+02  0.15586184733E+03 -0.56867271780E+03  0.61047201522E+03  0.12500000000E+03 0.  0.
</event>
<event>
 5    0  0.5590591E-005  0.3356039E+03  0.7546771E-02  0.1068684E+00
         21   -1    0    0  502  501  0.00000000000E+00  0.00000000000E+00  0.45503135089E+02  0.45503135089E+02  0.00000000000E+00 0.  1.
         21   -1    0    0  501  502 -0.00000000000E+00 -0.00000000000E+00 -0.24752136023E+04  0.24752136023E+04  0.00000000000E+00 0.  1.
         25    1    1    2    0    0  0.23440027180E+01 -0.72687243668E+02 -0.12196729367E+04  0.12282165942E+04  0.12500000000E+03 0.  0.
         25    1    1    2    0    0  0.14660077781E+03 -0.15016119849E+02 -0.29304061743E+03  0.35102004982E+03  0.12500000000E+03 0.  0.
         25    1    1    2    0    0 -0.14894478053E+03  0.87703363518E+02 -0.91699691309E+03  0.94148009339E+03  0.12500000000E+03 0.  0.
</event>
<event>
 5    0  0.5590591E-005  0.3502928E+03  0.7546771E-02  0.1062495E+00
         21   -1    0    0  502  501  0.00000000000E+00  0.00000000000E+00  0.78321085764E+03  0.78321085764E+03  0.00000000000E+00 0.  1.
         21   -1    0    0  501  502 -0.00000000000E+00 -0.00000000000E+00 -0.15666922185E+03  0.15666922185E+03  0.00000000000E+00 0.  1.
         25    1    1    2    0    0 -0.23489432752E+03  0.34731072075E+02  0.38851076230E+03  0.47217285489E+03  0.12500000000E+03 0.  0.
         25    1    1    2    0    0  0.22669633809E+03 -0.74796495290E+02  0.17933110586E+03  0.32368254655E+03  0.12500000000E+03 0.  0.
         25    1    1    2    0    0  0.81979894307E+01  0.40065423214E+02  0.58699767633E+02  0.14402467805E+03  0.12500000000E+03 0.  0.
</event>
<event>
 5    0  0.5590591E-005  0.2669363E+03  0.7546771E-02  0.1103046E+00
         21   -1    0    0  502  501  0.00000000000E+00  0.00000000000E+00  0.55431722899E+03  0.55431722899E+03  0.00000000000E+00 0.  1.
         21   -1    0    0  501  502 -0.00000000000E+00 -0.00000000000E+00 -0.12854551766E+03  0.12854551766E+03  0.00000000000E+00 0.  1.
         25    1    1    2    0    0  0.24854747568E+02 -0.40575421263E+02  0.27195952703E+03  0.30306947657E+03  0.12500000000E+03 0.  0.
         25    1    1    2    0    0  0.26907103009E+02 -0.81005135692E+02  0.12357528922E+03  0.19540132115E+03  0.12500000000E+03 0.  0.
         25    1    1    2    0    0 -0.51761850578E+02  0.12158055696E+03  0.30236895080E+02  0.18439194893E+03  0.12500000000E+03 0.  0.
</event>
<event>
 5    0  0.5590591E-005  0.3475581E+03  0.7546771E-02  0.1063622E+00
         21   -1    0    0  502  501  0.00000000000E+00  0.00000000000E+00  0.66917785639E+02  0.66917785639E+02  0.00000000000E+00 0.  1.
         21   -1    0    0  501  502 -0.00000000000E+00 -0.00000000000E+00 -0.18051499209E+04  0.18051499209E+04  0.00000000000E+00 0.  1.
         25    1    1    2    0    0 -0.10734769246E+03 -0.42436290369E+02 -0.79908109792E+03  0.81699447175E+03  0.12500000000E+03 0.  0.
         25    1    1    2    0    0 -0.92430088441E+02  0.10013440402E+03 -0.17986779272E+03  0.25796829839E+03  0.12500000000E+03 0.  0.
         25    1    1    2    0    0  0.19977778090E+03 -0.57698113655E+02 -0.75928324460E+03  0.79710493637E+03  0.12500000000E+03 0.  0.
</event>
<event>
 5    0  0.5590591E-005  0.4433291E+03  0.7546771E-02  0.1029730E+00
         21   -1    0    0  502  501  0.00000000000E+00  0.00000000000E+00  0.93570995445E+03  0.93570995445E+03  0.00000000000E+00 0.  1.
         21   -1    0    0  501  502 -0.00000000000E+00 -0.00000000000E+00 -0.21004448460E+03  0.21004448460E+03  0.00000000000E+00 0.  1.
         25    1    1    2    0    0 -0.30648887618E+03  0.60839018619E+02  0.46735542603E+03  0.57591918847E+03  0.12500000000E+03 0.  0.
         25    1    1    2    0    0 -0.33113895643E+02  0.33924418969E+02  0.74318583324E+02  0.15295636016E+03  0.12500000000E+03 0.  0.
         25    1    1    2    0    0  0.33960277183E+03 -0.94763437588E+02  0.18399146049E+03  0.41687889041E+03  0.12500000000E+03 0.  0.
</event>
<event>
 5    0  0.5590591E-005  0.3302583E+03  0.7546771E-02  0.1071023E+00
         21   -1    0    0  502  501  0.00000000000E+00  0.00000000000E+00  0.30457910132E+03  0.30457910132E+03  0.00000000000E+00 0. -1.
         21   -1    0    0  501  502 -0.00000000000E+00 -0.00000000000E+00 -0.35810249061E+03  0.35810249061E+03  0.00000000000E+00 0. -1.
         25    1    1    2    0    0  0.92478408160E+02 -0.10809816839E+03 -0.26035323465E+02  0.19115519363E+03  0.12500000000E+03 0.  0.
         25    1    1    2    0    0 -0.22912495336E+02 -0.61433378135E+02 -0.15982092526E+03  0.21322938480E+03  0.12500000000E+03 0.  0.
         25    1    1    2    0    0 -0.69565912824E+02  0.16953154653E+03  0.13233285944E+03  0.25829701350E+03  0.12500000000E+03 0.  0.
</event>
<event>
 5    0  0.5590591E-005  0.2304913E+03  0.7546771E-02  0.1126294E+00
         21   -1    0    0  502  501  0.00000000000E+00  0.00000000000E+00  0.29753106307E+03  0.29753106307E+03  0.00000000000E+00 0.  1.
         21   -1    0    0  501  502 -0.00000000000E+00 -0.00000000000E+00 -0.17855687782E+03  0.17855687782E+03  0.00000000000E+00 0.  1.
         25    1    1    2    0    0  0.50972984516E+02  0.25917233236E+02  0.52886666161E+02  0.14728186442E+03  0.12500000000E+03 0.  0.
         25    1    1    2    0    0 -0.10588295582E+03 -0.53915396111E+02  0.77285157548E+02  0.18898694624E+03  0.12500000000E+03 0.  0.
         25    1    1    2    0    0  0.54909971305E+02  0.27998162875E+02 -0.11197638460E+02  0.13981913024E+03  0.12500000000E+03 0.  0.
</event>
<event>
 5    0  0.5590591E-005  0.2671838E+03  0.7546771E-02  0.1102902E+00
         21   -1    0    0  502  501  0.00000000000E+00  0.00000000000E+00  0.68993458135E+03  0.68993458135E+03  0.00000000000E+00 0. -1.
         21   -1    0    0  501  502 -0.00000000000E+00 -0.00000000000E+00 -0.10346952441E+03  0.10346952441E+03  0.00000000000E+00 0. -1.
         25    1    1    2    0    0  0.33229554220E+02  0.23610846333E+02  0.15466207491E+02  0.13238534251E+03  0.12500000000E+03 0.  0.
         25    1    1    2    0    0 -0.93191813854E+02  0.60444258327E+02  0.33877627971E+03  0.37779966944E+03  0.12500000000E+03 0.  0.
         25    1    1    2    0    0  0.59962259634E+02 -0.84055104660E+02  0.23222256974E+03  0.28321909381E+03  0.12500000000E+03 0.  0.
</event>
<event>
 5    0  0.5590591E-005  0.3684678E+03  0.7546771E-02  0.1055280E+00
         21   -1    0    0  502  501  0.00000000000E+00  0.00000000000E+00  0.24711416962E+03  0.24711416962E+03  0.00000000000E+00 0. -1.
         21   -1    0    0  501  502 -0.00000000000E+00 -0.00000000000E+00 -0.54941626041E+03  0.54941626041E+03  0.00000000000E+00 0. -1.
         25    1    1    2    0    0  0.69394260219E+02 -0.25419214348E+02 -0.82134901467E+02  0.16683177709E+03  0.12500000000E+03 0.  0.
         25    1    1    2    0    0 -0.33300987650E+02 -0.15722357721E+03 -0.32393671516E+03  0.38260711499E+03  0.12500000000E+03 0.  0.
         25    1    1    2    0    0 -0.36093272569E+02  0.18264279156E+03  0.10376952583E+03  0.24709153795E+03  0.12500000000E+03 0.  0.
</event>
<event>
 5    0  0.5590591E-005  0.3252565E+03  0.7546771E-02  0.1073255E+00
         21   -1    0    0  502  501  0.00000000000E+00  0.00000000000E+00  0.37775116565E+03  0.37775116565E+03  0.00000000000E+00 0. -1.
         21   -1    0    0  501  502 -0.00000000000E+00 -0.00000000000E+00 -0.28005689463E+03  0.28005689463E+03  0.00000000000E+00 0. -1.
         25    1    1    2    0    0  0.89209864799E+02 -0.10140179244E+03 -0.17743914997E+02  0.18487987994E+03  0.12500000000E+03 0.  0.
         25    1    1    2    0    0  0.11549298797E+03  0.13166297225E+03  0.74690859245E+02  0.22776631223E+03  0.12500000000E+03 0.  0.
         25    1    1    2    0    0 -0.20470285277E+03 -0.30261179811E+02  0.40747326767E+02  0.24516186811E+03  0.12500000000E+03 0.  0.
</event>
<event>
 5    0  0.5590591E-005  0.5824504E+03  0.7546771E-02  0.9942500E-01
         21   -1    0    0  502  501  0.00000000000E+00  0.00000000000E+00  0.11140999202E+03  0.11140999202E+03  0.00000000000E+00 0. -1.
         21   -1    0    0  501  502 -0.00000000000E+00 -0.00000000000E+00 -0.30450450264E+04  0.30450450264E+04  0.00000000000E+00 0. -1.
         25    1    1    2    0    0  0.12263355726E+03 -0.12326615012E+03 -0.14997636325E+04  0.15149750779E+04  0.12500000000E+03 0.  0.
         25    1    1    2    0    0 -0.30728427311E+03  0.26181058689E+03 -0.12538871600E+04  0.13231879753E+04  0.12500000000E+03 0.  0.
         25    1    1    2    0    0  0.18465071585E+03 -0.13854443678E+03 -0.17998424183E+03  0.31829196523E+03  0.12500000000E+03 0.  0.
</event>
<event>
 5    0  0.5590591E-005  0.3387066E+03  0.7546771E-02  0.1067348E+00
         21   -1    0    0  502  501  0.00000000000E+00  0.00000000000E+00  0.11180066721E+03  0.11180066721E+03  0.00000000000E+00 0. -1.
         21   -1    0    0  501  502 -0.00000000000E+00 -0.00000000000E+00 -0.10261313536E+04  0.10261313536E+04  0.00000000000E+00 0. -1.
         25    1    1    2    0    0 -0.47457933458E+02 -0.18301524094E+03 -0.42873358025E+03  0.48495805664E+03  0.12500000000E+03 0.  0.
         25    1    1    2    0    0  0.85951462144E+02  0.93853853234E+02 -0.43811636678E+02  0.18368630629E+03  0.12500000000E+03 0.  0.
         25    1    1    2    0    0 -0.38493528686E+02  0.89161387703E+02 -0.44178546944E+03  0.46928765786E+03  0.12500000000E+03 0.  0.
</event>
<event>
 5    0  0.5590591E-005  0.2740116E+03  0.7546771E-02  0.1099005E+00
         21   -1    0    0  502  501  0.00000000000E+00  0.00000000000E+00  0.40914893068E+03  0.40914893068E+03  0.00000000000E+00 0. -1.
         21   -1    0    0  501  502 -0.00000000000E+00 -0.00000000000E+00 -0.18350856180E+03  0.18350856180E+03  0.00000000000E+00 0. -1.
         25    1    1    2    0    0 -0.82647356436E+02  0.11269092380E+03  0.61847486365E+02  0.19743338472E+03  0.12500000000E+03 0.  0.
         25    1    1    2    0    0  0.28331775257E+02 -0.84393448411E+01  0.18189974585E+03  0.22268010591E+03  0.12500000000E+03 0.  0.
         25    1    1    2    0    0  0.54315581180E+02 -0.10425157895E+03 -0.18106863335E+02  0.17254400185E+03  0.12500000000E+03 0.  0.
</event>
<event>
 5    0  0.5590591E-005  0.2667496E+03  0.7546771E-02  0.1103154E+00
         21   -1    0    0  502  501  0.00000000000E+00  0.00000000000E+00  0.21660835945E+03  0.21660835945E+03  0.00000000000E+00 0.  1.
         21   -1    0    0  501  502 -0.00000000000E+00 -0.00000000000E+00 -0.32849764784E+03  0.32849764784E+03  0.00000000000E+00 0.  1.
         25    1    1    2    0    0 -0.44540253872E+02 -0.69465676698E+02  0.52110560301E+02  0.15858696336E+03  0.12500000000E+03 0.  0.
         25    1    1    2    0    0  0.43099720617E+02 -0.59287984335E+02 -0.14674956382E+03  0.20623550976E+03  0.12500000000E+03 0.  0.
         25    1    1    2    0    0  0.14405332550E+01  0.12875366103E+03 -0.17250284866E+02  0.18028353417E+03  0.12500000000E+03 0.  0.
</event>
<event>
 5    0  0.5590591E-005  0.5238151E+03  0.7546771E-02  0.1007743E+00
         21   -1    0    0  502  501  0.00000000000E+00  0.00000000000E+00  0.15695694004E+03  0.15695694004E+03  0.00000000000E+00 0. -1.
         21   -1    0    0  501  502 -0.00000000000E+00 -0.00000000000E+00 -0.17481369786E+04  0.17481369786E+04  0.00000000000E+00 0. -1.
         25    1    1    2    0    0  0.28354275496E+03  0.22830739248E+03 -0.71458623466E+03  0.81165217065E+03  0.12500000000E+03 0.  0.
         25    1    1    2    0    0 -0.25118953087E+02 -0.29161975326E+03 -0.26229326445E+03  0.41242671940E+03  0.12500000000E+03 0.  0.
         25    1    1    2    0    0 -0.25842380187E+03  0.63312360778E+02 -0.61430053946E+03  0.68101502860E+03  0.12500000000E+03 0.  0.
</event>
<event>
 5    0  0.5590591E-005  0.5337184E+03  0.7546771E-02  0.1005334E+00
         21   -1    0    0  502  501  0.00000000000E+00  0.00000000000E+00  0.28389562921E+03  0.28389562921E+03  0.00000000000E+00 0. -1.
         21   -1    0    0  501  502 -0.00000000000E+00 -0.00000000000E+00 -0.10033804567E+04  0.10033804567E+04  0.00000000000E+00 0. -1.
         25    1    1    2    0    0 -0.28044183850E+02 -0.18396499510E+03 -0.42381232155E+02  0.22814636642E+03  0.12500000000E+03 0.  0.
         25    1    1    2    0    0 -0.14746922061E+03  0.43808456422E+03 -0.35891648499E+03  0.59842401325E+03  0.12500000000E+03 0.  0.
         25    1    1    2    0    0  0.17551340446E+03 -0.25411956912E+03 -0.31818711032E+03  0.46070570620E+03  0.12500000000E+03 0.  0.
</event>
<event>
 5    0  0.5590591E-005  0.2988015E+03  0.7546771E-02  0.1085841E+00
         21   -1    0    0  502  501  0.00000000000E+00  0.00000000000E+00  0.19819410147E+03  0.19819410147E+03  0.00000000000E+00 0.  1.
         21   -1    0    0  501  502 -0.00000000000E+00 -0.00000000000E+00 -0.45047936153E+03  0.45047936153E+03  0.00000000000E+00 0.  1.
         25    1    1    2    0    0  0.87070006171E+01  0.76978701100E+02 -0.19015218365E+03  0.24038382897E+03  0.12500000000E+03 0.  0.
         25    1    1    2    0    0  0.30431533282E+02  0.95526463347E+02 -0.99319142990E+02  0.18852234770E+03  0.12500000000E+03 0.  0.
         25    1    1    2    0    0 -0.39138533899E+02 -0.17250516445E+03  0.37186066572E+02  0.21976728634E+03  0.12500000000E+03 0.  0.
</event>
<event>
 5    0  0.5590591E-005  0.3544410E+03  0.7546771E-02  0.1060807E+00
         21   -1    0    0  502  501  0.00000000000E+00  0.00000000000E+00  0.10762298253E+04  0.10762298253E+04  0.00000000000E+00 0. -1.
         21   -1    0    0  501  502 -0.00000000000E+00 -0.00000000000E+00 -0.11673013523E+03  0.11673013523E+03  0.00000000000E+00 0. -1.
         25    1    1    2    0    0  0.10413684545E+03 -0.19667297153E+02  0.12762689902E+03  0.20771352991E+03  0.12500000000E+03 0.  0.
         25    1    1    2    0    0 -0.39270552045E+02  0.20058236998E+03  0.64953767545E+03  0.69231470823E+03  0.12500000000E+03 0.  0.
         25    1    1    2    0    0 -0.64866293402E+02 -0.18091507282E+03  0.18233511557E+03  0.29293172236E+03  0.12500000000E+03 0.  0.
</event>
<event>
 5    0  0.5590591E-005  0.3971722E+03  0.7546771E-02  0.1044763E+00
         21   -1    0    0  502  501  0.00000000000E+00  0.00000000000E+00  0.26365815543E+03  0.26365815543E+03  0.00000000000E+00 0.  1.
         21   -1    0    0  501  502 -0.00000000000E+00 -0.00000000000E+00 -0.59829642300E+03  0.59829642300E+03  0.00000000000E+00 0.  1.
         25    1    1    2    0    0 -0.58333941212E+02  0.31205150230E+02 -0.33207249986E+03  0.36093455814E+03  0.12500000000E+03 0.  0.
         25    1    1    2    0    0  0.13853828767E+03 -0.13763897403E+03  0.13858988391E+03  0.27012867349E+03  0.12500000000E+03 0.  0.
         25    1    1    2    0    0 -0.80204346459E+02  0.10643382380E+03 -0.14115565161E+03  0.23089134679E+03  0.12500000000E+03 0.  0.
</event>
<event>
 5    0  0.5590591E-005  0.2428714E+03  0.7546771E-02  0.1117895E+00
         21   -1    0    0  502  501  0.00000000000E+00  0.00000000000E+00  0.35104879303E+03  0.35104879303E+03  0.00000000000E+00 0. -1.
         21   -1    0    0  501  502 -0.00000000000E+00 -0.00000000000E+00 -0.16802944538E+03  0.16802944538E+03  0.00000000000E+00 0. -1.
         25    1    1    2    0    0  0.25609618892E+02  0.48982208386E+02  0.69051784441E+02  0.15312824120E+03  0.12500000000E+03 0.  0.
         25    1    1    2    0    0  0.16314143705E+02 -0.73533650396E+02  0.16695833539E+03  0.22175083942E+03  0.12500000000E+03 0.  0.
         25    1    1    2    0    0 -0.41923762597E+02  0.24551442011E+02 -0.52990772180E+02  0.14419915780E+03  0.12500000000E+03 0.  0.
</event>
<event>
 5    0  0.5590591E-005  0.3427772E+03  0.7546771E-02  0.1065619E+00
         21   -1    0    0  502  501  0.00000000000E+00  0.00000000000E+00  0.39162526971E+03  0.39162526971E+03  0.00000000000E+00 0. -1.
         21   -1    0    0  501  502 -0.00000000000E+00 -0.00000000000E+00 -0.30002196746E+03  0.30002196746E+03  0.00000000000E+00 0. -1.
         25    1    1    2    0    0 -0.14183140467E+03 -0.12110956530E+03 -0.14397610794E+03  0.26671669205E+03  0.12500000000E+03 0.  0.
         25    1    1    2    0    0 -0.95719265491E+01  0.71169642183E+02  0.13990865473E+03  0.20088845515E+03  0.12500000000E+03 0.  0.
         25    1    1    2    0    0  0.15140333122E+03  0.49939923121E+02  0.95670755473E+02  0.22404208997E+03  0.12500000000E+03 0.  0.
</event>
<event>
 5    0  0.5590591E-005  0.2491543E+03  0.7546771E-02  0.1113840E+00
         21   -1    0    0  502  501  0.00000000000E+00  0.00000000000E+00  0.12056427219E+04  0.12056427219E+04  0.00000000000E+00 0. -1.
         21   -1    0    0  501  502 -0.00000000000E+00 -0.00000000000E+00 -0.51489439271E+02  0.51489439271E+02  0.00000000000E+00 0. -1.
         25    1    1    2    0    0 -0.48556774441E+02  0.14325361101E+03  0.52623373127E+03  0.56162825547E+03  0.12500000000E+03 0.  0.
         25    1    1    2    0    0  0.41483711409E+01 -0.96424479188E+02  0.35146931938E+03  0.38531879222E+03  0.12500000000E+03 0.  0.
         25    1    1    2    0    0  0.44408403300E+02 -0.46829131826E+02  0.27645023202E+03  0.31018511353E+03  0.12500000000E+03 0.  0.
</event>
<event>
 5    0  0.5590591E-005  0.3234080E+03  0.7546771E-02  0.1074091E+00
         21   -1    0    0  502  501  0.00000000000E+00  0.00000000000E+00  0.62276824837E+03  0.62276824837E+03  0.00000000000E+00 0. -1.
         21   -1    0    0  501  502 -0.00000000000E+00 -0.00000000000E+00 -0.16794806121E+03  0.16794806121E+03  0.00000000000E+00 0. -1.
         25    1    1    2    0    0 -0.45831529343E+02  0.56095897386E+02  0.82863054681E+02  0.16654898564E+03  0.12500000000E+03 0.  0.
         25    1    1    2    0    0  0.10416048560E+03  0.20932383656E+02  0.42655192346E+03  0.45701106644E+03  0.12500000000E+03 0.  0.
         25    1    1    2    0    0 -0.58328956260E+02 -0.77028281042E+02 -0.54594790980E+02  0.16715625750E+03  0.12500000000E+03 0.  0.
</event>
<event>
 5    0  0.5590591E-005  0.3978706E+03  0.7546771E-02  0.1044520E+00
         21   -1    0    0  502  501  0.00000000000E+00  0.00000000000E+00  0.30812005164E+03  0.30812005164E+03  0.00000000000E+00 0.  1.
         21   -1    0    0  501  502 -0.00000000000E+00 -0.00000000000E+00 -0.51376415994E+03  0.51376415994E+03  0.00000000000E+00 0.  1.
         25    1    1    2    0    0 -0.19201366152E+03 -0.17339377642E+03 -0.13874728028E+03  0.31907750735E+03  0.12500000000E+03 0.  0.
         25    1    1    2    0    0  0.20545179351E+03  0.20269307493E+03  0.61794117251E+02  0.32052836849E+03  0.12500000000E+03 0.  0.
         25    1    1    2    0    0 -0.13438131992E+02 -0.29299298506E+02 -0.12869094527E+03  0.18227833574E+03  0.12500000000E+03 0.  0.
</event>
<event>
 5    0  0.5590591E-005  0.6436785E+03  0.7546771E-02  0.9818714E-01
         21   -1    0    0  502  501  0.00000000000E+00  0.00000000000E+00  0.29132295117E+03  0.29132295117E+03  0.00000000000E+00 0.  1.
         21   -1    0    0  501  502 -0.00000000000E+00 -0.00000000000E+00 -0.14222087111E+04  0.14222087111E+04  0.00000000000E+00 0.  1.
         25    1    1    2    0    0 -0.13293235520E+03 -0.11372096332E+03 -0.25623386948E+03  0.33449105283E+03  0.12500000000E+03 0.  0.
         25    1    1    2    0    0  0.30316801566E+03  0.50942706683E+03 -0.39999606112E+03  0.72598115062E+03  0.12500000000E+03 0.  0.
         25    1    1    2    0    0 -0.17023566046E+03 -0.39570610351E+03 -0.47465582938E+03  0.65305945887E+03  0.12500000000E+03 0.  0.
</event>
<event>
 5    0  0.5590591E-005  0.5034225E+03  0.7546771E-02  0.1012889E+00
         21   -1    0    0  502  501  0.00000000000E+00  0.00000000000E+00  0.24114527765E+03  0.24114527765E+03  0.00000000000E+00 0. -1.
         21   -1    0    0  501  502 -0.00000000000E+00 -0.00000000000E+00 -0.10509608385E+04  0.10509608385E+04  0.00000000000E+00 0. -1.
         25    1    1    2    0    0  0.86242863905E+02 -0.20165104566E+03 -0.99371969616E+02  0.27129460765E+03  0.12500000000E+03 0.  0.
         25    1    1    2    0    0 -0.27527645903E+02 -0.20000287542E+03 -0.48487546315E+03  0.53989641250E+03  0.12500000000E+03 0.  0.
         25    1    1    2    0    0 -0.58715218002E+02  0.40165392108E+03 -0.22556812804E+03  0.48091509597E+03  0.12500000000E+03 0.  0.
</event>
<event>
 5    0  0.5590591E-005  0.4459490E+03  0.7546771E-02  0.1028937E+00
         21   -1    0    0  502  501  0.00000000000E+00  0.00000000000E+00  0.54965497881E+03  0.54965497881E+03  0.00000000000E+00 0.  1.
         21   -1    0    0  501  502 -0.00000000000E+00 -0.00000000000E+00 -0.36180964240E+03  0.36180964240E+03  0.00000000000E+00 0.  1.
         25    1    1    2    0    0 -0.23103016513E+03 -0.36155732238E+02  0.11983089430E+03  0.29097528658E+03  0.12500000000E+03 0.  0.
         25    1    1    2    0    0 -0.43322900713E+02  0.59318749146E+02  0.23420704226E+03  0.27545149549E+03  0.12500000000E+03 0.  0.
         25    1    1    2    0    0  0.27435306584E+03 -0.23163016907E+02 -0.16619260016E+03  0.34503783913E+03  0.12500000000E+03 0.  0.
</event>
<event>
 5    0  0.5590591E-005  0.2966379E+03  0.7546771E-02  0.1086933E+00
         21   -1    0    0  502  501  0.00000000000E+00  0.00000000000E+00  0.41758787219E+03  0.41758787219E+03  0.00000000000E+00 0.  1.
         21   -1    0    0  501  502 -0.00000000000E+00 -0.00000000000E+00 -0.21071975528E+03  0.21071975528E+03  0.00000000000E+00 0.  1.
         25    1    1    2    0    0  0.75010720261E+02  0.49455520321E+02 -0.67345666678E+02  0.16802647251E+03  0.12500000000E+03 0.  0.
         25    1    1    2    0    0  0.57383895755E+02 -0.10867343300E+03  0.16000242773E+03  0.23733647720E+03  0.12500000000E+03 0.  0.
         25    1    1    2    0    0 -0.13239461602E+03  0.59217912675E+02  0.11421135586E+03  0.22294467775E+03  0.12500000000E+03 0.  0.
</event>
<event>
 5    0  0.5590591E-005  0.2394456E+03  0.7546771E-02  0.1120163E+00
         21   -1    0    0  502  501  0.00000000000E+00  0.00000000000E+00  0.11212826979E+04  0.11212826979E+04  0.00000000000E+00 0. -1.
         21   -1    0    0  501  502 -0.00000000000E+00 -0.00000000000E+00 -0.51132704233E+02  0.51132704233E+02  0.00000000000E+00 0. -1.
         25    1    1    2    0    0 -0.77214796881E+02  0.86558481086E+02  0.48497084608E+03  0.51407802623E+03  0.12500000000E+03 0.  0.
         25    1    1    2    0    0  0.36849244470E+02 -0.60904585920E+02  0.17309895664E+03  0.22506773246E+03  0.12500000000E+03 0.  0.
         25    1    1    2    0    0  0.40365552411E+02 -0.25653895165E+02  0.41208019092E+03  0.43326964342E+03  0.12500000000E+03 0.  0.
</event>
<event>
 5    0  0.5590591E-005  0.4624827E+03  0.7546771E-02  0.1024064E+00
         21   -1    0    0  502  501  0.00000000000E+00  0.00000000000E+00  0.11975229438E+04  0.11975229438E+04  0.00000000000E+00 0.  1.
         21   -1    0    0  501  502 -0.00000000000E+00 -0.00000000000E+00 -0.17861055368E+03  0.17861055368E+03  0.00000000000E+00 0.  1.
         25    1    1    2    0    0 -0.17435901380E+03  0.20102217861E+03  0.87479242947E+03  0.92287473508E+03  0.12500000000E+03 0.  0.
         25    1    1    2    0    0  0.16666121285E+03 -0.15308011387E+03  0.29372224753E+01  0.25854034193E+03  0.12500000000E+03 0.  0.
         25    1    1    2    0    0  0.76978009519E+01 -0.47942064737E+02  0.14118273813E+03  0.19471842043E+03  0.12500000000E+03 0.  0.
</event>
<event>
 5    0  0.6004675E-005  0.3337171E+03  0.7546771E-02  0.1069504E+00
         21   -1    0    0  502  501  0.00000000000E+00  0.00000000000E+00  0.50513811772E+03  0.50513811772E+03  0.00000000000E+00 0. -1.
         21   -1    0    0  501  502 -0.00000000000E+00 -0.00000000000E+00 -0.22046863353E+03  0.22046863353E+03  0.00000000000E+00 0. -1.
         25    1    1    2    0    0 -0.52685247683E+02  0.11615254071E+03  0.15059726849E+03  0.23360583322E+03  0.12500000000E+03 0.  0.
         25    1    1    2    0    0  0.13405076639E+03  0.79160049457E+02  0.14381990213E+03  0.24605911007E+03  0.12500000000E+03 0.  0.
         25    1    1    2    0    0 -0.81365518703E+02 -0.19531259017E+03 -0.97476864361E+01  0.24594180796E+03  0.12500000000E+03 0.  0.
</event>
<event>
 5    0  0.5590591E-005  0.3502619E+03  0.7546771E-02  0.1062508E+00
         21   -1    0    0  502  501  0.00000000000E+00  0.00000000000E+00  0.10828568874E+04  0.10828568874E+04  0.00000000000E+00 0. -1.
         21   -1    0    0  501  502 -0.00000000000E+00 -0.00000000000E+00 -0.11329606479E+03  0.11329606479E+03  0.00000000000E+00 0. -1.
         25    1    1    2    0    0 -0.84165905511E+02  0.47630417326E+02  0.58639641970E+02  0.16857094624E+03  0.12500000000E+03 0.  0.
         25    1    1    2    0    0  0.54034073991E+02 -0.21846108080E+03  0.42815383289E+03  0.49958545775E+03  0.12500000000E+03 0.  0.
         25    1    1    2    0    0  0.30131831520E+02  0.17083066347E+03  0.48276734776E+03  0.52799654821E+03  0.12500000000E+03 0.  0.
</event>
<event>
 5    0  0.5590591E-005  0.3111865E+03  0.7546771E-02  0.1079779E+00
         21   -1    0    0  502  501  0.00000000000E+00  0.00000000000E+00  0.14438549639E+04  0.14438549639E+04  0.00000000000E+00 0. -1.
         21   -1    0    0  501  502 -0.00000000000E+00 -0.00000000000E+00 -0.67068393557E+02  0.67068393557E+02  0.00000000000E+00 0. -1.
         25    1    1    2    0    0 -0.15385840125E+03  0.79505336012E+02  0.24770858031E+03  0.32707498658E+03  0.12500000000E+03 0.  0.
         25    1    1    2    0    0  0.10952974939E+03 -0.13285745003E+03  0.69421878588E+03  0.72609406463E+03  0.12500000000E+03 0.  0.
         25    1    1    2    0    0  0.44328651859E+02  0.53352114017E+02  0.43485920418E+03  0.45775430626E+03  0.12500000000E+03 0.  0.
</event>
<event>
 5    0  0.5590591E-005  0.3409763E+03  0.7546771E-02  0.1066381E+00
         21   -1    0    0  502  501  0.00000000000E+00  0.00000000000E+00  0.45278217752E+02  0.45278217752E+02  0.00000000000E+00 0. -1.
         21   -1    0    0  501  502 -0.00000000000E+00 -0.00000000000E+00 -0.25677880927E+04  0.25677880927E+04  0.00000000000E+00 0. -1.
         25    1    1    2    0    0  0.23688831440E+02 -0.73198409815E+01 -0.76092550021E+03  0.77152275253E+03  0.12500000000E+03 0.  0.
         25    1    1    2    0    0 -0.31937828237E+02 -0.22970911863E+03 -0.10010569705E+04  0.10351455754E+04  0.12500000000E+03 0.  0.
         25    1    1    2    0    0  0.82489967972E+01  0.23702895961E+03 -0.76052740430E+03  0.80639798260E+03  0.12500000000E+03 0.  0.
</event>
<event>
 5    0  0.5590591E-005  0.2465940E+03  0.7546771E-02  0.1115476E+00
         21   -1    0    0  502  501  0.00000000000E+00  0.00000000000E+00  0.13779174872E+03  0.13779174872E+03  0.00000000000E+00 0.  1.
         21   -1    0    0  501  502 -0.00000000000E+00 -0.00000000000E+00 -0.44130792884E+03  0.44130792884E+03  0.00000000000E+00 0.  1.
         25    1    1    2    0    0  0.64831669175E+02  0.62488094477E+02  0.54579263110E+01  0.15415153661E+03  0.12500000000E+03 0.  0.
         25    1    1    2    0    0 -0.79200929872E+02  0.36731283873E+01 -0.13560933722E+03  0.20075151682E+03  0.12500000000E+03 0.  0.
         25    1    1    2    0    0  0.14369260697E+02 -0.66161222865E+02 -0.17336476921E+03  0.22419662412E+03  0.12500000000E+03 0.  0.
</event>
<event>
 5    0  0.5590591E-005  0.2984761E+03  0.7546771E-02  0.1086005E+00
         21   -1    0    0  502  501  0.00000000000E+00  0.00000000000E+00  0.60840349597E+02  0.60840349597E+02  0.00000000000E+00 0.  1.
         21   -1    0    0  501  502 -0.00000000000E+00 -0.00000000000E+00 -0.14642915189E+04  0.14642915189E+04  0.00000000000E+00 0.  1.
         25    1    1    2    0    0 -0.27566413417E+02  0.53609452900E+02 -0.11225376703E+04  0.11310834195E+04  0.12500000000E+03 0.  0.
         25    1    1    2    0    0 -0.17516982675E+02 -0.62365617699E+02 -0.11851126243E+03  0.18402780843E+03  0.12500000000E+03 0.  0.
         25    1    1    2    0    0  0.45083396092E+02  0.87561647993E+01 -0.16240223656E+03  0.21002064057E+03  0.12500000000E+03 0.  0.
</event>
<event>
 5    0  0.5590591E-005  0.2783004E+03  0.7546771E-02  0.1096621E+00
         21   -1    0    0  502  501  0.00000000000E+00  0.00000000000E+00  0.38519967428E+03  0.38519967428E+03  0.00000000000E+00 0. -1.
         21   -1    0    0  501  502 -0.00000000000E+00 -0.00000000000E+00 -0.20106737901E+03  0.20106737901E+03  0.00000000000E+00 0. -1.
         25    1    1    2    0    0 -0.16529115444E+03 -0.57711034721E+02  0.21573945270E+02  0.21619936258E+03  0.12500000000E+03 0.  0.
         25    1    1    2    0    0  0.12286424151E+03  0.61280895456E+02  0.14755174457E+03  0.23716552725E+03  0.12500000000E+03 0.  0.
         25    1    1    2    0    0  0.42426912928E+02 -0.35698607349E+01  0.15006605427E+02  0.13290216346E+03  0.12500000000E+03 0.  0.
</event>
<event>
 5    0  0.5590591E-005  0.3462822E+03  0.7546771E-02  0.1064151E+00
         21   -1    0    0  502  501  0.00000000000E+00  0.00000000000E+00  0.20409214413E+03  0.20409214413E+03  0.00000000000E+00 0. -1.
         21   -1    0    0  501  502 -0.00000000000E+00 -0.00000000000E+00 -0.58753552218E+03  0.58753552218E+03  0.00000000000E+00 0. -1.
         25    1    1    2    0    0  0.10420406949E+03  0.10429783942E+03 -0.15098836590E+03  0.24527334557E+03  0.12500000000E+03 0.  0.
         25    1    1    2    0    0 -0.11470977741E+02 -0.63747231925E+01  0.10386330049E+03  0.16304847627E+03  0.12500000000E+03 0.  0.
         25    1    1    2    0    0 -0.92733091749E+02 -0.97923116231E+02 -0.33631831263E+03  0.38330584448E+03  0.12500000000E+03 0.  0.
</event>
<event>
 5    0  0.5590591E-005  0.3024337E+03  0.7546771E-02  0.1084030E+00
         21   -1    0    0  502  501  0.00000000000E+00  0.00000000000E+00  0.59642120743E+03  0.59642120743E+03  0.00000000000E+00 0.  1.
         21   -1    0    0  501  502 -0.00000000000E+00 -0.00000000000E+00 -0.15335830770E+03  0.15335830770E+03  0.00000000000E+00 0.  1.
         25    1    1    2    0    0 -0.13870925122E+03  0.40504309767E+02  0.56359171427E+02  0.19920394496E+03  0.12500000000E+03 0.  0.
         25    1    1    2    0    0 -0.36756914197E+01 -0.80061000282E+02  0.40452997396E+02  0.15389840633E+03  0.12500000000E+03 0.  0.
         25    1    1    2    0    0  0.14238494264E+03  0.39556690515E+02  0.34625073091E+03  0.39667716384E+03  0.12500000000E+03 0.  0.
</event>
<event>
 5    0  0.5590591E-005  0.2625250E+03  0.7546771E-02  0.1105636E+00
         21   -1    0    0  502  501  0.00000000000E+00  0.00000000000E+00  0.98385382943E+02  0.98385382943E+02  0.00000000000E+00 0. -1.
         21   -1    0    0  501  502 -0.00000000000E+00 -0.00000000000E+00 -0.70050415597E+03  0.70050415597E+03  0.00000000000E+00 0. -1.
         25    1    1    2    0    0  0.33825735422E+01 -0.14108366313E+02 -0.43285911104E+02  0.13307576002E+03  0.12500000000E+03 0.  0.
         25    1    1    2    0    0  0.76410024834E+02 -0.93293967617E+02 -0.32828110812E+03  0.37139701431E+03  0.12500000000E+03 0.  0.
         25    1    1    2    0    0 -0.79792598376E+02  0.10740233393E+03 -0.23055175381E+03  0.29441676459E+03  0.12500000000E+03 0.  0.
</event>
<event>
 5    0  0.5590591E-005  0.3438633E+03  0.7546771E-02  0.1065162E+00
         21   -1    0    0  502  501  0.00000000000E+00  0.00000000000E+00  0.29634346817E+03  0.29634346817E+03  0.00000000000E+00 0.  1.
         21   -1    0    0  501  502 -0.00000000000E+00 -0.00000000000E+00 -0.39900315779E+03  0.39900315779E+03  0.00000000000E+00 0.  1.
         25    1    1    2    0    0 -0.16086761473E+03  0.20077146338E+03 -0.29697203325E+02  0.28756650337E+03  0.12500000000E+03 0.  0.
         25    1    1    2    0    0  0.46109352410E+02 -0.44915813053E+02 -0.10456400147E+03  0.17522024154E+03  0.12500000000E+03 0.  0.
         25    1    1    2    0    0  0.11475826232E+03 -0.15585565033E+03  0.31601515179E+02  0.23255988104E+03  0.12500000000E+03 0.  0.
</event>
<event>
 5    0  0.5590591E-005  0.2922296E+03  0.7546771E-02  0.1089191E+00
         21   -1    0    0  502  501  0.00000000000E+00  0.00000000000E+00  0.14321355349E+04  0.14321355349E+04  0.00000000000E+00 0.  1.
         21   -1    0    0  501  502 -0.00000000000E+00 -0.00000000000E+00 -0.59629909503E+02  0.59629909503E+02  0.00000000000E+00 0.  1.
         25    1    1    2    0    0 -0.81963339441E+02 -0.91414301947E+02  0.81729506643E+03  0.83586529371E+03  0.12500000000E+03 0.  0.
         25    1    1    2    0    0  0.79065576603E+02  0.14497021158E+03  0.39279353717E+03  0.44404897308E+03  0.12500000000E+03 0.  0.
         25    1    1    2    0    0  0.28977628386E+01 -0.53555909632E+02  0.16241702176E+03  0.21185117759E+03  0.12500000000E+03 0.  0.
</event>
<event>
 5    0  0.5590591E-005  0.3004807E+03  0.7546771E-02  0.1085001E+00
         21   -1    0    0  502  501  0.00000000000E+00  0.00000000000E+00  0.47710600736E+03  0.47710600736E+03  0.00000000000E+00 0.  1.
         21   -1    0    0  501  502 -0.00000000000E+00 -0.00000000000E+00 -0.18924232104E+03  0.18924232104E+03  0.00000000000E+00 0.  1.
         25    1    1    2    0    0  0.31111898071E+02  0.15029054167E+03  0.31557394295E+02  0.20043968233E+03  0.12500000000E+03 0.  0.
         25    1    1    2    0    0 -0.32280151479E+02 -0.18780180834E+03  0.24546452880E+03  0.33494680517E+03  0.12500000000E+03 0.  0.
         25    1    1    2    0    0  0.11682534079E+01  0.37511266661E+02  0.10841763221E+02  0.13096184090E+03  0.12500000000E+03 0.  0.
</event>
<event>
 5    0  0.7156315E-005  0.4779255E+03  0.7546771E-02  0.1019707E+00
         21   -1    0    0  502  501  0.00000000000E+00  0.00000000000E+00  0.54588256684E+03  0.54588256684E+03  0.00000000000E+00 0. -1.
         21   -1    0    0  501  502 -0.00000000000E+00 -0.00000000000E+00 -0.41842836705E+03  0.41842836705E+03  0.00000000000E+00 0. -1.
         25    1    1    2    0    0 -0.10145823922E+03 -0.15886125180E+03 -0.17177279652E+03  0.28400979781E+03  0.12500000000E+03 0.  0.
         25    1    1    2    0    0  0.25225467148E+03 -0.70483090346E+02  0.62446457237E+02  0.29685829166E+03  0.12500000000E+03 0.  0.
         25    1    1    2    0    0 -0.15079643225E+03  0.22934434214E+03  0.23678053907E+03  0.38344284442E+03  0.12500000000E+03 0.  0.
</event>
<event>
 5    0  0.5590591E-005  0.3371005E+03  0.7546771E-02  0.1068038E+00
         21   -1    0    0  502  501  0.00000000000E+00  0.00000000000E+00  0.85839709648E+03  0.85839709648E+03  0.00000000000E+00 0. -1.
         21   -1    0    0  501  502 -0.00000000000E+00 -0.00000000000E+00 -0.13238249903E+03  0.13238249903E+03  0.00000000000E+00 0. -1.
         25    1    1    2    0    0 -0.15882431581E+03 -0.67241080693E+02  0.12920021842E+03  0.24912692080E+03  0.12500000000E+03 0.  0.
         25    1    1    2    0    0  0.90681903761E+02  0.34296287473E+02  0.36165042877E+02  0.16227246633E+03  0.12500000000E+03 0.  0.
         25    1    1    2    0    0  0.68142412054E+02  0.32944793220E+02  0.56064933616E+03  0.57938020837E+03  0.12500000000E+03 0.  0.
</event>
<event>
 5    0  0.5590591E-005  0.3529340E+03  0.7546771E-02  0.1061417E+00
         21   -1    0    0  502  501  0.00000000000E+00  0.00000000000E+00  0.40168388054E+03  0.40168388054E+03  0.00000000000E+00 0. -1.
         21   -1    0    0  501  502 -0.00000000000E+00 -0.00000000000E+00 -0.31010066278E+03  0.31010066278E+03  0.00000000000E+00 0. -1.
         25    1    1    2    0    0  0.45093534258E+02  0.58863025538E+02 -0.10030602773E+03  0.17659156777E+03  0.12500000000E+03 0.  0.
         25    1    1    2    0    0  0.49295560676E+02 -0.19662294867E+03 -0.18570265736E+02  0.23887337862E+03  0.12500000000E+03 0.  0.
         25    1    1    2    0    0 -0.94389094934E+02  0.13775992313E+03  0.21045951122E+03  0.29631959693E+03  0.12500000000E+03 0.  0.
</event>
<event>
 5    0  0.5590591E-005  0.2849353E+03  0.7546771E-02  0.1093023E+00
         21   -1    0    0  502  501  0.00000000000E+00  0.00000000000E+00  0.35844687873E+02  0.35844687873E+02  0.00000000000E+00 0.  1.
         21   -1    0    0  501  502 -0.00000000000E+00 -0.00000000000E+00 -0.22649979237E+04  0.22649979237E+04  0.00000000000E+00 0.  1.
         25    1    1    2    0    0 -0.96490913246E+02 -0.38637537971E+02 -0.50447637622E+03  0.53002336726E+03  0.12500000000E+03 0.  0.
         25    1    1    2    0    0 -0.89125833201E+02  0.48880120906E+02 -0.48488375161E+03  0.51095002979E+03  0.12500000000E+03 0.  0.
         25    1    1    2    0    0  0.18561674645E+03 -0.10242582935E+02 -0.12397931080E+04  0.12598692145E+04  0.12500000000E+03 0.  0.
</event>
<event>
 5    0  0.5590591E-005  0.2693120E+03  0.7546771E-02  0.1101674E+00
         21   -1    0    0  502  501  0.00000000000E+00  0.00000000000E+00  0.12163498868E+04  0.12163498868E+04  0.00000000000E+00 0.  1.
         21   -1    0    0  501  502 -0.00000000000E+00 -0.00000000000E+00 -0.59628379113E+02  0.59628379113E+02  0.00000000000E+00 0.  1.
         25    1    1    2    0    0  0.50443888796E+02  0.29607532083E+01  0.68458626228E+03  0.69773684329E+03  0.12500000000E+03 0.  0.
         25    1    1    2    0    0  0.42188290978E+02 -0.32301987544E+02  0.35847309482E+03  0.38334218396E+03  0.12500000000E+03 0.  0.
         25    1    1    2    0    0 -0.92632179774E+02  0.29341234336E+02  0.11366215063E+03  0.19489923870E+03  0.12500000000E+03 0.  0.
</event>
<event>
 5    0  0.5590591E-005  0.3516987E+03  0.7546771E-02  0.1061920E+00
         21   -1    0    0  502  501  0.00000000000E+00  0.00000000000E+00  0.22247884934E+03  0.22247884934E+03  0.00000000000E+00 0.  1.
         21   -1    0    0  501  502 -0.00000000000E+00 -0.00000000000E+00 -0.55597183970E+03  0.55597183970E+03  0.00000000000E+00 0.  1.
         25    1    1    2    0    0 -0.10998973570E+03 -0.14803574209E+03  0.70255272746E+02  0.23360891730E+03  0.12500000000E+03 0.  0.
         25    1    1    2    0    0  0.71202691957E+02  0.10077024261E+03 -0.35730881936E+03  0.39814451840E+03  0.12500000000E+03 0.  0.
         25    1    1    2    0    0  0.38787043747E+02  0.47265499481E+02 -0.46439443744E+02  0.14669725335E+03  0.12500000000E+03 0.  0.
</event>
<event>
 5    0  0.5590591E-005  0.3733857E+03  0.7546771E-02  0.1053406E+00
         21   -1    0    0  502  501  0.00000000000E+00  0.00000000000E+00  0.34079922170E+03  0.34079922170E+03  0.00000000000E+00 0.  1.
         21   -1    0    0  501  502 -0.00000000000E+00 -0.00000000000E+00 -0.40908799831E+03  0.40908799831E+03  0.00000000000E+00 0.  1.
         25    1    1    2    0    0 -0.49053270072E+02  0.12464550808E+03  0.92922783456E+02  0.20543215346E+03  0.12500000000E+03 0.  0.
         25    1    1    2    0    0  0.87660898348E+02  0.36619555303E+02 -0.26826066932E+03  0.31082826711E+03  0.12500000000E+03 0.  0.
         25    1    1    2    0    0 -0.38607628276E+02 -0.16126506339E+03  0.10704910925E+03  0.23362679945E+03  0.12500000000E+03 0.  0.
</event>
<event>
 5    0  0.5590591E-005  0.2309008E+03  0.7546771E-02  0.1126007E+00
         21   -1    0    0  502  501  0.00000000000E+00  0.00000000000E+00  0.15387938825E+03  0.15387938825E+03  0.00000000000E+00 0.  1.
         21   -1    0    0  501  502 -0.00000000000E+00 -0.00000000000E+00 -0.34647394138E+03  0.34647394138E+03  0.00000000000E+00 0.  1.
         25    1    1    2    0    0 -0.32034151999E+01  0.24664339096E+02 -0.52040406080E+02  0.13766551985E+03  0.12500000000E+03 0.  0.
         25    1    1    2    0    0  0.16817134693E+02  0.83582325728E+02 -0.10127366731E+02  0.15164558929E+03  0.12500000000E+03 0.  0.
         25    1    1    2    0    0 -0.13613719493E+02 -0.10824666482E+03 -0.13042678032E+03  0.21104222049E+03  0.12500000000E+03 0.  0.
</event>
<event>
 5    0  0.5590591E-005  0.2969110E+03  0.7546771E-02  0.1086795E+00
         21   -1    0    0  502  501  0.00000000000E+00  0.00000000000E+00  0.33355764420E+02  0.33355764420E+02  0.00000000000E+00 0. -1.
         21   -1    0    0  501  502 -0.00000000000E+00 -0.00000000000E+00 -0.26429058357E+04  0.26429058357E+04  0.00000000000E+00 0. -1.
         25    1    1    2    0    0  0.30360657431E+02  0.39782706968E+02 -0.24828072150E+03  0.28244070167E+03  0.12500000000E+03 0.  0.
         25    1    1    2    0    0  0.65227311588E+02 -0.12344325206E+03 -0.76432017732E+03  0.78695817685E+03  0.12500000000E+03 0.  0.
         25    1    1    2    0    0 -0.95587969020E+02  0.83660545090E+02 -0.15969491725E+04  0.16068627216E+04  0.12500000000E+03 0.  0.
</event>
<event>
 5    0  0.5590591E-005  0.2692950E+03  0.7546771E-02  0.1101684E+00
         21   -1    0    0  502  501  0.00000000000E+00  0.00000000000E+00  0.67821593263E+03  0.67821593263E+03  0.00000000000E+00 0. -1.
         21   -1    0    0  501  502 -0.00000000000E+00 -0.00000000000E+00 -0.10692726084E+03  0.10692726084E+03  0.00000000000E+00 0. -1.
         25    1    1    2    0    0 -0.34956433632E+02  0.12673353734E+03  0.17531031225E+03  0.25227375472E+03  0.12500000000E+03 0.  0.
         25    1    1    2    0    0 -0.74862598612E+02 -0.46644091174E+02  0.26666438445E+03  0.30743287698E+03  0.12500000000E+03 0.  0.
         25    1    1    2    0    0  0.10981903224E+03 -0.80089446165E+02  0.12931397509E+03  0.22543656178E+03  0.12500000000E+03 0.  0.
</event>
<event>
 5    0  0.5590591E-005  0.2658951E+03  0.7546771E-02  0.1103652E+00
         21   -1    0    0  502  501  0.00000000000E+00  0.00000000000E+00  0.10617126601E+03  0.10617126601E+03  0.00000000000E+00 0.  1.
         21   -1    0    0  501  502 -0.00000000000E+00 -0.00000000000E+00 -0.66590714217E+03  0.66590714217E+03  0.00000000000E+00 0.  1.
         25    1    1    2    0    0 -0.12522630903E+03 -0.26134638714E+02 -0.32931109907E+03  0.37474717848E+03  0.12500000000E+03 0.  0.
         25    1    1    2    0    0  0.11168628620E+03 -0.38448483309E+02 -0.17541103811E+03  0.24565452303E+03  0.12500000000E+03 0.  0.
         25    1    1    2    0    0  0.13540022828E+02  0.64583122023E+02 -0.55013738982E+02  0.15167670667E+03  0.12500000000E+03 0.  0.
</event>
<event>
 5    0  0.5590591E-005  0.3997727E+03  0.7546771E-02  0.1043858E+00
         21   -1    0    0  502  501  0.00000000000E+00  0.00000000000E+00  0.15579112975E+03  0.15579112975E+03  0.00000000000E+00 0. -1.
         21   -1    0    0  501  502 -0.00000000000E+00 -0.00000000000E+00 -0.10258490118E+04  0.10258490118E+04  0.00000000000E+00 0. -1.
         25    1    1    2    0    0 -0.50839701812E+02  0.99886321365E+02 -0.55712572260E+03  0.58187285833E+03  0.12500000000E+03 0.  0.
         25    1    1    2    0    0 -0.35157053397E+02 -0.23132395303E+03 -0.51620871082E+02  0.27025266692E+03  0.12500000000E+03 0.  0.
         25    1    1    2    0    0  0.85996755209E+02  0.13143763166E+03 -0.26131128839E+03  0.32951461631E+03  0.12500000000E+03 0.  0.
</event>
<event>
 5    0  0.5590591E-005  0.2566339E+03  0.7546771E-02  0.1109183E+00
         21   -1    0    0  502  501  0.00000000000E+00  0.00000000000E+00  0.27734426875E+03  0.27734426875E+03  0.00000000000E+00 0. -1.
         21   -1    0    0  501  502 -0.00000000000E+00 -0.00000000000E+00 -0.23747010430E+03  0.23747010430E+03  0.00000000000E+00 0. -1.
         25    1    1    2    0    0 -0.11466902820E+03  0.41388390730E+02 -0.49790966625E+02  0.18156576019E+03  0.12500000000E+03 0.  0.
         25    1    1    2    0    0  0.10260561311E+03 -0.37064942043E+02 -0.19166523355E+02  0.16701520107E+03  0.12500000000E+03 0.  0.
         25    1    1    2    0    0  0.12063415091E+02 -0.43234486871E+01  0.10883165442E+03  0.16623341179E+03  0.12500000000E+03 0.  0.
</event>
<event>
 5    0  0.5590591E-005  0.2887812E+03  0.7546771E-02  0.1090987E+00
         21   -1    0    0  502  501  0.00000000000E+00  0.00000000000E+00  0.59387559088E+03  0.59387559088E+03  0.00000000000E+00 0. -1.
         21   -1    0    0  501  502 -0.00000000000E+00 -0.00000000000E+00 -0.14042433306E+03  0.14042433306E+03  0.00000000000E+00 0. -1.
         25    1    1    2    0    0  0.13265112695E+03  0.40654854567E+02  0.14677262655E+02  0.18732207750E+03  0.12500000000E+03 0.  0.
         25    1    1    2    0    0 -0.11226133345E+03 -0.73725028380E+02  0.32652463207E+03  0.37454148254E+03  0.12500000000E+03 0.  0.
         25    1    1    2    0    0 -0.20389793500E+02  0.33070173813E+02  0.11224936310E+03  0.17243636389E+03  0.12500000000E+03 0.  0.
</event>
<event>
 5    0  0.5590591E-005  0.5130724E+03  0.7546771E-02  0.1010422E+00
         21   -1    0    0  502  501  0.00000000000E+00  0.00000000000E+00  0.89733114330E+03  0.89733114330E+03  0.00000000000E+00 0. -1.
         21   -1    0    0  501  502 -0.00000000000E+00 -0.00000000000E+00 -0.29336250616E+03  0.29336250616E+03  0.00000000000E+00 0. -1.
         25    1    1    2    0    0 -0.37244420758E+02 -0.74148207039E+02  0.26118355762E+03  0.30120915367E+03  0.12500000000E+03 0.  0.
         25    1    1    2    0    0  0.20600564007E+03 -0.49097071142E+02  0.52871789443E+03  0.58310930195E+03  0.12500000000E+03 0.  0.
         25    1    1    2    0    0 -0.16876121931E+03  0.12324527818E+03 -0.18593281490E+03  0.30637519383E+03  0.12500000000E+03 0.  0.
</event>
<event>
 5    0  0.5590591E-005  0.2990532E+03  0.7546771E-02  0.1085715E+00
         21   -1    0    0  502  501  0.00000000000E+00  0.00000000000E+00  0.10753502143E+04  0.10753502143E+04  0.00000000000E+00 0. -1.
         21   -1    0    0  501  502 -0.00000000000E+00 -0.00000000000E+00 -0.83166226990E+02  0.83166226990E+02  0.00000000000E+00 0. -1.
         25    1    1    2    0    0 -0.94762769494E+02  0.75311979421E+02  0.39554258509E+03  0.43212360887E+03  0.12500000000E+03 0.  0.
         25    1    1    2    0    0  0.49533555613E+02 -0.11443994883E+03  0.55393042079E+03  0.58138970244E+03  0.12500000000E+03 0.  0.
         25    1    1    2    0    0  0.45229213881E+02  0.39127969407E+02  0.42710981471E+02  0.14500313002E+03  0.12500000000E+03 0.  0.
</event>
<event>
 5    0  0.5590591E-005  0.2956126E+03  0.7546771E-02  0.1087455E+00
         21   -1    0    0  502  501  0.00000000000E+00  0.00000000000E+00  0.90871717281E+03  0.90871717281E+03  0.00000000000E+00 0. -1.
         21   -1    0    0  501  502 -0.00000000000E+00 -0.00000000000E+00 -0.96165025986E+02  0.96165025986E+02  0.00000000000E+00 0. -1.
         25    1    1    2    0    0  0.62819709476E+01  0.14283738941E+02  0.11370308946E+03  0.16969643753E+03  0.12500000000E+03 0.  0.
         25    1    1    2    0    0  0.12348420415E+02  0.91593456885E+01  0.69528540248E+03  0.70659972262E+03  0.12500000000E+03 0.  0.
         25    1    1    2    0    0 -0.18630391363E+02 -0.23443084630E+02  0.35636548827E+01  0.12858603865E+03  0.12500000000E+03 0.  0.
</event>
<event>
 5    0  0.5590591E-005  0.2552367E+03  0.7546771E-02  0.1110039E+00
         21   -1    0    0  502  501  0.00000000000E+00  0.00000000000E+00  0.12132632914E+03  0.12132632914E+03  0.00000000000E+00 0.  1.
         21   -1    0    0  501  502 -0.00000000000E+00 -0.00000000000E+00 -0.53694673237E+03  0.53694673237E+03  0.00000000000E+00 0.  1.
         25    1    1    2    0    0 -0.75154881479E+02  0.43265058550E+02  0.73906252381E+01  0.15231461796E+03  0.12500000000E+03 0.  0.
         25    1    1    2    0    0  0.34714391156E+02 -0.18158529821E+02 -0.28553703986E+03  0.31415159126E+03  0.12500000000E+03 0.  0.
         25    1    1    2    0    0  0.40440490324E+02 -0.25106528729E+02 -0.13747398861E+03  0.19180685229E+03  0.12500000000E+03 0.  0.
</event>
<event>
 5    0  0.5590591E-005  0.2986009E+03  0.7546771E-02  0.1085942E+00
         21   -1    0    0  502  501  0.00000000000E+00  0.00000000000E+00  0.54059045247E+02  0.54059045247E+02  0.00000000000E+00 0. -1.
         21   -1    0    0  501  502 -0.00000000000E+00 -0.00000000000E+00 -0.16493536869E+04  0.16493536869E+04  0.00000000000E+00 0. -1.
         25    1    1    2    0    0 -0.13136800157E+03  0.52454878564E+02 -0.30494297855E+03  0.35864228179E+03  0.12500000000E+03 0.  0.
         25    1    1    2    0    0 -0.55998508245E+02 -0.29634409791E+01 -0.33397176797E+03  0.36098027191E+03  0.12500000000E+03 0.  0.
         25    1    1    2    0    0  0.18736650981E+03 -0.49491437584E+02 -0.95637989517E+03  0.98379017848E+03  0.12500000000E+03 0.  0.
</event>
<event>
 5    0  0.5590591E-005  0.2859149E+03  0.7546771E-02  0.1092502E+00
         21   -1    0    0  502  501  0.00000000000E+00  0.00000000000E+00  0.10955169500E+04  0.10955169500E+04  0.00000000000E+00 0. -1.
         21   -1    0    0  501  502 -0.00000000000E+00 -0.00000000000E+00 -0.74619867765E+02  0.74619867765E+02  0.00000000000E+00 0. -1.
         25    1    1    2    0    0  0.10526536358E+03 -0.11668138059E+03  0.16509893445E+03  0.25995768791E+03  0.12500000000E+03 0.  0.
         25    1    1    2    0    0 -0.78440137054E+01  0.42400079060E+02  0.42805421766E+03  0.44801195130E+03  0.12500000000E+03 0.  0.
         25    1    1    2    0    0 -0.97421349880E+02  0.74281301531E+02  0.42774393012E+03  0.46216717855E+03  0.12500000000E+03 0.  0.
</event>
<event>
 5    0  0.5590591E-005  0.2903763E+03  0.7546771E-02  0.1090153E+00
         21   -1    0    0  502  501  0.00000000000E+00  0.00000000000E+00  0.11296736405E+04  0.11296736405E+04  0.00000000000E+00 0.  1.
         21   -1    0    0  501  502 -0.00000000000E+00 -0.00000000000E+00 -0.74639607301E+02  0.74639607301E+02  0.00000000000E+00 0.  1.
         25    1    1    2    0    0  0.14399351759E+03 -0.86080124708E+02  0.19272153369E+03  0.28444772899E+03  0.12500000000E+03 0.  0.
         25    1    1    2    0    0 -0.39716362674E+02 -0.67825716882E+01  0.31191750901E+03  0.33843895339E+03  0.12500000000E+03 0.  0.
         25    1    1    2    0    0 -0.10427715491E+03  0.92862696396E+02  0.55039499045E+03  0.58142656539E+03  0.12500000000E+03 0.  0.
</event>
<event>
 5    0  0.5590591E-005  0.3362669E+03  0.7546771E-02  0.1068397E+00
         21   -1    0    0  502  501  0.00000000000E+00  0.00000000000E+00  0.49462728578E+03  0.49462728578E+03  0.00000000000E+00 0. -1.
         21   -1    0    0  501  502 -0.00000000000E+00 -0.00000000000E+00 -0.22860738409E+03  0.22860738409E+03  0.00000000000E+00 0. -1.
         25    1    1    2    0    0  0.41550883881E+02  0.30874420766E+02  0.79303728345E+02  0.15682406428E+03  0.12500000000E+03 0.  0.
         25    1    1    2    0    0 -0.10137392907E+02 -0.14602155139E+03  0.30238064793E+03  0.35844681118E+03  0.12500000000E+03 0.  0.
         25    1    1    2    0    0 -0.31413490973E+02  0.11514713062E+03 -0.11566447458E+03  0.20796379441E+03  0.12500000000E+03 0.  0.
</event>
<event>
 5    0  0.5590591E-005  0.3410301E+03  0.7546771E-02  0.1066358E+00
         21   -1    0    0  502  501  0.00000000000E+00  0.00000000000E+00  0.13437109453E+03  0.13437109453E+03  0.00000000000E+00 0.  1.
         21   -1    0    0  501  502 -0.00000000000E+00 -0.00000000000E+00 -0.86552488537E+03  0.86552488537E+03  0.00000000000E+00 0.  1.
         25    1    1    2    0    0 -0.26937943117E+02  0.13261771171E+03  0.16392627212E+02  0.18495088123E+03  0.12500000000E+03 0.  0.
         25    1    1    2    0    0 -0.25083925578E+02 -0.13005160788E+03 -0.50957659160E+03  0.54114316658E+03  0.12500000000E+03 0.  0.
         25    1    1    2    0    0  0.52021868695E+02 -0.25661038305E+01 -0.23796982645E+03  0.27380193209E+03  0.12500000000E+03 0.  0.
</event>
<event>
 5    0  0.5590591E-005  0.2220404E+03  0.7546771E-02  0.1132371E+00
         21   -1    0    0  502  501  0.00000000000E+00  0.00000000000E+00  0.56556519484E+03  0.56556519484E+03  0.00000000000E+00 0. -1.
         21   -1    0    0  501  502 -0.00000000000E+00 -0.00000000000E+00 -0.87172892147E+02  0.87172892147E+02  0.00000000000E+00 0. -1.
         25    1    1    2    0    0 -0.47546088134E+02  0.28041359920E+02  0.20771570833E+03  0.24863178367E+03  0.12500000000E+03 0.  0.
         25    1    1    2    0    0  0.38635277140E+01 -0.38730330330E+02  0.38247091819E+02  0.13639210155E+03  0.12500000000E+03 0.  0.
         25    1    1    2    0    0  0.43682560420E+02  0.10688970411E+02  0.23242950254E+03  0.26771420176E+03  0.12500000000E+03 0.  0.
</event>
<event>
 5    0  0.5590591E-005  0.3203600E+03  0.7546771E-02  0.1075484E+00
         21   -1    0    0  502  501  0.00000000000E+00  0.00000000000E+00  0.36501277036E+03  0.36501277036E+03  0.00000000000E+00 0.  1.
         21   -1    0    0  501  502 -0.00000000000E+00 -0.00000000000E+00 -0.28116968403E+03  0.28116968403E+03  0.00000000000E+00 0.  1.
         25    1    1    2    0    0  0.90181511059E+01 -0.94694997812E+01  0.20692176884E+03  0.24210042730E+03  0.12500000000E+03 0.  0.
         25    1    1    2    0    0 -0.10433058982E+03  0.31462411055E+02  0.46083245680E+02  0.17211455724E+03  0.12500000000E+03 0.  0.
         25    1    1    2    0    0  0.95312438717E+02 -0.21992911273E+02 -0.16916192819E+03  0.23196746985E+03  0.12500000000E+03 0.  0.
</event>
<event>
 5    0  0.5590591E-005  0.2929499E+03  0.7546771E-02  0.1088819E+00
         21   -1    0    0  502  501  0.00000000000E+00  0.00000000000E+00  0.69020138315E+03  0.69020138315E+03  0.00000000000E+00 0. -1.
         21   -1    0    0  501  502 -0.00000000000E+00 -0.00000000000E+00 -0.12433996538E+03  0.12433996538E+03  0.00000000000E+00 0. -1.
         25    1    1    2    0    0 -0.34238180519E+02  0.16013331850E+02  0.30694737438E+03  0.33357213679E+03  0.12500000000E+03 0.  0.
         25    1    1    2    0    0  0.57027345997E+02 -0.12369370836E+02 -0.50152906631E+02  0.14678362841E+03  0.12500000000E+03 0.  0.
         25    1    1    2    0    0 -0.22789165478E+02 -0.36439610137E+01  0.30906695002E+03  0.33418558333E+03  0.12500000000E+03 0.  0.
</event>
<event>
 5    0  0.5590591E-005  0.2459058E+03  0.7546771E-02  0.1115920E+00
         21   -1    0    0  502  501  0.00000000000E+00  0.00000000000E+00  0.62157133347E+02  0.62157133347E+02  0.00000000000E+00 0.  1.
         21   -1    0    0  501  502 -0.00000000000E+00 -0.00000000000E+00 -0.97285132490E+03  0.97285132490E+03  0.00000000000E+00 0.  1.
         25    1    1    2    0    0  0.82780004338E+02 -0.36269561816E+02 -0.12661876389E+03  0.19956282620E+03  0.12500000000E+03 0.  0.
         25    1    1    2    0    0  0.55645795500E+01  0.14408734869E+02 -0.45052854245E+03  0.46780288984E+03  0.12500000000E+03 0.  0.
         25    1    1    2    0    0 -0.88344583888E+02  0.21860826948E+02 -0.33354688521E+03  0.36764274220E+03  0.12500000000E+03 0.  0.
</event>
<event>
 5    0  0.5590591E-005  0.3592885E+03  0.7546771E-02  0.1058866E+00
         21   -1    0    0  502  501  0.00000000000E+00  0.00000000000E+00  0.60982791915E+03  0.60982791915E+03  0.00000000000E+00 0.  1.
         21   -1    0    0  501  502 -0.00000000000E+00 -0.00000000000E+00 -0.21167973799E+03  0.21167973799E+03  0.00000000000E+00 0.  1.
         25    1    1    2    0    0  0.52933535261E+02  0.12795666433E+03  0.42763732648E+02  0.19138600767E+03  0.12500000000E+03 0.  0.
         25    1    1    2    0    0 -0.61248420583E+02  0.15553117366E+03  0.11841833625E+03  0.23997753512E+03  0.12500000000E+03 0.  0.
         25    1    1    2    0    0  0.83148853221E+01 -0.28348783799E+03  0.23696611226E+03  0.39014411435E+03  0.12500000000E+03 0.  0.
</event>
<event>
 5    0  0.5590591E-005  0.3335947E+03  0.7546771E-02  0.1069557E+00
         21   -1    0    0  502  501  0.00000000000E+00  0.00000000000E+00  0.62182740402E+02  0.62182740402E+02  0.00000000000E+00 0.  1.
         21   -1    0    0  501  502 -0.00000000000E+00 -0.00000000000E+00 -0.17896510085E+04  0.17896510085E+04  0.00000000000E+00 0.  1.
         25    1    1    2    0    0  0.98860319177E+01  0.40472300836E+02 -0.12346066374E+04  0.12416176102E+04  0.12500000000E+03 0.  0.
         25    1    1    2    0    0 -0.93565655394E+02  0.51306344900E+02 -0.33709770519E+03  0.37502897987E+03  0.12500000000E+03 0.  0.
         25    1    1    2    0    0  0.83679623476E+02 -0.91778645737E+02 -0.15576392545E+03  0.23518715881E+03  0.12500000000E+03 0.  0.
</event>
<event>
 5    0  0.5590591E-005  0.3278978E+03  0.7546771E-02  0.1072071E+00
         21   -1    0    0  502  501  0.00000000000E+00  0.00000000000E+00  0.10494191930E+03  0.10494191930E+03  0.00000000000E+00 0.  1.
         21   -1    0    0  501  502 -0.00000000000E+00 -0.00000000000E+00 -0.10245377743E+04  0.10245377743E+04  0.00000000000E+00 0.  1.
         25    1    1    2    0    0  0.10659098192E+03 -0.84188732724E+02 -0.29606768468E+03  0.34889891668E+03  0.12500000000E+03 0.  0.
         25    1    1    2    0    0 -0.58501476160E+02 -0.14217307466E+03 -0.19652918930E+03  0.27907763815E+03  0.12500000000E+03 0.  0.
         25    1    1    2    0    0 -0.48089505765E+02  0.22636180739E+03 -0.42699898105E+03  0.50150313880E+03  0.12500000000E+03 0.  0.
</event>
<event>
 5    0  0.5590591E-005  0.2724346E+03  0.7546771E-02  0.1099894E+00
         21   -1    0    0  502  501  0.00000000000E+00  0.00000000000E+00  0.65452368976E+03  0.65452368976E+03  0.00000000000E+00 0. -1.
         21   -1    0    0  501  502 -0.00000000000E+00 -0.00000000000E+00 -0.11339637689E+03  0.11339637689E+03  0.00000000000E+00 0. -1.
         25    1    1    2    0    0  0.15191903693E+03  0.78470435919E+02  0.13107978484E+03  0.24908615596E+03  0.12500000000E+03 0.  0.
         25    1    1    2    0    0 -0.10065841724E+03 -0.29782117445E+02  0.28489941918E+03  0.32834702759E+03  0.12500000000E+03 0.  0.
         25    1    1    2    0    0 -0.51260619687E+02 -0.48688318474E+02  0.12514810885E+03  0.19048688310E+03  0.12500000000E+03 0.  0.
</event>
<event>
 5    0  0.5590591E-005  0.2533658E+03  0.7546771E-02  0.1111196E+00
         21   -1    0    0  502  501  0.00000000000E+00  0.00000000000E+00  0.17107557809E+03  0.17107557809E+03  0.00000000000E+00 0. -1.
         21   -1    0    0  501  502 -0.00000000000E+00 -0.00000000000E+00 -0.37523911188E+03  0.37523911188E+03  0.00000000000E+00 0. -1.
         25    1    1    2    0    0 -0.73538356284E+02 -0.11092919118E+03  0.19456917545E+02  0.18362120504E+03  0.12500000000E+03 0.  0.
         25    1    1    2    0    0  0.24254935727E+02  0.66895930357E+02 -0.12138066048E+03  0.18820635522E+03  0.12500000000E+03 0.  0.
         25    1    1    2    0    0  0.49283420557E+02  0.44033260826E+02 -0.10223979085E+03  0.17448712971E+03  0.12500000000E+03 0.  0.
</event>
<event>
 5    0  0.5590591E-005  0.4835656E+03  0.7546771E-02  0.1018160E+00
         21   -1    0    0  502  501  0.00000000000E+00  0.00000000000E+00  0.99348168014E+03  0.99348168014E+03  0.00000000000E+00 0.  1.
         21   -1    0    0  501  502 -0.00000000000E+00 -0.00000000000E+00 -0.23536994401E+03  0.23536994401E+03  0.00000000000E+00 0.  1.
         25    1    1    2    0    0 -0.22302703903E+01  0.12339922157E+03 -0.45648260857E+02  0.18149684766E+03  0.12500000000E+03 0.  0.
         25    1    1    2    0    0 -0.11197404825E+03 -0.86252351872E+02  0.84776911751E+03  0.86851317335E+03  0.12500000000E+03 0.  0.
         25    1    1    2    0    0  0.11420431864E+03 -0.37146869699E+02 -0.44009120528E+02  0.17884160314E+03  0.12500000000E+03 0.  0.
</event>
<event>
 5    0  0.5590591E-005  0.4473755E+03  0.7546771E-02  0.1028508E+00
         21   -1    0    0  502  501  0.00000000000E+00  0.00000000000E+00  0.98173894997E+02  0.98173894997E+02  0.00000000000E+00 0.  1.
         21   -1    0    0  501  502 -0.00000000000E+00 -0.00000000000E+00 -0.20386763806E+04  0.20386763806E+04  0.00000000000E+00 0.  1.
         25    1    1    2    0    0  0.24074924972E+03  0.18452952620E+03 -0.11105686817E+04  0.11580151743E+04  0.12500000000E+03 0.  0.
         25    1    1    2    0    0 -0.29689971165E+03 -0.15290610221E+03 -0.70788527297E+03  0.79262618842E+03  0.12500000000E+03 0.  0.
         25    1    1    2    0    0  0.56150461935E+02 -0.31623423988E+02 -0.12204853101E+03  0.18620891290E+03  0.12500000000E+03 0.  0.
</event>
<event>
 5    0  0.5590591E-005  0.4371940E+03  0.7546771E-02  0.1031611E+00
         21   -1    0    0  502  501  0.00000000000E+00  0.00000000000E+00  0.12926111574E+04  0.12926111574E+04  0.00000000000E+00 0.  1.
         21   -1    0    0  501  502 -0.00000000000E+00 -0.00000000000E+00 -0.14787014891E+03  0.14787014891E+03  0.00000000000E+00 0.  1.
         25    1    1    2    0    0 -0.27162673416E+03  0.13601492727E+02  0.27764081682E+03  0.40825911684E+03  0.12500000000E+03 0.  0.
         25    1    1    2    0    0  0.26572947510E+03  0.81827595815E+02  0.24667785187E+03  0.39215159311E+03  0.12500000000E+03 0.  0.
         25    1    1    2    0    0  0.58972590631E+01 -0.95429088542E+02  0.62042233980E+03  0.64007059636E+03  0.12500000000E+03 0.  0.
</event>
<event>
 5    0  0.5590591E-005  0.3076761E+03  0.7546771E-02  0.1081465E+00
         21   -1    0    0  502  501  0.00000000000E+00  0.00000000000E+00  0.36191140077E+03  0.36191140077E+03  0.00000000000E+00 0. -1.
         21   -1    0    0  501  502 -0.00000000000E+00 -0.00000000000E+00 -0.26156835441E+03  0.26156835441E+03  0.00000000000E+00 0. -1.
         25    1    1    2    0    0 -0.11490269343E+03 -0.14063649301E+03  0.15628691214E+02  0.22102151052E+03  0.12500000000E+03 0.  0.
         25    1    1    2    0    0  0.86202791862E+02 -0.16273941795E+02  0.12316116275E+03  0.19618724351E+03  0.12500000000E+03 0.  0.
         25    1    1    2    0    0  0.28699901569E+02  0.15691043480E+03 -0.38446807611E+02  0.20627100115E+03  0.12500000000E+03 0.  0.
</event>
<event>
 5    0  0.5590591E-005  0.3377301E+03  0.7546771E-02  0.1067767E+00
         21   -1    0    0  502  501  0.00000000000E+00  0.00000000000E+00  0.12755807355E+03  0.12755807355E+03  0.00000000000E+00 0. -1.
         21   -1    0    0  501  502 -0.00000000000E+00 -0.00000000000E+00 -0.89419381163E+03  0.89419381163E+03  0.00000000000E+00 0. -1.
         25    1    1    2    0    0  0.37526148068E+02  0.71388844007E+02 -0.38636615876E+02  0.15369569585E+03  0.12500000000E+03 0.  0.
         25    1    1    2    0    0 -0.16768616010E+03 -0.20446351501E+02 -0.61315616232E+03  0.64816832765E+03  0.12500000000E+03 0.  0.
         25    1    1    2    0    0  0.13016001203E+03 -0.50942492506E+02 -0.11484295988E+03  0.21988786167E+03  0.12500000000E+03 0.  0.
</event>
<event>
 5    0  0.5590591E-005  0.2502497E+03  0.7546771E-02  0.1113147E+00
         21   -1    0    0  502  501  0.00000000000E+00  0.00000000000E+00  0.34463931071E+03  0.34463931071E+03  0.00000000000E+00 0.  1.
         21   -1    0    0  501  502 -0.00000000000E+00 -0.00000000000E+00 -0.18171152831E+03  0.18171152831E+03  0.00000000000E+00 0.  1.
         25    1    1    2    0    0  0.52055780005E+02 -0.45877370604E+02  0.37606132420E+02  0.14783016797E+03  0.12500000000E+03 0.  0.
         25    1    1    2    0    0  0.94541464471E+02  0.49730846636E+02  0.60944076503E+02  0.17535799404E+03  0.12500000000E+03 0.  0.
         25    1    1    2    0    0 -0.14659724448E+03 -0.38534760325E+01  0.64377573481E+02  0.20316267702E+03  0.12500000000E+03 0.  0.
</event>
<event>
 5    0  0.5590591E-005  0.3711743E+03  0.7546771E-02  0.1054245E+00
         21   -1    0    0  502  501  0.00000000000E+00  0.00000000000E+00  0.47706946758E+03  0.47706946758E+03  0.00000000000E+00 0.  1.
         21   -1    0    0  501  502 -0.00000000000E+00 -0.00000000000E+00 -0.28878468890E+03  0.28878468890E+03  0.00000000000E+00 0.  1.
         25    1    1    2    0    0 -0.38588711957E+02  0.45657965898E+01  0.96269736029E+02  0.16248937585E+03  0.12500000000E+03 0.  0.
         25    1    1    2    0    0 -0.19390078186E+03  0.16195272639E+03  0.70344154058E+02  0.29051591833E+03  0.12500000000E+03 0.  0.
         25    1    1    2    0    0  0.23248949382E+03 -0.16651852298E+03  0.21670888592E+02  0.31284886231E+03  0.12500000000E+03 0.  0.
</event>
<event>
 5    0  0.5590591E-005  0.2700766E+03  0.7546771E-02  0.1101236E+00
         21   -1    0    0  502  501  0.00000000000E+00  0.00000000000E+00  0.87504415630E+02  0.87504415630E+02  0.00000000000E+00 0.  1.
         21   -1    0    0  501  502 -0.00000000000E+00 -0.00000000000E+00 -0.83357384435E+03  0.83357384435E+03  0.00000000000E+00 0.  1.
         25    1    1    2    0    0 -0.31092374638E+02  0.71225426037E+02 -0.21715973184E+03  0.26234165931E+03  0.12500000000E+03 0.  0.
         25    1    1    2    0    0 -0.80608208531E+02 -0.42357274644E+02 -0.44085318120E+03  0.46719198342E+03  0.12500000000E+03 0.  0.
         25    1    1    2    0    0  0.11170058317E+03 -0.28868151392E+02 -0.88056515679E+02  0.19154461725E+03  0.12500000000E+03 0.  0.
</event>
<event>
 5    0  0.5590591E-005  0.3242662E+03  0.7546771E-02  0.1073702E+00
         21   -1    0    0  502  501  0.00000000000E+00  0.00000000000E+00  0.64001063641E+03  0.64001063641E+03  0.00000000000E+00 0. -1.
         21   -1    0    0  501  502 -0.00000000000E+00 -0.00000000000E+00 -0.16429192727E+03  0.16429192727E+03  0.00000000000E+00 0.  1.
         25    1    1    2    0    0 -0.12595426085E+03 -0.71588906604E+01  0.16240966954E+03  0.24066081173E+03  0.12500000000E+03 0.  0.
         25    1    1    2    0    0 -0.89884509357E+02  0.69241016657E+02  0.14414748010E+02  0.16942942003E+03  0.12500000000E+03 0.  0.
         25    1    1    2    0    0  0.21583877021E+03 -0.62082125997E+02  0.29889429159E+03  0.39421233193E+03  0.12500000000E+03 0.  0.
</event>
<event>
 5    0  0.5590591E-005  0.2171414E+03  0.7546771E-02  0.1136032E+00
         21   -1    0    0  502  501  0.00000000000E+00  0.00000000000E+00  0.15743189853E+04  0.15743189853E+04  0.00000000000E+00 0. -1.
         21   -1    0    0  501  502 -0.00000000000E+00 -0.00000000000E+00 -0.29949705236E+02  0.29949705236E+02  0.00000000000E+00 0. -1.
         25    1    1    2    0    0 -0.21898585409E+02 -0.18411086570E+02  0.86369542574E+03  0.87316281677E+03  0.12500000000E+03 0.  0.
         25    1    1    2    0    0  0.23147476406E+02  0.21447530916E+02  0.23291318206E+03  0.26621298358E+03  0.12500000000E+03 0.  0.
         25    1    1    2    0    0 -0.12488909972E+01 -0.30364443460E+01  0.44776067230E+03  0.46489289023E+03  0.12500000000E+03 0.  0.
</event>
<event>
 5    0  0.5590591E-005  0.3503445E+03  0.7546771E-02  0.1062474E+00
         21   -1    0    0  502  501  0.00000000000E+00  0.00000000000E+00  0.95181483433E+03  0.95181483433E+03  0.00000000000E+00 0. -1.
         21   -1    0    0  501  502 -0.00000000000E+00 -0.00000000000E+00 -0.12895497570E+03  0.12895497570E+03  0.00000000000E+00 0. -1.
         25    1    1    2    0    0  0.11011955540E+03  0.13906621162E+03  0.43823261087E+03  0.48901794335E+03  0.12500000000E+03 0.  0.
         25    1    1    2    0    0 -0.21303743424E+03 -0.11996987188E+03  0.17278513320E+03  0.32443400069E+03  0.12500000000E+03 0.  0.
         25    1    1    2    0    0  0.10291787885E+03 -0.19096339741E+02  0.21184211456E+03  0.26731786599E+03  0.12500000000E+03 0.  0.
</event>
<event>
 5    0  0.5590591E-005  0.3712792E+03  0.7546771E-02  0.1054205E+00
         21   -1    0    0  502  501  0.00000000000E+00  0.00000000000E+00  0.63949910177E+02  0.63949910177E+02  0.00000000000E+00 0.  1.
         21   -1    0    0  501  502 -0.00000000000E+00 -0.00000000000E+00 -0.21555659667E+04  0.21555659667E+04  0.00000000000E+00 0. -1.
         25    1    1    2    0    0 -0.65552991773E+02  0.20962452421E+03 -0.28232632258E+03  0.37891000027E+03  0.12500000000E+03 0.  0.
         25    1    1    2    0    0  0.36682611137E+02 -0.14245024550E+03 -0.10675502746E+04  0.10848623301E+04  0.12500000000E+03 0.  0.
         25    1    1    2    0    0  0.28870380636E+02 -0.67174278707E+02 -0.74173945930E+03  0.75574354650E+03  0.12500000000E+03 0.  0.
</event>
<event>
 5    0  0.5590591E-005  0.2959469E+03  0.7546771E-02  0.1087284E+00
         21   -1    0    0  502  501  0.00000000000E+00  0.00000000000E+00  0.37830299011E+03  0.37830299011E+03  0.00000000000E+00 0.  1.
         21   -1    0    0  501  502 -0.00000000000E+00 -0.00000000000E+00 -0.23151956901E+03  0.23151956901E+03  0.00000000000E+00 0.  1.
         25    1    1    2    0    0  0.12103324712E+03 -0.54389306111E+02  0.63984009547E+02  0.19319988873E+03  0.12500000000E+03 0.  0.
         25    1    1    2    0    0 -0.14148049785E+03 -0.91159657192E+02  0.77788129916E+02  0.22361307548E+03  0.12500000000E+03 0.  0.
         25    1    1    2    0    0  0.20447250733E+02  0.14554896330E+03  0.50112816382E+01  0.19300959490E+03  0.12500000000E+03 0.  0.
</event>
<event>
 5    0  0.5590591E-005  0.3049791E+03  0.7546771E-02  0.1082778E+00
         21   -1    0    0  502  501  0.00000000000E+00  0.00000000000E+00  0.44899863667E+03  0.44899863667E+03  0.00000000000E+00 0.  1.
         21   -1    0    0  501  502 -0.00000000000E+00 -0.00000000000E+00 -0.20715482718E+03  0.20715482718E+03  0.00000000000E+00 0.  1.
         25    1    1    2    0    0  0.32015390437E+02  0.15736234817E+03  0.13463069272E+03  0.24400474846E+03  0.12500000000E+03 0.  0.
         25    1    1    2    0    0 -0.33527505794E+02 -0.10932119454E+03  0.19011387584E+03  0.25464387486E+03  0.12500000000E+03 0.  0.
         25    1    1    2    0    0  0.15121153574E+01 -0.48041153636E+02 -0.82900759063E+02  0.15750484052E+03  0.12500000000E+03 0.  0.
</event>
<event>
 5    0  0.5590591E-005  0.2734333E+03  0.7546771E-02  0.1099331E+00
         21   -1    0    0  502  501  0.00000000000E+00  0.00000000000E+00  0.72442766311E+03  0.72442766311E+03  0.00000000000E+00 0. -1.
         21   -1    0    0  501  502 -0.00000000000E+00 -0.00000000000E+00 -0.10320668413E+03  0.10320668413E+03  0.00000000000E+00 0. -1.
         25    1    1    2    0    0 -0.73607231909E+01  0.10591383306E+03  0.44319581959E+03  0.47256687863E+03  0.12500000000E+03 0.  0.
         25    1    1    2    0    0  0.72275283885E+02 -0.36185057530E+02  0.10223116704E+03  0.18058041578E+03  0.12500000000E+03 0.  0.
         25    1    1    2    0    0 -0.64914560694E+02 -0.69728775532E+02  0.75793992350E+02  0.17448705283E+03  0.12500000000E+03 0.  0.
</event>
<event>
 5    0  0.6774790E-005  0.2845359E+03  0.7546771E-02  0.1093237E+00
         21   -1    0    0  502  501  0.00000000000E+00  0.00000000000E+00  0.15494141125E+03  0.15494141125E+03  0.00000000000E+00 0. -1.
         21   -1    0    0  501  502 -0.00000000000E+00 -0.00000000000E+00 -0.52252464950E+03  0.52252464950E+03  0.00000000000E+00 0. -1.
         25    1    1    2    0    0 -0.26901245174E+01 -0.76539154604E+02  0.14314041684E+02  0.14729348508E+03  0.12500000000E+03 0.  0.
         25    1    1    2    0    0  0.83272275474E+01  0.15319625447E+03 -0.30742758643E+03  0.36561613203E+03  0.12500000000E+03 0.  0.
         25    1    1    2    0    0 -0.56371030301E+01 -0.76657099869E+02 -0.74469693506E+02  0.16455644364E+03  0.12500000000E+03 0.  0.
</event>
<event>
 5    0  0.5590591E-005  0.2891402E+03  0.7546771E-02  0.1090799E+00
         21   -1    0    0  502  501  0.00000000000E+00  0.00000000000E+00  0.92595517940E+02  0.92595517940E+02  0.00000000000E+00 0. -1.
         21   -1    0    0  501  502 -0.00000000000E+00 -0.00000000000E+00 -0.90287340973E+03  0.90287340973E+03  0.00000000000E+00 0. -1.
         25    1    1    2    0    0  0.71020547280E+02 -0.84657807883E+02 -0.11387816053E+03  0.20200024261E+03  0.12500000000E+03 0.  0.
         25    1    1    2    0    0  0.63228386675E+02  0.78075412926E+01 -0.47763365886E+03  0.49781291532E+03  0.12500000000E+03 0.  0.
         25    1    1    2    0    0 -0.13424893395E+03  0.76850266590E+02 -0.21876607240E+03  0.29565576973E+03  0.12500000000E+03 0.  0.
</event>
<event>
 5    0  0.5590591E-005  0.2769877E+03  0.7546771E-02  0.1097346E+00
         21   -1    0    0  502  501  0.00000000000E+00  0.00000000000E+00  0.76174229320E+02  0.76174229320E+02  0.00000000000E+00 0.  1.
         21   -1    0    0  501  502 -0.00000000000E+00 -0.00000000000E+00 -0.10071938032E+04  0.10071938032E+04  0.00000000000E+00 0.  1.
         25    1    1    2    0    0  0.77640932469E+02 -0.16690191185E+03 -0.27098057507E+03  0.35062777220E+03  0.12500000000E+03 0.  0.
         25    1    1    2    0    0 -0.16182403734E+02  0.61677507576E+02 -0.24243310544E+03  0.28011568279E+03  0.12500000000E+03 0.  0.
         25    1    1    2    0    0 -0.61458528735E+02  0.10522440427E+03 -0.41760589337E+03  0.45262457753E+03  0.12500000000E+03 0.  0.
</event>
<event>
 5    0  0.5590591E-005  0.4003825E+03  0.7546771E-02  0.1043647E+00
         21   -1    0    0  502  501  0.00000000000E+00  0.00000000000E+00  0.25425629065E+03  0.25425629065E+03  0.00000000000E+00 0.  1.
         21   -1    0    0  501  502 -0.00000000000E+00 -0.00000000000E+00 -0.63049034625E+03  0.63049034625E+03  0.00000000000E+00 0.  1.
         25    1    1    2    0    0 -0.71316770547E+02  0.11631512814E+02  0.12233809911E+03  0.18924318837E+03  0.12500000000E+03 0.  0.
         25    1    1    2    0    0  0.55779597910E+02 -0.20728180919E+03 -0.21368422282E+03  0.32766302667E+03  0.12500000000E+03 0.  0.
         25    1    1    2    0    0  0.15537172637E+02  0.19565029638E+03 -0.28488793189E+03  0.36784042185E+03  0.12500000000E+03 0.  0.
</event>
<event>
 5    0  0.5590591E-005  0.2933160E+03  0.7546771E-02  0.1088630E+00
         21   -1    0    0  502  501  0.00000000000E+00  0.00000000000E+00  0.11162698107E+03  0.11162698107E+03  0.00000000000E+00 0. -1.
         21   -1    0    0  501  502 -0.00000000000E+00 -0.00000000000E+00 -0.77072988210E+03  0.77072988210E+03  0.00000000000E+00 0. -1.
         25    1    1    2    0    0 -0.89641747041E+01  0.85428986163E+02 -0.41187261941E+03  0.43891060904E+03  0.12500000000E+03 0.  0.
         25    1    1    2    0    0  0.62698403500E+01  0.73349615084E+02 -0.32682996518E+02  0.14870324540E+03  0.12500000000E+03 0.  0.
         25    1    1    2    0    0  0.26943343541E+01 -0.15877860125E+03 -0.21454728510E+03  0.29474300873E+03  0.12500000000E+03 0.  0.
</event>
<event>
 5    0  0.5590591E-005  0.2901254E+03  0.7546771E-02  0.1090284E+00
         21   -1    0    0  502  501  0.00000000000E+00  0.00000000000E+00  0.24479142326E+03  0.24479142326E+03  0.00000000000E+00 0.  1.
         21   -1    0    0  501  502 -0.00000000000E+00 -0.00000000000E+00 -0.34385508649E+03  0.34385508649E+03  0.00000000000E+00 0.  1.
         25    1    1    2    0    0 -0.67940740433E+02  0.83490812430E+02 -0.78627756687E+02  0.18274020929E+03  0.12500000000E+03 0.  0.
         25    1    1    2    0    0 -0.38177306818E+02 -0.13875275969E+03 -0.10023007289E+03  0.21536225897E+03  0.12500000000E+03 0.  0.
         25    1    1    2    0    0  0.10611804725E+03  0.55261947257E+02  0.79794166337E+02  0.19054404149E+03  0.12500000000E+03 0.  0.
</event>
<event>
 5    0  0.5590591E-005  0.4839242E+03  0.7546771E-02  0.1018062E+00
         21   -1    0    0  502  501  0.00000000000E+00  0.00000000000E+00  0.31756725425E+03  0.31756725425E+03  0.00000000000E+00 0.  1.
         21   -1    0    0  501  502 -0.00000000000E+00 -0.00000000000E+00 -0.73742699548E+03  0.73742699548E+03  0.00000000000E+00 0.  1.
         25    1    1    2    0    0  0.44633504187E+00  0.30664643176E+03 -0.18813875842E+03  0.38085880027E+03  0.12500000000E+03 0.  0.
         25    1    1    2    0    0  0.57021016828E+02 -0.33499927639E+03  0.43953209429E+02  0.36473661204E+03  0.12500000000E+03 0.  0.
         25    1    1    2    0    0 -0.57467351869E+02  0.28352844633E+02 -0.27567419223E+03  0.30939883741E+03  0.12500000000E+03 0.  0.
</event>
<event>
 5    0  0.5590591E-005  0.3466524E+03  0.7546771E-02  0.1063997E+00
         21   -1    0    0  502  501  0.00000000000E+00  0.00000000000E+00  0.69662124648E+03  0.69662124648E+03  0.00000000000E+00 0. -1.
         21   -1    0    0  501  502 -0.00000000000E+00 -0.00000000000E+00 -0.17250103249E+03  0.17250103249E+03  0.00000000000E+00 0. -1.
         25    1    1    2    0    0  0.82385883085E+02 -0.69814638397E+02  0.22147852582E+03  0.27629559328E+03  0.12500000000E+03 0.  0.
         25    1    1    2    0    0  0.34999150582E+02 -0.14478768138E+03  0.24388039498E+03  0.31191514916E+03  0.12500000000E+03 0.  0.
         25    1    1    2    0    0 -0.11738503367E+03  0.21460231977E+03  0.58761293196E+02  0.28091153654E+03  0.12500000000E+03 0.  0.
</event>
<event>
 5    0  0.5590591E-005  0.4939959E+03  0.7546771E-02  0.1015358E+00
         21   -1    0    0  502  501  0.00000000000E+00  0.00000000000E+00  0.13672751256E+04  0.13672751256E+04  0.00000000000E+00 0. -1.
         21   -1    0    0  501  502 -0.00000000000E+00 -0.00000000000E+00 -0.17848049783E+03  0.17848049783E+03  0.00000000000E+00 0. -1.
         25    1    1    2    0    0  0.20327414447E+03  0.14351091281E+03  0.42150860054E+03  0.50518339268E+03  0.12500000000E+03 0.  0.
         25    1    1    2    0    0 -0.23654808637E+02  0.21320477314E+02  0.75541483379E+03  0.76634893087E+03  0.12500000000E+03 0.  0.
         25    1    1    2    0    0 -0.17961933583E+03 -0.16483139012E+03  0.11871193437E+02  0.27422329990E+03  0.12500000000E+03 0.  0.
</event>
<event>
 5    0  0.5590591E-005  0.1995482E+03  0.7546771E-02  0.1150121E+00
         21   -1    0    0  502  501  0.00000000000E+00  0.00000000000E+00  0.15067463828E+03  0.15067463828E+03  0.00000000000E+00 0.  1.
         21   -1    0    0  501  502 -0.00000000000E+00 -0.00000000000E+00 -0.26427475975E+03  0.26427475975E+03  0.00000000000E+00 0.  1.
         25    1    1    2    0    0  0.40912311612E+02  0.43496752212E+02 -0.29015902351E+02  0.14153694671E+03  0.12500000000E+03 0.  0.
         25    1    1    2    0    0 -0.90260120354E+01 -0.24806727403E+02 -0.58339356935E+02  0.14044686962E+03  0.12500000000E+03 0.  0.
         25    1    1    2    0    0 -0.31886299576E+02 -0.18690024809E+02 -0.26244862179E+02  0.13296558171E+03  0.12500000000E+03 0.  0.
</event>
<event>
 5    0  0.5590591E-005  0.3325386E+03  0.7546771E-02  0.1070019E+00
         21   -1    0    0  502  501  0.00000000000E+00  0.00000000000E+00  0.20482636413E+03  0.20482636413E+03  0.00000000000E+00 0. -1.
         21   -1    0    0  501  502 -0.00000000000E+00 -0.00000000000E+00 -0.53988139342E+03  0.53988139342E+03  0.00000000000E+00 0. -1.
         25    1    1    2    0    0 -0.17898730047E+03 -0.14920701944E+03 -0.20510638026E+03  0.33465327670E+03  0.12500000000E+03 0.  0.
         25    1    1    2    0    0  0.16114333537E+03  0.48287502821E+02 -0.11941879141E+02  0.20992014182E+03  0.12500000000E+03 0.  0.
         25    1    1    2    0    0  0.17843965101E+02  0.10091951662E+03 -0.11800676989E+03  0.20013433904E+03  0.12500000000E+03 0.  0.
</event>
<event>
 5    0  0.5590591E-005  0.5684051E+03  0.7546771E-02  0.9973214E-01
         21   -1    0    0  502  501  0.00000000000E+00  0.00000000000E+00  0.73942237093E+03  0.73942237093E+03  0.00000000000E+00 0.  1.
         21   -1    0    0  501  502 -0.00000000000E+00 -0.00000000000E+00 -0.43694158965E+03  0.43694158965E+03  0.00000000000E+00 0.  1.
         25    1    1    2    0    0 -0.38607529794E+03  0.20848645126E+03  0.29110187474E+03  0.54118946545E+03  0.12500000000E+03 0.  0.
         25    1    1    2    0    0  0.38886070526E+03 -0.26451272629E+03 -0.41325100319E+02  0.48837730740E+03  0.12500000000E+03 0.  0.
         25    1    1    2    0    0 -0.27854073214E+01  0.56026275033E+02  0.52704006852E+02  0.14679718773E+03  0.12500000000E+03 0.  0.
</event>
<event>
 5    0  0.5656130E-005  0.2647899E+03  0.7546771E-02  0.1104299E+00
         21   -1    0    0  502  501  0.00000000000E+00  0.00000000000E+00  0.46554139364E+03  0.46554139364E+03  0.00000000000E+00 0. -1.
         21   -1    0    0  501  502 -0.00000000000E+00 -0.00000000000E+00 -0.15060679404E+03  0.15060679404E+03  0.00000000000E+00 0. -1.
         25    1    1    2    0    0 -0.20828442582E+02 -0.87067934769E+01  0.11186608026E+03  0.16925912733E+03  0.12500000000E+03 0.  0.
         25    1    1    2    0    0 -0.11859037879E+02 -0.18757000111E+02 -0.68968632935E+02  0.14447883638E+03  0.12500000000E+03 0.  0.
         25    1    1    2    0    0  0.32687480460E+02  0.27463793588E+02  0.27203715228E+03  0.30241022396E+03  0.12500000000E+03 0.  0.
</event>
<event>
 5    0  0.5590591E-005  0.4212253E+03  0.7546771E-02  0.1036668E+00
         21   -1    0    0  502  501  0.00000000000E+00  0.00000000000E+00  0.77906736983E+03  0.77906736983E+03  0.00000000000E+00 0.  1.
         21   -1    0    0  501  502 -0.00000000000E+00 -0.00000000000E+00 -0.22774759276E+03  0.22774759276E+03  0.00000000000E+00 0.  1.
         25    1    1    2    0    0  0.13910127137E+03 -0.23165817798E+02 -0.96295116205E+02  0.21162128488E+03  0.12500000000E+03 0.  0.
         25    1    1    2    0    0 -0.14436323383E+03  0.12691172745E+03  0.15577956154E+03  0.27719957006E+03  0.12500000000E+03 0.  0.
         25    1    1    2    0    0  0.52619624662E+01 -0.10374590965E+03  0.49183533173E+03  0.51799410765E+03  0.12500000000E+03 0.  0.
</event>
<event>
 5    0  0.5590591E-005  0.2586720E+03  0.7546771E-02  0.1107944E+00
         21   -1    0    0  502  501  0.00000000000E+00  0.00000000000E+00  0.69676916728E+02  0.69676916728E+02  0.00000000000E+00 0. -1.
         21   -1    0    0  501  502 -0.00000000000E+00 -0.00000000000E+00 -0.96030651215E+03  0.96030651215E+03  0.00000000000E+00 0. -1.
         25    1    1    2    0    0 -0.29792427757E+02  0.13305929892E+03 -0.38003996986E+03  0.42266741591E+03  0.12500000000E+03 0.  0.
         25    1    1    2    0    0  0.18518696524E+02  0.22902279306E+02 -0.18878612794E+03  0.22832577301E+03  0.12500000000E+03 0.  0.
         25    1    1    2    0    0  0.11273731232E+02 -0.15596157823E+03 -0.32180349762E+03  0.37899023996E+03  0.12500000000E+03 0.  0.
</event>
<event>
 5    0  0.5590591E-005  0.2443754E+03  0.7546771E-02  0.1116912E+00
         21   -1    0    0  502  501  0.00000000000E+00  0.00000000000E+00  0.64377427865E+02  0.64377427865E+02  0.00000000000E+00 0.  1.
         21   -1    0    0  501  502 -0.00000000000E+00 -0.00000000000E+00 -0.92764420573E+03  0.92764420573E+03  0.00000000000E+00 0.  1.
         25    1    1    2    0    0  0.11877525996E+03  0.11381793970E+02 -0.33943881200E+03  0.38089475542E+03  0.12500000000E+03 0.  0.
         25    1    1    2    0    0 -0.84045999586E+02  0.35701855983E+01 -0.13993478279E+03  0.20562883968E+03  0.12500000000E+03 0.  0.
         25    1    1    2    0    0 -0.34729260374E+02 -0.14951979568E+02 -0.38389318307E+03  0.40549803850E+03  0.12500000000E+03 0.  0.
</event>
<event>
 5    0  0.5590591E-005  0.2493006E+03  0.7546771E-02  0.1113748E+00
         21   -1    0    0  502  501  0.00000000000E+00  0.00000000000E+00  0.35183119509E+03  0.35183119509E+03  0.00000000000E+00 0.  1.
         21   -1    0    0  501  502 -0.00000000000E+00 -0.00000000000E+00 -0.17664941512E+03  0.17664941512E+03  0.00000000000E+00 0.  1.
         25    1    1    2    0    0 -0.12331034594E+02  0.22144663006E+02  0.88803158089E+02  0.15541377481E+03  0.12500000000E+03 0.  0.
         25    1    1    2    0    0  0.30585163369E+02  0.99768449295E+02  0.10915965461E+03  0.19603577706E+03  0.12500000000E+03 0.  0.
         25    1    1    2    0    0 -0.18254128775E+02 -0.12191311230E+03 -0.22781032723E+02  0.17703105835E+03  0.12500000000E+03 0.  0.
</event>
<event>
 5    0  0.5590591E-005  0.3443806E+03  0.7546771E-02  0.1064945E+00
         21   -1    0    0  502  501  0.00000000000E+00  0.00000000000E+00  0.33690646983E+03  0.33690646983E+03  0.00000000000E+00 0. -1.
         21   -1    0    0  501  502 -0.00000000000E+00 -0.00000000000E+00 -0.35202056141E+03  0.35202056141E+03  0.00000000000E+00 0. -1.
         25    1    1    2    0    0  0.12455349103E+03  0.13613899928E+03  0.80481535953E+02  0.23695923043E+03  0.12500000000E+03 0.  0.
         25    1    1    2    0    0 -0.16200623941E+03  0.50164932715E+02 -0.74774976650E+02  0.22355947579E+03  0.12500000000E+03 0.  0.
         25    1    1    2    0    0  0.37452748376E+02 -0.18630393200E+03 -0.20820650886E+02  0.22840832503E+03  0.12500000000E+03 0.  0.
</event>
<event>
 5    0  0.5590591E-005  0.2865377E+03  0.7546771E-02  0.1092171E+00
         21   -1    0    0  502  501  0.00000000000E+00  0.00000000000E+00  0.19439657697E+03  0.19439657697E+03  0.00000000000E+00 0. -1.
         21   -1    0    0  501  502 -0.00000000000E+00 -0.00000000000E+00 -0.42235230031E+03  0.42235230031E+03  0.00000000000E+00 0. -1.
         25    1    1    2    0    0  0.55076819429E+02 -0.16656508316E+02 -0.10330546555E+03  0.17206950491E+03  0.12500000000E+03 0.  0.
         25    1    1    2    0    0 -0.12150606960E+03 -0.13116157998E+03 -0.94739696982E+02  0.23783964177E+03  0.12500000000E+03 0.  0.
         25    1    1    2    0    0  0.66429250174E+02  0.14781808829E+03 -0.29910560809E+02  0.20683973060E+03  0.12500000000E+03 0.  0.
</event>
<event>
 5    0  0.5590591E-005  0.2668611E+03  0.7546771E-02  0.1103090E+00
         21   -1    0    0  502  501  0.00000000000E+00  0.00000000000E+00  0.78210654320E+02  0.78210654320E+02  0.00000000000E+00 0.  1.
         21   -1    0    0  501  502 -0.00000000000E+00 -0.00000000000E+00 -0.91055156936E+03  0.91055156936E+03  0.00000000000E+00 0.  1.
         25    1    1    2    0    0 -0.30380361357E+02  0.10148893168E+02 -0.22803571056E+03  0.26201383872E+03  0.12500000000E+03 0.  0.
         25    1    1    2    0    0 -0.85761394894E+02 -0.10150654047E+03 -0.42669009817E+03  0.46405606826E+03  0.12500000000E+03 0.  0.
         25    1    1    2    0    0  0.11614175625E+03  0.91357647304E+02 -0.17761510631E+03  0.26269231671E+03  0.12500000000E+03 0.  0.
</event>
<event>
 5    0  0.5590591E-005  0.2566362E+03  0.7546771E-02  0.1109181E+00
         21   -1    0    0  502  501  0.00000000000E+00  0.00000000000E+00  0.65475342393E+03  0.65475342393E+03  0.00000000000E+00 0.  1.
         21   -1    0    0  501  502 -0.00000000000E+00 -0.00000000000E+00 -0.10059075570E+03  0.10059075570E+03  0.00000000000E+00 0.  1.
         25    1    1    2    0    0  0.81493162550E+02  0.63645058486E+02  0.90464906104E+02  0.18574371658E+03  0.12500000000E+03 0.  0.
         25    1    1    2    0    0 -0.59994484967E+02  0.31589133053E+02  0.33973419455E+03  0.36829544459E+03  0.12500000000E+03 0.  0.
         25    1    1    2    0    0 -0.21498677583E+02 -0.95234191539E+02  0.12396356757E+03  0.20130501847E+03  0.12500000000E+03 0.  0.
</event>
<event>
 5    0  0.5590591E-005  0.2759558E+03  0.7546771E-02  0.1097918E+00
         21   -1    0    0  502  501  0.00000000000E+00  0.00000000000E+00  0.79221585884E+02  0.79221585884E+02  0.00000000000E+00 0.  1.
         21   -1    0    0  501  502 -0.00000000000E+00 -0.00000000000E+00 -0.96124847861E+03  0.96124847861E+03  0.00000000000E+00 0.  1.
         25    1    1    2    0    0  0.37057571419E+02  0.92977560088E+01 -0.39932291700E+03  0.42017080326E+03  0.12500000000E+03 0.  0.
         25    1    1    2    0    0  0.94044738440E+02  0.91794189782E+02 -0.24455529402E+03  0.30447147311E+03  0.12500000000E+03 0.  0.
         25    1    1    2    0    0 -0.13110230986E+03 -0.10109194579E+03 -0.23814868170E+03  0.31582778813E+03  0.12500000000E+03 0.  0.
</event>
<event>
 5    0  0.5590591E-005  0.2062774E+03  0.7546771E-02  0.1144548E+00
         21   -1    0    0  502  501  0.00000000000E+00  0.00000000000E+00  0.36225007955E+03  0.36225007955E+03  0.00000000000E+00 0.  1.
         21   -1    0    0  501  502 -0.00000000000E+00 -0.00000000000E+00 -0.11746128291E+03  0.11746128291E+03  0.00000000000E+00 0.  1.
         25    1    1    2    0    0  0.49366422407E+02 -0.20758620089E+02  0.14501576545E+03  0.19880275702E+03  0.12500000000E+03 0.  0.
         25    1    1    2    0    0  0.47199802212E+01  0.14954893112E+02  0.41332831349E+02  0.13258706569E+03  0.12500000000E+03 0.  0.
         25    1    1    2    0    0 -0.54086402629E+02  0.58037269766E+01  0.58440199836E+02  0.14832153975E+03  0.12500000000E+03 0.  0.
</event>
<event>
 5    0  0.5590591E-005  0.3431862E+03  0.7546771E-02  0.1065447E+00
         21   -1    0    0  502  501  0.00000000000E+00  0.00000000000E+00  0.22952558759E+03  0.22952558759E+03  0.00000000000E+00 0.  1.
         21   -1    0    0  501  502 -0.00000000000E+00 -0.00000000000E+00 -0.51313121614E+03  0.51313121614E+03  0.00000000000E+00 0.  1.
         25    1    1    2    0    0 -0.54476639947E+02 -0.16721960343E+03  0.64688791132E+02  0.22525483295E+03  0.12500000000E+03 0.  0.
         25    1    1    2    0    0  0.11581281815E+03  0.17199886666E+03 -0.20124283645E+03  0.31483312755E+03  0.12500000000E+03 0.  0.
         25    1    1    2    0    0 -0.61336178207E+02 -0.47792632303E+01 -0.14705158323E+03  0.20256884323E+03  0.12500000000E+03 0.  0.
</event>
<event>
 5    0  0.5590591E-005  0.2354440E+03  0.7546771E-02  0.1122866E+00
         21   -1    0    0  502  501  0.00000000000E+00  0.00000000000E+00  0.98033198458E+02  0.98033198458E+02  0.00000000000E+00 0. -1.
         21   -1    0    0  501  502 -0.00000000000E+00 -0.00000000000E+00 -0.56546017030E+03  0.56546017030E+03  0.00000000000E+00 0. -1.
         25    1    1    2    0    0 -0.10600879393E+03  0.40303560740E+02 -0.85248823493E+02  0.18908887673E+03  0.12500000000E+03 0.  0.
         25    1    1    2    0    0  0.67917386137E+02  0.61216791681E+01 -0.19317393901E+03  0.23998211810E+03  0.12500000000E+03 0.  0.
         25    1    1    2    0    0  0.38091407788E+02 -0.46425239908E+02 -0.18900420934E+03  0.23442237392E+03  0.12500000000E+03 0.  0.
</event>
<event>
 5    0  0.5590591E-005  0.2072057E+03  0.7546771E-02  0.1143798E+00
         21   -1    0    0  502  501  0.00000000000E+00  0.00000000000E+00  0.26529056087E+03  0.26529056087E+03  0.00000000000E+00 0. -1.
         21   -1    0    0  501  502 -0.00000000000E+00 -0.00000000000E+00 -0.16183836008E+03  0.16183836008E+03  0.00000000000E+00 0. -1.
         25    1    1    2    0    0 -0.19265006904E+02 -0.23155160605E+02 -0.53295436229E+01  0.12868840658E+03  0.12500000000E+03 0.  0.
         25    1    1    2    0    0  0.65703390566E+02  0.18972636563E+02  0.74063129063E+02  0.16058407006E+03  0.12500000000E+03 0.  0.
         25    1    1    2    0    0 -0.46438383662E+02  0.41825240425E+01  0.34718615354E+02  0.13785644431E+03  0.12500000000E+03 0.  0.
</event>
<event>
 5    0  0.5643406E-005  0.2900075E+03  0.7546771E-02  0.1090345E+00
         21   -1    0    0  502  501  0.00000000000E+00  0.00000000000E+00  0.89817552072E+02  0.89817552072E+02  0.00000000000E+00 0. -1.
         21   -1    0    0  501  502 -0.00000000000E+00 -0.00000000000E+00 -0.93639072950E+03  0.93639072950E+03  0.00000000000E+00 0. -1.
         25    1    1    2    0    0  0.10965425734E+03  0.49597825631E+02 -0.34467817679E+03  0.38589123599E+03  0.12500000000E+03 0.  0.
         25    1    1    2    0    0 -0.13981221733E+03 -0.72599839251E+02 -0.11433415596E+03  0.23133415657E+03  0.12500000000E+03 0.  0.
         25    1    1    2    0    0  0.30157959995E+02  0.23002013621E+02 -0.38756084468E+03  0.40898288902E+03  0.12500000000E+03 0.  0.
</event>
<event>
 5    0  0.5590591E-005  0.4674851E+03  0.7546771E-02  0.1022632E+00
         21   -1    0    0  502  501  0.00000000000E+00  0.00000000000E+00  0.46571366692E+03  0.46571366692E+03  0.00000000000E+00 0.  1.
         21   -1    0    0  501  502 -0.00000000000E+00 -0.00000000000E+00 -0.46926332740E+03  0.46926332740E+03  0.00000000000E+00 0.  1.
         25    1    1    2    0    0  0.98600833131E+02  0.94032454852E+02 -0.38409209093E+03  0.42628155153E+03  0.12500000000E+03 0.  0.
         25    1    1    2    0    0  0.14185235750E+02  0.10317668715E+02  0.22037297699E+03  0.25396244642E+03  0.12500000000E+03 0.  0.
         25    1    1    2    0    0 -0.11278606888E+03 -0.10435012357E+03  0.16016945345E+03  0.25473299637E+03  0.12500000000E+03 0.  0.
</event>
<event>
 5    0  0.5590591E-005  0.2634014E+03  0.7546771E-02  0.1105117E+00
         21   -1    0    0  502  501  0.00000000000E+00  0.00000000000E+00  0.48154541278E+02  0.48154541278E+02  0.00000000000E+00 0. -1.
         21   -1    0    0  501  502 -0.00000000000E+00 -0.00000000000E+00 -0.14407840899E+04  0.14407840899E+04  0.00000000000E+00 0. -1.
         25    1    1    2    0    0 -0.93351135132E+02 -0.18217926980E+02 -0.66384450334E+03  0.68217362300E+03  0.12500000000E+03 0.  0.
         25    1    1    2    0    0  0.12455628101E+03 -0.44627356816E+02 -0.53915681492E+03  0.56905266820E+03  0.12500000000E+03 0.  0.
         25    1    1    2    0    0 -0.31205145880E+02  0.62845283796E+02 -0.18962823033E+03  0.23771233995E+03  0.12500000000E+03 0.  0.
</event>
<event>
 5    0  0.5590591E-005  0.5399263E+03  0.7546771E-02  0.1003853E+00
         21   -1    0    0  502  501  0.00000000000E+00  0.00000000000E+00  0.30659394119E+04  0.30659394119E+04  0.00000000000E+00 0. -1.
         21   -1    0    0  501  502 -0.00000000000E+00 -0.00000000000E+00 -0.95083541528E+02  0.95083541528E+02  0.00000000000E+00 0. -1.
         25    1    1    2    0    0 -0.98155637178E+01 -0.11908773344E+03  0.18849251134E+04  0.18928407003E+04  0.12500000000E+03 0.  0.
         25    1    1    2    0    0 -0.94072385245E+02 -0.19027761160E+03  0.20503170165E+03  0.32049677350E+03  0.12500000000E+03 0.  0.
         25    1    1    2    0    0  0.10388794896E+03  0.30936534504E+03  0.88089905530E+03  0.94768547962E+03  0.12500000000E+03 0.  0.
</event>
<event>
 5    0  0.5590591E-005  0.2235730E+03  0.7546771E-02  0.1131247E+00
         21   -1    0    0  502  501  0.00000000000E+00  0.00000000000E+00  0.25375234576E+03  0.25375234576E+03  0.00000000000E+00 0.  1.
         21   -1    0    0  501  502 -0.00000000000E+00 -0.00000000000E+00 -0.19698291646E+03  0.19698291646E+03  0.00000000000E+00 0.  1.
         25    1    1    2    0    0  0.67827372383E+02  0.88388686014E+01 -0.47434670051E+00  0.14249176484E+03  0.12500000000E+03 0.  0.
         25    1    1    2    0    0 -0.66910250291E+02  0.43379656476E+02 -0.24116579711E+02  0.15021779391E+03  0.12500000000E+03 0.  0.
         25    1    1    2    0    0 -0.91712209122E+00 -0.52218525077E+02  0.81360355712E+02  0.15802570347E+03  0.12500000000E+03 0.  0.
</event>
<event>
 5    0  0.5590591E-005  0.2662653E+03  0.7546771E-02  0.1103436E+00
         21   -1    0    0  502  501  0.00000000000E+00  0.00000000000E+00  0.41076615918E+03  0.41076615918E+03  0.00000000000E+00 0. -1.
         21   -1    0    0  501  502 -0.00000000000E+00 -0.00000000000E+00 -0.17259748505E+03  0.17259748505E+03  0.00000000000E+00 0. -1.
         25    1    1    2    0    0 -0.87994708835E+02  0.43525960829E+00 -0.26348205941E+02  0.15512087606E+03  0.12500000000E+03 0.  0.
         25    1    1    2    0    0 -0.63641336598E+01 -0.55840027128E+02  0.29094561179E+02  0.14010747417E+03  0.12500000000E+03 0.  0.
         25    1    1    2    0    0  0.94358842495E+02  0.55404767519E+02  0.23542231889E+03  0.28813529401E+03  0.12500000000E+03 0.  0.
</event>
<event>
 5    0  0.5590591E-005  0.2593051E+03  0.7546771E-02  0.1107561E+00
         21   -1    0    0  502  501  0.00000000000E+00  0.00000000000E+00  0.36882131557E+03  0.36882131557E+03  0.00000000000E+00 0.  1.
         21   -1    0    0  501  502 -0.00000000000E+00 -0.00000000000E+00 -0.18230812679E+03  0.18230812679E+03  0.00000000000E+00 0.  1.
         25    1    1    2    0    0  0.11579013557E+03 -0.82989561542E+02  0.51997319384E+02  0.19652822709E+03  0.12500000000E+03 0.  0.
         25    1    1    2    0    0  0.10463148006E+02  0.25955735795E+02  0.10511798061E+03  0.16570445840E+03  0.12500000000E+03 0.  0.
         25    1    1    2    0    0 -0.12625328357E+03  0.57033825747E+02  0.29397888791E+02  0.18889675687E+03  0.12500000000E+03 0.  0.
</event>
<event>
 5    0  0.5590591E-005  0.2228858E+03  0.7546771E-02  0.1131750E+00
         21   -1    0    0  502  501  0.00000000000E+00  0.00000000000E+00  0.16155778530E+03  0.16155778530E+03  0.00000000000E+00 0.  1.
         21   -1    0    0  501  502 -0.00000000000E+00 -0.00000000000E+00 -0.30749408943E+03  0.30749408943E+03  0.00000000000E+00 0.  1.
         25    1    1    2    0    0  0.32020808047E+02  0.47812885472E+02 -0.12604436798E+02  0.13818565769E+03  0.12500000000E+03 0.  0.
         25    1    1    2    0    0 -0.62168675747E+02 -0.22772998900E+02 -0.14089357756E+03  0.19964857605E+03  0.12500000000E+03 0.  0.
         25    1    1    2    0    0  0.30147867701E+02 -0.25039886572E+02  0.75617102249E+01  0.13121764099E+03  0.12500000000E+03 0.  0.
</event>
<event>
 5    0  0.5590591E-005  0.3025506E+03  0.7546771E-02  0.1083972E+00
         21   -1    0    0  502  501  0.00000000000E+00  0.00000000000E+00  0.24636195875E+03  0.24636195875E+03  0.00000000000E+00 0. -1.
         21   -1    0    0  501  502 -0.00000000000E+00 -0.00000000000E+00 -0.37155448382E+03  0.37155448382E+03  0.00000000000E+00 0. -1.
         25    1    1    2    0    0 -0.50694114947E+02  0.10280958871E+03 -0.12533755927E+02  0.17006410515E+03  0.12500000000E+03 0.  0.
         25    1    1    2    0    0  0.46059650647E+01 -0.20662154042E+03 -0.13625434866E+03  0.27731556647E+03  0.12500000000E+03 0.  0.
         25    1    1    2    0    0  0.46088149882E+02  0.10381195170E+03  0.23595579512E+02  0.17053677096E+03  0.12500000000E+03 0.  0.
</event>
<event>
 5    0  0.7444314E-005  0.2899656E+03  0.7546771E-02  0.1090367E+00
         21   -1    0    0  502  501  0.00000000000E+00  0.00000000000E+00  0.13917537241E+03  0.13917537241E+03  0.00000000000E+00 0.  1.
         21   -1    0    0  501  502 -0.00000000000E+00 -0.00000000000E+00 -0.60413008218E+03  0.60413008218E+03  0.00000000000E+00 0.  1.
         25    1    1    2    0    0 -0.14769100876E+03 -0.33788371172E+02 -0.34198079053E+03  0.39437310911E+03  0.12500000000E+03 0.  0.
         25    1    1    2    0    0  0.11997101178E+03 -0.33514440153E+02 -0.98904909788E+02  0.20229543383E+03  0.12500000000E+03 0.  0.
         25    1    1    2    0    0  0.27719996975E+02  0.67302811325E+02 -0.24069009460E+02  0.14663691166E+03  0.12500000000E+03 0.  0.
</event>
<event>
 5    0  0.5590591E-005  0.3100570E+03  0.7546771E-02  0.1080319E+00
         21   -1    0    0  502  501  0.00000000000E+00  0.00000000000E+00  0.27600238427E+03  0.27600238427E+03  0.00000000000E+00 0.  1.
         21   -1    0    0  501  502 -0.00000000000E+00 -0.00000000000E+00 -0.34831339300E+03  0.34831339300E+03  0.00000000000E+00 0.  1.
         25    1    1    2    0    0 -0.11899096289E+03  0.29180055549E+02 -0.18712595677E+03  0.25622538631E+03  0.12500000000E+03 0.  0.
         25    1    1    2    0    0  0.16392688228E+03 -0.43463617899E+02  0.10142741519E+03  0.23382392814E+03  0.12500000000E+03 0.  0.
         25    1    1    2    0    0 -0.44935919391E+02  0.14283562351E+02  0.13387532846E+02  0.13426646283E+03  0.12500000000E+03 0.  0.
</event>
<event>
 5    0  0.5590591E-005  0.3578761E+03  0.7546771E-02  0.1059428E+00
         21   -1    0    0  502  501  0.00000000000E+00  0.00000000000E+00  0.11935174380E+04  0.11935174380E+04  0.00000000000E+00 0. -1.
         21   -1    0    0  501  502 -0.00000000000E+00 -0.00000000000E+00 -0.10730911661E+03  0.10730911661E+03  0.00000000000E+00 0. -1.
         25    1    1    2    0    0  0.64567501023E+02 -0.19993678449E+03  0.18071636529E+03  0.30401823081E+03  0.12500000000E+03 0.  0.
         25    1    1    2    0    0 -0.88517144032E+02  0.97427456590E+02  0.18955524020E+03  0.26245682154E+03  0.12500000000E+03 0.  0.
         25    1    1    2    0    0  0.23949643009E+02  0.10250932790E+03  0.71593671585E+03  0.73435150222E+03  0.12500000000E+03 0.  0.
</event>
<event>
 5    0  0.5590591E-005  0.3007421E+03  0.7546771E-02  0.1084870E+00
         21   -1    0    0  502  501  0.00000000000E+00  0.00000000000E+00  0.11130218388E+04  0.11130218388E+04  0.00000000000E+00 0. -1.
         21   -1    0    0  501  502 -0.00000000000E+00 -0.00000000000E+00 -0.81261489780E+02  0.81261489780E+02  0.00000000000E+00 0. -1.
         25    1    1    2    0    0 -0.79322041854E+02  0.13048224883E+03  0.16498405623E+03  0.25722041598E+03  0.12500000000E+03 0.  0.
         25    1    1    2    0    0 -0.61423326213E+02 -0.81335228378E+02  0.37602978192E+03  0.40915967698E+03  0.12500000000E+03 0.  0.
         25    1    1    2    0    0  0.14074536807E+03 -0.49147020454E+02  0.49074651089E+03  0.52790323564E+03  0.12500000000E+03 0.  0.
</event>
<event>
 5    0  0.5590591E-005  0.2693459E+03  0.7546771E-02  0.1101655E+00
         21   -1    0    0  502  501  0.00000000000E+00  0.00000000000E+00  0.91870858559E+03  0.91870858559E+03  0.00000000000E+00 0. -1.
         21   -1    0    0  501  502 -0.00000000000E+00 -0.00000000000E+00 -0.78966521380E+02  0.78966521380E+02  0.00000000000E+00 0. -1.
         25    1    1    2    0    0  0.74211513385E+02 -0.68133250955E+02  0.11775994625E+03  0.19910272109E+03  0.12500000000E+03 0.  0.
         25    1    1    2    0    0  0.27951999786E+02 -0.49326009762E+02  0.23330099791E+03  0.27068196312E+03  0.12500000000E+03 0.  0.
         25    1    1    2    0    0 -0.10216351317E+03  0.11745926072E+03  0.48868112005E+03  0.52789042276E+03  0.12500000000E+03 0.  0.
</event>
<event>
 5    0  0.5590591E-005  0.3468384E+03  0.7546771E-02  0.1063920E+00
         21   -1    0    0  502  501  0.00000000000E+00  0.00000000000E+00  0.97260830934E+03  0.97260830934E+03  0.00000000000E+00 0. -1.
         21   -1    0    0  501  502 -0.00000000000E+00 -0.00000000000E+00 -0.12368482457E+03  0.12368482457E+03  0.00000000000E+00 0. -1.
         25    1    1    2    0    0  0.77913844120E+02  0.16266780197E+03  0.11672342337E+03  0.24855731425E+03  0.12500000000E+03 0.  0.
         25    1    1    2    0    0 -0.17595023984E+03 -0.26175852275E+02  0.35482511919E+03  0.41613642877E+03  0.12500000000E+03 0.  0.
         25    1    1    2    0    0  0.98036395717E+02 -0.13649194969E+03  0.37737494220E+03  0.43159939089E+03  0.12500000000E+03 0.  0.
</event>
<event>
 5    0  0.5590591E-005  0.3244108E+03  0.7546771E-02  0.1073637E+00
         21   -1    0    0  502  501  0.00000000000E+00  0.00000000000E+00  0.12865344322E+04  0.12865344322E+04  0.00000000000E+00 0.  1.
         21   -1    0    0  501  502 -0.00000000000E+00 -0.00000000000E+00 -0.81803014019E+02  0.81803014019E+02  0.00000000000E+00 0.  1.
         25    1    1    2    0    0  0.42323602970E+01  0.34009747483E+02  0.72860154765E+03  0.74004039824E+03  0.12500000000E+03 0.  0.
         25    1    1    2    0    0  0.98739614679E+01 -0.90471246951E+01 -0.94471938442E+01  0.12606980230E+03  0.12500000000E+03 0.  0.
         25    1    1    2    0    0 -0.14106321765E+02 -0.24962622787E+02  0.48557706437E+03  0.50222724567E+03  0.12500000000E+03 0.  0.
</event>
<event>
 5    0  0.5590591E-005  0.3222629E+03  0.7546771E-02  0.1074613E+00
         21   -1    0    0  502  501  0.00000000000E+00  0.00000000000E+00  0.10135612311E+03  0.10135612311E+03  0.00000000000E+00 0. -1.
         21   -1    0    0  501  502 -0.00000000000E+00 -0.00000000000E+00 -0.10246385653E+04  0.10246385653E+04  0.00000000000E+00 0. -1.
         25    1    1    2    0    0 -0.17710462964E+03  0.37809009798E+02 -0.29167685673E+03  0.36537098929E+03  0.12500000000E+03 0.  0.
         25    1    1    2    0    0  0.99893658245E+02 -0.12904313015E+03 -0.16692033371E+03  0.26479854645E+03  0.12500000000E+03 0.  0.
         25    1    1    2    0    0  0.77210971396E+02  0.91234120352E+02 -0.46468525171E+03  0.49582515262E+03  0.12500000000E+03 0.  0.
</event>
<event>
 5    0  0.5590591E-005  0.3819290E+03  0.7546771E-02  0.1050223E+00
         21   -1    0    0  502  501  0.00000000000E+00  0.00000000000E+00  0.13471603434E+03  0.13471603434E+03  0.00000000000E+00 0.  1.
         21   -1    0    0  501  502 -0.00000000000E+00 -0.00000000000E+00 -0.10827942763E+04  0.10827942763E+04  0.00000000000E+00 0.  1.
         25    1    1    2    0    0 -0.70858525537E+02  0.64444458803E+02 -0.30776302615E+03  0.34571245158E+03  0.12500000000E+03 0.  0.
         25    1    1    2    0    0 -0.12103732236E+03 -0.11836297484E+02 -0.61051212704E+03  0.63493321586E+03  0.12500000000E+03 0.  0.
         25    1    1    2    0    0  0.19189584789E+03 -0.52608161319E+02 -0.29803088726E+02  0.23686464315E+03  0.12500000000E+03 0.  0.
</event>
<event>
 5    0  0.5590591E-005  0.2518829E+03  0.7546771E-02  0.1112121E+00
         21   -1    0    0  502  501  0.00000000000E+00  0.00000000000E+00  0.24506608003E+04  0.24506608003E+04  0.00000000000E+00 0.  1.
         21   -1    0    0  501  502 -0.00000000000E+00 -0.00000000000E+00 -0.25888931192E+02  0.25888931192E+02  0.00000000000E+00 0.  1.
         25    1    1    2    0    0  0.63919345668E+02  0.10050743256E+03  0.57425422518E+03  0.59965018293E+03  0.12500000000E+03 0.  0.
         25    1    1    2    0    0 -0.22769098915E+02 -0.12550722453E+03  0.98093039352E+03  0.99705563145E+03  0.12500000000E+03 0.  0.
         25    1    1    2    0    0 -0.41150246753E+02  0.24999791971E+02  0.86958725045E+03  0.87984391715E+03  0.12500000000E+03 0.  0.
</event>
<event>
 5    0  0.5777406E-005  0.3842686E+03  0.7546771E-02  0.1049367E+00
         21   -1    0    0  502  501  0.00000000000E+00  0.00000000000E+00  0.18144255279E+03  0.18144255279E+03  0.00000000000E+00 0. -1.
         21   -1    0    0  501  502 -0.00000000000E+00 -0.00000000000E+00 -0.81382417293E+03  0.81382417293E+03  0.00000000000E+00 0. -1.
         25    1    1    2    0    0  0.18577951663E+03 -0.11682823644E+03 -0.17957051385E+03  0.30989261861E+03  0.12500000000E+03 0.  0.
         25    1    1    2    0    0 -0.16215199122E+03  0.17768239659E+03 -0.47074182554E+03  0.54321926386E+03  0.12500000000E+03 0.  0.
         25    1    1    2    0    0 -0.23627525411E+02 -0.60854160153E+02  0.17930719252E+02  0.14215484324E+03  0.12500000000E+03 0.  0.
</event>
<event>
 5    0  0.5590591E-005  0.3213975E+03  0.7546771E-02  0.1075008E+00
         21   -1    0    0  502  501  0.00000000000E+00  0.00000000000E+00  0.80754714018E+03  0.80754714018E+03  0.00000000000E+00 0.  1.
         21   -1    0    0  501  502 -0.00000000000E+00 -0.00000000000E+00 -0.12791371049E+03  0.12791371049E+03  0.00000000000E+00 0.  1.
         25    1    1    2    0    0 -0.81864742625E+01  0.16320765692E+03  0.14395841583E+03  0.25110313245E+03  0.12500000000E+03 0.  0.
         25    1    1    2    0    0  0.29538559894E+02 -0.24262192895E+03  0.31634400417E+03  0.41885135299E+03  0.12500000000E+03 0.  0.
         25    1    1    2    0    0 -0.21352085631E+02  0.79414272027E+02  0.21933100969E+03  0.26550636522E+03  0.12500000000E+03 0.  0.
</event>
<event>
 5    0  0.5590591E-005  0.2323200E+03  0.7546771E-02  0.1125017E+00
         21   -1    0    0  502  501  0.00000000000E+00  0.00000000000E+00  0.26569161816E+02  0.26569161816E+02  0.00000000000E+00 0.  1.
         21   -1    0    0  501  502 -0.00000000000E+00 -0.00000000000E+00 -0.20313990965E+04  0.20313990965E+04  0.00000000000E+00 0.  1.
         25    1    1    2    0    0  0.42651534309E+01  0.13924787420E+02 -0.43360793393E+03  0.45150075483E+03  0.12500000000E+03 0.  0.
         25    1    1    2    0    0 -0.76099312895E+02 -0.86842653002E+02 -0.91168910224E+03  0.92743451033E+03  0.12500000000E+03 0.  0.
         25    1    1    2    0    0  0.71834159464E+02  0.72917865582E+02 -0.65953289853E+03  0.67903299318E+03  0.12500000000E+03 0.  0.
</event>
<event>
 5    0  0.5590591E-005  0.2337487E+03  0.7546771E-02  0.1124029E+00
         21   -1    0    0  502  501  0.00000000000E+00  0.00000000000E+00  0.51907502761E+02  0.51907502761E+02  0.00000000000E+00 0.  1.
         21   -1    0    0  501  502 -0.00000000000E+00 -0.00000000000E+00 -0.10526120216E+04  0.10526120216E+04  0.00000000000E+00 0.  1.
         25    1    1    2    0    0 -0.60349484223E+02  0.65874422776E+02 -0.57776027737E+03  0.59784064593E+03  0.12500000000E+03 0.  0.
         25    1    1    2    0    0  0.41264491525E+02 -0.63631850509E+02 -0.17259252000E+03  0.22619670338E+03  0.12500000000E+03 0.  0.
         25    1    1    2    0    0  0.19084992698E+02 -0.22425722669E+01 -0.25035172145E+03  0.28048217503E+03  0.12500000000E+03 0.  0.
</event>
<event>
 5    0  0.5590591E-005  0.4157024E+03  0.7546771E-02  0.1038474E+00
         21   -1    0    0  502  501  0.00000000000E+00  0.00000000000E+00  0.40984046079E+03  0.40984046079E+03  0.00000000000E+00 0.  1.
         21   -1    0    0  501  502 -0.00000000000E+00 -0.00000000000E+00 -0.42164813731E+03  0.42164813731E+03  0.00000000000E+00 0.  1.
         25    1    1    2    0    0 -0.10260473926E+03 -0.28059618338E+02 -0.16311150229E+03  0.23139886966E+03  0.12500000000E+03 0.  0.
         25    1    1    2    0    0  0.17528106415E+03 -0.20825305315E+03  0.42849886533E+02  0.30257874740E+03  0.12500000000E+03 0.  0.
         25    1    1    2    0    0 -0.72676324895E+02  0.23631267149E+03  0.10845393923E+03  0.29751098105E+03  0.12500000000E+03 0.  0.
</event>
<event>
 5    0  0.5590591E-005  0.2513344E+03  0.7546771E-02  0.1112464E+00
         21   -1    0    0  502  501  0.00000000000E+00  0.00000000000E+00  0.28663973482E+03  0.28663973482E+03  0.00000000000E+00 0.  1.
         21   -1    0    0  501  502 -0.00000000000E+00 -0.00000000000E+00 -0.22037762201E+03  0.22037762201E+03  0.00000000000E+00 0.  1.
         25    1    1    2    0    0 -0.56506736467E+02 -0.71951416367E+02  0.91960465273E+02  0.18014367809E+03  0.12500000000E+03 0.  0.
         25    1    1    2    0    0  0.53724848559E+02 -0.40914490998E+02 -0.61264615713E+02  0.15472138852E+03  0.12500000000E+03 0.  0.
         25    1    1    2    0    0  0.27818879074E+01  0.11286590736E+03  0.35566263251E+02  0.17215229022E+03  0.12500000000E+03 0.  0.
</event>
<event>
 5    0  0.5590591E-005  0.3038620E+03  0.7546771E-02  0.1083326E+00
         21   -1    0    0  502  501  0.00000000000E+00  0.00000000000E+00  0.22283475402E+03  0.22283475402E+03  0.00000000000E+00 0.  1.
         21   -1    0    0  501  502 -0.00000000000E+00 -0.00000000000E+00 -0.41435246041E+03  0.41435246041E+03  0.00000000000E+00 0.  1.
         25    1    1    2    0    0  0.14464576764E+03  0.87774208971E+02 -0.15544084091E+03  0.26155986863E+03  0.12500000000E+03 0.  0.
         25    1    1    2    0    0 -0.82651711126E+02  0.25165147814E+02  0.69803290897E+02  0.16721868746E+03  0.12500000000E+03 0.  0.
         25    1    1    2    0    0 -0.61994056514E+02 -0.11293935678E+03 -0.10588015637E+03  0.20840865833E+03  0.12500000000E+03 0.  0.
</event>
<event>
 5    0  0.5590591E-005  0.2370650E+03  0.7546771E-02  0.1121764E+00
         21   -1    0    0  502  501  0.00000000000E+00  0.00000000000E+00  0.10094496639E+03  0.10094496639E+03  0.00000000000E+00 0. -1.
         21   -1    0    0  501  502 -0.00000000000E+00 -0.00000000000E+00 -0.55673721726E+03  0.55673721726E+03  0.00000000000E+00 0. -1.
         25    1    1    2    0    0  0.22450302122E+02 -0.12810307211E+03 -0.12568891672E+03  0.21985703749E+03  0.12500000000E+03 0.  0.
         25    1    1    2    0    0 -0.11865268863E+02  0.42769066704E+02 -0.12148808493E+03  0.17987310097E+03  0.12500000000E+03 0.  0.
         25    1    1    2    0    0 -0.10585033259E+02  0.85334005403E+02 -0.20861524923E+03  0.25795204519E+03  0.12500000000E+03 0.  0.
</event>
<event>
 5    0  0.5590591E-005  0.2558395E+03  0.7546771E-02  0.1109669E+00
         21   -1    0    0  502  501  0.00000000000E+00  0.00000000000E+00  0.16768740904E+04  0.16768740904E+04  0.00000000000E+00 0. -1.
         21   -1    0    0  501  502 -0.00000000000E+00 -0.00000000000E+00 -0.39033244658E+02  0.39033244658E+02  0.00000000000E+00 0. -1.
         25    1    1    2    0    0 -0.11961842427E+03 -0.56003842105E+02  0.80527689346E+03  0.82555488788E+03  0.12500000000E+03 0.  0.
         25    1    1    2    0    0  0.11196007288E+03  0.68218053348E+02  0.38585880572E+03  0.42626374309E+03  0.12500000000E+03 0.  0.
         25    1    1    2    0    0  0.76583513871E+01 -0.12214211243E+02  0.44670514660E+03  0.46408870413E+03  0.12500000000E+03 0.  0.
</event>
<event>
 5    0  0.5590591E-005  0.2551484E+03  0.7546771E-02  0.1110094E+00
         21   -1    0    0  502  501  0.00000000000E+00  0.00000000000E+00  0.22364666046E+03  0.22364666046E+03  0.00000000000E+00 0.  1.
         21   -1    0    0  501  502 -0.00000000000E+00 -0.00000000000E+00 -0.29108724878E+03  0.29108724878E+03  0.00000000000E+00 0.  1.
         25    1    1    2    0    0  0.76343575018E+02 -0.45736317266E+02  0.18082993271E+02  0.15450613842E+03  0.12500000000E+03 0.  0.
         25    1    1    2    0    0 -0.12658360602E+03 -0.49597469860E+02 -0.38996080169E+02  0.18875649021E+03  0.12500000000E+03 0.  0.
         25    1    1    2    0    0  0.50240030999E+02  0.95333787126E+02 -0.46527501423E+02  0.17147128060E+03  0.12500000000E+03 0.  0.
</event>
<event>
 5    0  0.6065484E-005  0.2767026E+03  0.7546771E-02  0.1097504E+00
         21   -1    0    0  502  501  0.00000000000E+00  0.00000000000E+00  0.10270826246E+03  0.10270826246E+03  0.00000000000E+00 0. -1.
         21   -1    0    0  501  502 -0.00000000000E+00 -0.00000000000E+00 -0.74545435754E+03  0.74545435754E+03  0.00000000000E+00 0. -1.
         25    1    1    2    0    0 -0.12945487767E+03 -0.50156507214E+01 -0.21386593094E+03  0.27954849047E+03  0.12500000000E+03 0.  0.
         25    1    1    2    0    0  0.14470942700E+03 -0.47641864474E+02 -0.11951589362E+03  0.23047692800E+03  0.12500000000E+03 0.  0.
         25    1    1    2    0    0 -0.15254549325E+02  0.52657515196E+02 -0.30936427053E+03  0.33813720153E+03  0.12500000000E+03 0.  0.
</event>
<event>
 5    0  0.5590591E-005  0.4146709E+03  0.7546771E-02  0.1038815E+00
         21   -1    0    0  502  501  0.00000000000E+00  0.00000000000E+00  0.29822159550E+03  0.29822159550E+03  0.00000000000E+00 0.  1.
         21   -1    0    0  501  502 -0.00000000000E+00 -0.00000000000E+00 -0.57659115488E+03  0.57659115488E+03  0.00000000000E+00 0.  1.
         25    1    1    2    0    0  0.95435547356E+02 -0.23213321043E+03 -0.14687517482E+03  0.31652975858E+03  0.12500000000E+03 0.  0.
         25    1    1    2    0    0 -0.12070118618E+03  0.64274445510E+02 -0.25405682531E+03  0.31443576638E+03  0.12500000000E+03 0.  0.
         25    1    1    2    0    0  0.25265638825E+02  0.16785876492E+03  0.12256244075E+03  0.24384722543E+03  0.12500000000E+03 0.  0.
</event>
<event>
 5    0  0.6357084E-005  0.2930219E+03  0.7546771E-02  0.1088782E+00
         21   -1    0    0  502  501  0.00000000000E+00  0.00000000000E+00  0.50559046531E+03  0.50559046531E+03  0.00000000000E+00 0. -1.
         21   -1    0    0  501  502 -0.00000000000E+00 -0.00000000000E+00 -0.16982489416E+03  0.16982489416E+03  0.00000000000E+00 0. -1.
         25    1    1    2    0    0 -0.45702776842E+02  0.99413646862E+02 -0.97776911880E+01  0.16641039703E+03  0.12500000000E+03 0.  0.
         25    1    1    2    0    0 -0.10910267216E+02 -0.77193686660E+02  0.33924614659E+03  0.36985246676E+03  0.12500000000E+03 0.  0.
         25    1    1    2    0    0  0.56613044058E+02 -0.22219960202E+02  0.62971157441E+01  0.13915249569E+03  0.12500000000E+03 0.  0.
</event>
<event>
 5    0  0.5590591E-005  0.4229986E+03  0.7546771E-02  0.1036095E+00
         21   -1    0    0  502  501  0.00000000000E+00  0.00000000000E+00  0.15371804840E+04  0.15371804840E+04  0.00000000000E+00 0. -1.
         21   -1    0    0  501  502 -0.00000000000E+00 -0.00000000000E+00 -0.11640000721E+03  0.11640000721E+03  0.00000000000E+00 0. -1.
         25    1    1    2    0    0  0.74998801036E+02 -0.20980228484E+02  0.69080325692E+02  0.16267169865E+03  0.12500000000E+03 0.  0.
         25    1    1    2    0    0  0.10904737298E+03 -0.23638490842E+03  0.60871086931E+03  0.67373813674E+03  0.12500000000E+03 0.  0.
         25    1    1    2    0    0 -0.18404617402E+03  0.25736513691E+03  0.74298928178E+03  0.81717065580E+03  0.12500000000E+03 0.  0.
</event>
<event>
 5    0  0.5590591E-005  0.2911363E+03  0.7546771E-02  0.1089757E+00
         21   -1    0    0  502  501  0.00000000000E+00  0.00000000000E+00  0.25646264955E+03  0.25646264955E+03  0.00000000000E+00 0. -1.
         21   -1    0    0  501  502 -0.00000000000E+00 -0.00000000000E+00 -0.33049772966E+03  0.33049772966E+03  0.00000000000E+00 0. -1.
         25    1    1    2    0    0  0.94813308069E+02 -0.21425403208E+01  0.69776930763E+02  0.17172062757E+03  0.12500000000E+03 0.  0.
         25    1    1    2    0    0 -0.18988998634E+03 -0.22571119091E+02 -0.63468978749E+02  0.23710962358E+03  0.12500000000E+03 0.  0.
         25    1    1    2    0    0  0.95076678275E+02  0.24713659412E+02 -0.80343032117E+02  0.17813012806E+03  0.12500000000E+03 0.  0.
</event>
<event>
 5    0  0.5590591E-005  0.2907524E+03  0.7546771E-02  0.1089957E+00
         21   -1    0    0  502  501  0.00000000000E+00  0.00000000000E+00  0.18296583288E+03  0.18296583288E+03  0.00000000000E+00 0. -1.
         21   -1    0    0  501  502 -0.00000000000E+00 -0.00000000000E+00 -0.46203691156E+03  0.46203691156E+03  0.00000000000E+00 0. -1.
         25    1    1    2    0    0 -0.11229585093E+03 -0.25491630971E+02 -0.52895095829E+02  0.17799739478E+03  0.12500000000E+03 0.  0.
         25    1    1    2    0    0 -0.96921736428E+02  0.43760822322E+02 -0.95013733576E+02  0.18963502348E+03  0.12500000000E+03 0.  0.
         25    1    1    2    0    0  0.20921758736E+03 -0.18269191350E+02 -0.13116224927E+03  0.27737032618E+03  0.12500000000E+03 0.  0.
</event>
<event>
 5    0  0.5590591E-005  0.2261267E+03  0.7546771E-02  0.1129396E+00
         21   -1    0    0  502  501  0.00000000000E+00  0.00000000000E+00  0.39344454065E+02  0.39344454065E+02  0.00000000000E+00 0.  1.
         21   -1    0    0  501  502 -0.00000000000E+00 -0.00000000000E+00 -0.12996310653E+04  0.12996310653E+04  0.00000000000E+00 0.  1.
         25    1    1    2    0    0  0.23540367992E+02  0.77064959026E+02 -0.29848905943E+03  0.33348744419E+03  0.12500000000E+03 0.  0.
         25    1    1    2    0    0 -0.16259585359E+01 -0.52223739457E+02 -0.27429122531E+03  0.30592587172E+03  0.12500000000E+03 0.  0.
         25    1    1    2    0    0 -0.21914409456E+02 -0.24841219569E+02 -0.68750632652E+03  0.69956220348E+03  0.12500000000E+03 0.  0.
</event>
<event>
 5    0  0.5590591E-005  0.3168708E+03  0.7546771E-02  0.1077099E+00
         21   -1    0    0  502  501  0.00000000000E+00  0.00000000000E+00  0.33242480935E+03  0.33242480935E+03  0.00000000000E+00 0.  1.
         21   -1    0    0  501  502 -0.00000000000E+00 -0.00000000000E+00 -0.30204452330E+03  0.30204452330E+03  0.00000000000E+00 0.  1.
         25    1    1    2    0    0  0.14527718663E+03 -0.10275940400E+03  0.83695224459E+02  0.23301254615E+03  0.12500000000E+03 0.  0.
         25    1    1    2    0    0 -0.10947146778E+03 -0.24358102856E+02  0.69795132393E+02  0.18186170553E+03  0.12500000000E+03 0.  0.
         25    1    1    2    0    0 -0.35805718853E+02  0.12711750685E+03 -0.12311007080E+03  0.21959508096E+03  0.12500000000E+03 0.  0.
</event>
<event>
 5    0  0.5590591E-005  0.3590071E+03  0.7546771E-02  0.1058978E+00
         21   -1    0    0  502  501  0.00000000000E+00  0.00000000000E+00  0.11954233413E+04  0.11954233413E+04  0.00000000000E+00 0.  1.
         21   -1    0    0  501  502 -0.00000000000E+00 -0.00000000000E+00 -0.10781628578E+03  0.10781628578E+03  0.00000000000E+00 0.  1.
         25    1    1    2    0    0  0.89985127975E+02 -0.56776661904E+02  0.15092026270E+03  0.22298618408E+03  0.12500000000E+03 0.  0.
         25    1    1    2    0    0 -0.18389397022E+03 -0.19250743463E+01  0.87404858313E+03  0.90189058309E+03  0.12500000000E+03 0.  0.
         25    1    1    2    0    0  0.93908842248E+02  0.58701736250E+02  0.62638209708E+02  0.17836285994E+03  0.12500000000E+03 0.  0.
</event>
<event>
 5    0  0.5590591E-005  0.3147257E+03  0.7546771E-02  0.1078103E+00
         21   -1    0    0  502  501  0.00000000000E+00  0.00000000000E+00  0.21097668442E+03  0.21097668442E+03  0.00000000000E+00 0.  1.
         21   -1    0    0  501  502 -0.00000000000E+00 -0.00000000000E+00 -0.46949390521E+03  0.46949390521E+03  0.00000000000E+00 0.  1.
         25    1    1    2    0    0  0.71026480833E+02  0.36771287815E+02 -0.93126412947E+02  0.17519822309E+03  0.12500000000E+03 0.  0.
         25    1    1    2    0    0 -0.56173230827E+02 -0.16211505784E+03  0.57810367787E+02  0.22000855089E+03  0.12500000000E+03 0.  0.
         25    1    1    2    0    0 -0.14853250007E+02  0.12534377002E+03 -0.22320117563E+03  0.28526381565E+03  0.12500000000E+03 0.  0.
</event>
<event>
 5    0  0.5590591E-005  0.2953627E+03  0.7546771E-02  0.1087582E+00
         21   -1    0    0  502  501  0.00000000000E+00  0.00000000000E+00  0.28333478503E+03  0.28333478503E+03  0.00000000000E+00 0. -1.
         21   -1    0    0  501  502 -0.00000000000E+00 -0.00000000000E+00 -0.30790116322E+03  0.30790116322E+03  0.00000000000E+00 0. -1.
         25    1    1    2    0    0  0.11976433734E+03  0.17377962971E+02 -0.99842688218E+02  0.20059674097E+03  0.12500000000E+03 0.  0.
         25    1    1    2    0    0 -0.96754457510E+02  0.93917912797E+02 -0.37317539821E+02  0.18761555951E+03  0.12500000000E+03 0.  0.
         25    1    1    2    0    0 -0.23009879830E+02 -0.11129587577E+03  0.11259384984E+03  0.20302364777E+03  0.12500000000E+03 0.  0.
</event>
<event>
 5    0  0.5590591E-005  0.4234601E+03  0.7546771E-02  0.1035946E+00
         21   -1    0    0  502  501  0.00000000000E+00  0.00000000000E+00  0.28149703908E+04  0.28149703908E+04  0.00000000000E+00 0. -1.
         21   -1    0    0  501  502 -0.00000000000E+00 -0.00000000000E+00 -0.63701725293E+02  0.63701725293E+02  0.00000000000E+00 0. -1.
         25    1    1    2    0    0  0.50669023851E+02 -0.15974489134E+02  0.24843570708E+03  0.28313924990E+03  0.12500000000E+03 0.  0.
         25    1    1    2    0    0  0.58015523740E+02  0.75931978410E+02  0.23692079754E+04  0.23744268566E+04  0.12500000000E+03 0.  0.
         25    1    1    2    0    0 -0.10868454759E+03 -0.59957489276E+02  0.13362498296E+03  0.22110600959E+03  0.12500000000E+03 0.  0.
</event>
<event>
 5    0  0.5590591E-005  0.2086536E+03  0.7546771E-02  0.1142637E+00
         21   -1    0    0  502  501  0.00000000000E+00  0.00000000000E+00  0.41088369747E+03  0.41088369747E+03  0.00000000000E+00 0.  1.
         21   -1    0    0  501  502 -0.00000000000E+00 -0.00000000000E+00 -0.10595780030E+03  0.10595780030E+03  0.00000000000E+00 0.  1.
         25    1    1    2    0    0  0.41259163202E+02 -0.53352529330E+02  0.13765003281E+03  0.19779115872E+03  0.12500000000E+03 0.  0.
         25    1    1    2    0    0 -0.54073138041E+01  0.48157501168E+02  0.47652654716E+02  0.14228197167E+03  0.12500000000E+03 0.  0.
         25    1    1    2    0    0 -0.35851849398E+02  0.51950281615E+01  0.11962320964E+03  0.17676836738E+03  0.12500000000E+03 0.  0.
</event>
<event>
 5    0  0.5590591E-005  0.2505929E+03  0.7546771E-02  0.1112931E+00
         21   -1    0    0  502  501  0.00000000000E+00  0.00000000000E+00  0.46740589713E+03  0.46740589713E+03  0.00000000000E+00 0.  1.
         21   -1    0    0  501  502 -0.00000000000E+00 -0.00000000000E+00 -0.13435171266E+03  0.13435171266E+03  0.00000000000E+00 0.  1.
         25    1    1    2    0    0  0.29099545928E+02  0.39375511317E+02  0.13343115517E+03  0.18927780545E+03  0.12500000000E+03 0.  0.
         25    1    1    2    0    0 -0.30551567195E+02 -0.34144309476E+02  0.24545204584E+03  0.27923276837E+03  0.12500000000E+03 0.  0.
         25    1    1    2    0    0  0.14520212670E+01 -0.52312018408E+01 -0.45829016538E+02  0.13324703597E+03  0.12500000000E+03 0.  0.
</event>
<event>
 5    0  0.5590591E-005  0.3180382E+03  0.7546771E-02  0.1076556E+00
         21   -1    0    0  502  501  0.00000000000E+00  0.00000000000E+00  0.21577300180E+03  0.21577300180E+03  0.00000000000E+00 0. -1.
         21   -1    0    0  501  502 -0.00000000000E+00 -0.00000000000E+00 -0.46877179325E+03  0.46877179325E+03  0.00000000000E+00 0. -1.
         25    1    1    2    0    0  0.34534407120E+02 -0.54127924018E+01 -0.39435116534E+02  0.13565416327E+03  0.12500000000E+03 0.  0.
         25    1    1    2    0    0 -0.24013799481E+01 -0.20558653890E+03 -0.33478699062E+02  0.24293500138E+03  0.12500000000E+03 0.  0.
         25    1    1    2    0    0 -0.32133027172E+02  0.21099933131E+03 -0.18008497586E+03  0.30595563040E+03  0.12500000000E+03 0.  0.
</event>
<event>
 5    0  0.5590591E-005  0.2642637E+03  0.7546771E-02  0.1104608E+00
         21   -1    0    0  502  501  0.00000000000E+00  0.00000000000E+00  0.69386334319E+02  0.69386334319E+02  0.00000000000E+00 0.  1.
         21   -1    0    0  501  502 -0.00000000000E+00 -0.00000000000E+00 -0.10064708615E+04  0.10064708615E+04  0.00000000000E+00 0.  1.
         25    1    1    2    0    0  0.59248502731E+02  0.41880232258E+02 -0.49286710573E+03  0.51362177021E+03  0.12500000000E+03 0.  0.
         25    1    1    2    0    0 -0.61400387172E+02 -0.12041955190E+03 -0.32047823639E+03  0.36959731604E+03  0.12500000000E+03 0.  0.
         25    1    1    2    0    0  0.21518844406E+01  0.78539319647E+02 -0.12373918507E+03  0.19263810957E+03  0.12500000000E+03 0.  0.
</event>
<event>
 5    0  0.6742997E-005  0.5105551E+03  0.7546771E-02  0.1011060E+00
         21   -1    0    0  502  501  0.00000000000E+00  0.00000000000E+00  0.42627691590E+03  0.42627691590E+03  0.00000000000E+00 0.  1.
         21   -1    0    0  501  502 -0.00000000000E+00 -0.00000000000E+00 -0.61149583176E+03  0.61149583176E+03  0.00000000000E+00 0.  1.
         25    1    1    2    0    0  0.11575653279E+03  0.22058587379E+03  0.20760026378E+03  0.34753499409E+03  0.12500000000E+03 0.  0.
         25    1    1    2    0    0 -0.12656009208E+02  0.88045253693E+02 -0.28787334123E+03  0.32620270057E+03  0.12500000000E+03 0.  0.
         25    1    1    2    0    0 -0.10310052358E+03 -0.30863112748E+03 -0.10494583842E+03  0.36403505300E+03  0.12500000000E+03 0.  0.
</event>
<event>
 5    0  0.5590591E-005  0.2443697E+03  0.7546771E-02  0.1116916E+00
         21   -1    0    0  502  501  0.00000000000E+00  0.00000000000E+00  0.58515307219E+02  0.58515307219E+02  0.00000000000E+00 0. -1.
         21   -1    0    0  501  502 -0.00000000000E+00 -0.00000000000E+00 -0.10205286343E+04  0.10205286343E+04  0.00000000000E+00 0. -1.
         25    1    1    2    0    0 -0.58304585435E+02  0.11868719553E+03 -0.40628722000E+03  0.44517455026E+03  0.12500000000E+03 0.  0.
         25    1    1    2    0    0 -0.17632968932E+02 -0.63343123216E+02 -0.19566201013E+03  0.24131285722E+03  0.12500000000E+03 0.  0.
         25    1    1    2    0    0  0.75937554366E+02 -0.55344072310E+02 -0.36006409697E+03  0.39255653405E+03  0.12500000000E+03 0.  0.
</event>
<event>
 5    0  0.5590591E-005  0.5514183E+03  0.7546771E-02  0.1001166E+00
         21   -1    0    0  502  501  0.00000000000E+00  0.00000000000E+00  0.58225012735E+03  0.58225012735E+03  0.00000000000E+00 0. -1.
         21   -1    0    0  501  502 -0.00000000000E+00 -0.00000000000E+00 -0.52221914080E+03  0.52221914080E+03  0.00000000000E+00 0. -1.
         25    1    1    2    0    0 -0.21516166147E+03 -0.35915076395E+03  0.24842414535E+03  0.50261652163E+03  0.12500000000E+03 0.  0.
         25    1    1    2    0    0  0.26777640596E+03  0.17859464810E+03 -0.12616049215E+03  0.36761626963E+03  0.12500000000E+03 0.  0.
         25    1    1    2    0    0 -0.52614744486E+02  0.18055611585E+03 -0.62232666649E+02  0.23423647689E+03  0.12500000000E+03 0.  0.
</event>
<event>
 5    0  0.5590591E-005  0.3686972E+03  0.7546771E-02  0.1055192E+00
         21   -1    0    0  502  501  0.00000000000E+00  0.00000000000E+00  0.61972111445E+03  0.61972111445E+03  0.00000000000E+00 0.  1.
         21   -1    0    0  501  502 -0.00000000000E+00 -0.00000000000E+00 -0.21935288874E+03  0.21935288874E+03  0.00000000000E+00 0.  1.
         25    1    1    2    0    0 -0.21506314277E+02  0.51045955714E+02 -0.36640836499E+02  0.14154773770E+03  0.12500000000E+03 0.  0.
         25    1    1    2    0    0 -0.22277027645E+03  0.15249381379E+02  0.15873332704E+03  0.30113187944E+03  0.12500000000E+03 0.  0.
         25    1    1    2    0    0  0.24427659073E+03 -0.66295337092E+02  0.27827573518E+03  0.39639438605E+03  0.12500000000E+03 0.  0.
</event>
<event>
 5    0  0.5590591E-005  0.3158176E+03  0.7546771E-02  0.1077590E+00
         21   -1    0    0  502  501  0.00000000000E+00  0.00000000000E+00  0.69462542611E+03  0.69462542611E+03  0.00000000000E+00 0. -1.
         21   -1    0    0  501  502 -0.00000000000E+00 -0.00000000000E+00 -0.14358925284E+03  0.14358925284E+03  0.00000000000E+00 0. -1.
         25    1    1    2    0    0 -0.68620109355E+02 -0.95673486930E+02 -0.41352230132E+02  0.17662712829E+03  0.12500000000E+03 0.  0.
         25    1    1    2    0    0  0.82308417582E+01  0.72248425824E+02  0.38183920599E+03  0.40830596496E+03  0.12500000000E+03 0.  0.
         25    1    1    2    0    0  0.60389267597E+02  0.23425061107E+02  0.21054919742E+03  0.25328158571E+03  0.12500000000E+03 0.  0.
</event>
<event>
 5    0  0.5590591E-005  0.2641535E+03  0.7546771E-02  0.1104673E+00
         21   -1    0    0  502  501  0.00000000000E+00  0.00000000000E+00  0.33513524104E+02  0.33513524104E+02  0.00000000000E+00 0.  1.
         21   -1    0    0  501  502 -0.00000000000E+00 -0.00000000000E+00 -0.20820572139E+04  0.20820572139E+04  0.00000000000E+00 0.  1.
         25    1    1    2    0    0  0.97465356665E+02 -0.13261653095E+03 -0.72564033358E+03  0.75449687458E+03  0.12500000000E+03 0.  0.
         25    1    1    2    0    0 -0.32086664909E+02  0.40512309668E+01 -0.55039713266E+03  0.56533881007E+03  0.12500000000E+03 0.  0.
         25    1    1    2    0    0 -0.65378691757E+02  0.12856529998E+03 -0.77250622352E+03  0.79573505331E+03  0.12500000000E+03 0.  0.
</event>
<event>
 5    0  0.5590591E-005  0.5759504E+03  0.7546771E-02  0.9956597E-01
         21   -1    0    0  502  501  0.00000000000E+00  0.00000000000E+00  0.19883616569E+03  0.19883616569E+03  0.00000000000E+00 0.  1.
         21   -1    0    0  501  502 -0.00000000000E+00 -0.00000000000E+00 -0.16683022032E+04  0.16683022032E+04  0.00000000000E+00 0.  1.
         25    1    1    2    0    0 -0.35085339160E+03 -0.22810110002E+03 -0.31956396140E+03  0.54117865779E+03  0.12500000000E+03 0.  0.
         25    1    1    2    0    0  0.42873300416E+03  0.98210792801E+02 -0.71399472234E+03  0.84786249605E+03  0.12500000000E+03 0.  0.
         25    1    1    2    0    0 -0.77879612564E+02  0.12989030722E+03 -0.43590735373E+03  0.47809721501E+03  0.12500000000E+03 0.  0.
</event>
<event>
 5    0  0.5590591E-005  0.3212260E+03  0.7546771E-02  0.1075086E+00
         21   -1    0    0  502  501  0.00000000000E+00  0.00000000000E+00  0.39212731227E+03  0.39212731227E+03  0.00000000000E+00 0. -1.
         21   -1    0    0  501  502 -0.00000000000E+00 -0.00000000000E+00 -0.26314453426E+03  0.26314453426E+03  0.00000000000E+00 0. -1.
         25    1    1    2    0    0  0.15583126245E+03  0.14069206721E+03  0.54484479608E+02  0.25034216315E+03  0.12500000000E+03 0.  0.
         25    1    1    2    0    0 -0.85213404417E+02 -0.16268507241E+03  0.12030024137E+03  0.25263591421E+03  0.12500000000E+03 0.  0.
         25    1    1    2    0    0 -0.70617858031E+02  0.21993005207E+02 -0.45801942961E+02  0.15229376918E+03  0.12500000000E+03 0.  0.
</event>
<event>
 5    0  0.5590591E-005  0.3610497E+03  0.7546771E-02  0.1058169E+00
         21   -1    0    0  502  501  0.00000000000E+00  0.00000000000E+00  0.96947365814E+03  0.96947365814E+03  0.00000000000E+00 0. -1.
         21   -1    0    0  501  502 -0.00000000000E+00 -0.00000000000E+00 -0.13446149053E+03  0.13446149053E+03  0.00000000000E+00 0. -1.
         25    1    1    2    0    0 -0.28794883927E+02 -0.45894462546E+02  0.89796297877E+02  0.16316807943E+03  0.12500000000E+03 0.  0.
         25    1    1    2    0    0  0.62876261501E+02  0.24490844679E+03  0.19909557799E+03  0.34525008436E+03  0.12500000000E+03 0.  0.
         25    1    1    2    0    0 -0.34081377575E+02 -0.19901398425E+03  0.54612029175E+03  0.59551698488E+03  0.12500000000E+03 0.  0.
</event>
<event>
 5    0  0.5590591E-005  0.3612584E+03  0.7546771E-02  0.1058087E+00
         21   -1    0    0  502  501  0.00000000000E+00  0.00000000000E+00  0.19296567608E+03  0.19296567608E+03  0.00000000000E+00 0.  1.
         21   -1    0    0  501  502 -0.00000000000E+00 -0.00000000000E+00 -0.67632567945E+03  0.67632567945E+03  0.00000000000E+00 0.  1.
         25    1    1    2    0    0 -0.69332834253E+02 -0.29116049785E+02  0.91895830050E+02  0.17240832300E+03  0.12500000000E+03 0.  0.
         25    1    1    2    0    0 -0.76367293778E+02  0.10353013461E+03 -0.19850500980E+03  0.26754381183E+03  0.12500000000E+03 0.  0.
         25    1    1    2    0    0  0.14570012803E+03 -0.74414084821E+02 -0.37675082362E+03  0.42933922070E+03  0.12500000000E+03 0.  0.
</event>
<event>
 5    0  0.5824837E-005  0.2702857E+03  0.7546771E-02  0.1101116E+00
         21   -1    0    0  502  501  0.00000000000E+00  0.00000000000E+00  0.38552713105E+03  0.38552713105E+03  0.00000000000E+00 0.  1.
         21   -1    0    0  501  502 -0.00000000000E+00 -0.00000000000E+00 -0.18949212680E+03  0.18949212680E+03  0.00000000000E+00 0.  1.
         25    1    1    2    0    0  0.50830305381E+00 -0.13728410203E+02 -0.50235594909E+02  0.13541544452E+03  0.12500000000E+03 0.  0.
         25    1    1    2    0    0  0.14856489855E+02 -0.10157841979E+03  0.20994399899E+03  0.26502900477E+03  0.12500000000E+03 0.  0.
         25    1    1    2    0    0 -0.15364792909E+02  0.11530682999E+03  0.36326600166E+02  0.17457480856E+03  0.12500000000E+03 0.  0.
</event>
<event>
 5    0  0.5590591E-005  0.3381335E+03  0.7546771E-02  0.1067594E+00
         21   -1    0    0  502  501  0.00000000000E+00  0.00000000000E+00  0.44630881619E+03  0.44630881619E+03  0.00000000000E+00 0. -1.
         21   -1    0    0  501  502 -0.00000000000E+00 -0.00000000000E+00 -0.25617753753E+03  0.25617753753E+03  0.00000000000E+00 0. -1.
         25    1    1    2    0    0 -0.14791547429E+03 -0.14427256873E+03  0.77007483166E+02  0.25347330054E+03  0.12500000000E+03 0.  0.
         25    1    1    2    0    0 -0.61037653367E+02  0.30368029890E+02  0.11042745559E+03  0.18018611299E+03  0.12500000000E+03 0.  0.
         25    1    1    2    0    0  0.20895312765E+03  0.11390453884E+03  0.26963399014E+01  0.26882694019E+03  0.12500000000E+03 0.  0.
</event>
<event>
 5    0  0.5590591E-005  0.3753764E+03  0.7546771E-02  0.1052656E+00
         21   -1    0    0  502  501  0.00000000000E+00  0.00000000000E+00  0.36270349883E+03  0.36270349883E+03  0.00000000000E+00 0. -1.
         21   -1    0    0  501  502 -0.00000000000E+00 -0.00000000000E+00 -0.38849209762E+03  0.38849209762E+03  0.00000000000E+00 0. -1.
         25    1    1    2    0    0 -0.21767584425E+03  0.98077203694E+02 -0.11239968763E+03  0.29199417945E+03  0.12500000000E+03 0.  0.
         25    1    1    2    0    0  0.13893225471E+03 -0.12714418795E+03  0.17387351308E+03  0.28517505936E+03  0.12500000000E+03 0.  0.
         25    1    1    2    0    0  0.78743589537E+02  0.29066984252E+02 -0.87262424252E+02  0.17402635764E+03  0.12500000000E+03 0.  0.
</event>
<event>
 5    0  0.5590591E-005  0.5722077E+03  0.7546771E-02  0.9964805E-01
         21   -1    0    0  502  501  0.00000000000E+00  0.00000000000E+00  0.18969260428E+03  0.18969260428E+03  0.00000000000E+00 0. -1.
         21   -1    0    0  501  502 -0.00000000000E+00 -0.00000000000E+00 -0.17260641546E+04  0.17260641546E+04  0.00000000000E+00 0. -1.
         25    1    1    2    0    0 -0.99839290346E+02  0.13770663581E+02 -0.77486561058E+03  0.79132751092E+03  0.12500000000E+03 0.  0.
         25    1    1    2    0    0 -0.24813281081E+03 -0.10342495421E+03 -0.27571196676E+02  0.29774449422E+03  0.12500000000E+03 0.  0.
         25    1    1    2    0    0  0.34797210115E+03  0.89654290624E+02 -0.73393474309E+03  0.82668475377E+03  0.12500000000E+03 0.  0.
</event>
<event>
 5    0  0.5590591E-005  0.3630044E+03  0.7546771E-02  0.1057401E+00
         21   -1    0    0  502  501  0.00000000000E+00  0.00000000000E+00  0.19669496227E+03  0.19669496227E+03  0.00000000000E+00 0.  1.
         21   -1    0    0  501  502 -0.00000000000E+00 -0.00000000000E+00 -0.66993153938E+03  0.66993153938E+03  0.00000000000E+00 0. -1.
         25    1    1    2    0    0 -0.54580003382E+02  0.67827607305E+02 -0.17469948666E+03  0.23178540015E+03  0.12500000000E+03 0.  0.
         25    1    1    2    0    0  0.15436353467E+02 -0.25769569199E+03 -0.42060331675E+02  0.28989553667E+03  0.12500000000E+03 0.  0.
         25    1    1    2    0    0  0.39143649915E+02  0.18986808469E+03 -0.25647675877E+03  0.34494556484E+03  0.12500000000E+03 0.  0.
</event>
<event>
 5    0  0.5590591E-005  0.3970675E+03  0.7546771E-02  0.1044800E+00
         21   -1    0    0  502  501  0.00000000000E+00  0.00000000000E+00  0.32136915848E+03  0.32136915848E+03  0.00000000000E+00 0. -1.
         21   -1    0    0  501  502 -0.00000000000E+00 -0.00000000000E+00 -0.49059649963E+03  0.49059649963E+03  0.00000000000E+00 0. -1.
         25    1    1    2    0    0 -0.20504493498E+02  0.90918633739E+01 -0.40592571040E+03  0.42532784837E+03  0.12500000000E+03 0.  0.
         25    1    1    2    0    0 -0.71963714219E+02 -0.11040183068E+01  0.15141350327E+03  0.20911968820E+03  0.12500000000E+03 0.  0.
         25    1    1    2    0    0  0.92468207718E+02 -0.79878450671E+01  0.85284865990E+02  0.17751812154E+03  0.12500000000E+03 0.  0.
</event>
<event>
 5    0  0.5590591E-005  0.4809551E+03  0.7546771E-02  0.1018873E+00
         21   -1    0    0  502  501  0.00000000000E+00  0.00000000000E+00  0.10926478506E+04  0.10926478506E+04  0.00000000000E+00 0. -1.
         21   -1    0    0  501  502 -0.00000000000E+00 -0.00000000000E+00 -0.21170387078E+03  0.21170387078E+03  0.00000000000E+00 0. -1.
         25    1    1    2    0    0  0.11859545241E+03 -0.45581629900E+02  0.13441891124E+03  0.22323980383E+03  0.12500000000E+03 0.  0.
         25    1    1    2    0    0  0.18805710802E+03 -0.18945393287E+03  0.88298783394E+02  0.30770106224E+03  0.12500000000E+03 0.  0.
         25    1    1    2    0    0 -0.30665256043E+03  0.23503556277E+03  0.65822628521E+03  0.77341085532E+03  0.12500000000E+03 0.  0.
</event>
<event>
 5    0  0.5590591E-005  0.4082301E+03  0.7546771E-02  0.1040967E+00
         21   -1    0    0  502  501  0.00000000000E+00  0.00000000000E+00  0.29797335699E+03  0.29797335699E+03  0.00000000000E+00 0.  1.
         21   -1    0    0  501  502 -0.00000000000E+00 -0.00000000000E+00 -0.55928426918E+03  0.55928426918E+03  0.00000000000E+00 0.  1.
         25    1    1    2    0    0  0.63970174132E+01  0.24279767360E+02 -0.27952099752E+03  0.30722535213E+03  0.12500000000E+03 0.  0.
         25    1    1    2    0    0 -0.84342742650E+02  0.16887323594E+03  0.15201617135E+03  0.27270090650E+03  0.12500000000E+03 0.  0.
         25    1    1    2    0    0  0.77945725237E+02 -0.19315300329E+03 -0.13380608602E+03  0.27733136754E+03  0.12500000000E+03 0.  0.
</event>
<event>
 5    0  0.5590591E-005  0.3049408E+03  0.7546771E-02  0.1082797E+00
         21   -1    0    0  502  501  0.00000000000E+00  0.00000000000E+00  0.30176807891E+03  0.30176807891E+03  0.00000000000E+00 0.  1.
         21   -1    0    0  501  502 -0.00000000000E+00 -0.00000000000E+00 -0.30814686531E+03  0.30814686531E+03  0.00000000000E+00 0.  1.
         25    1    1    2    0    0  0.22624384409E+02  0.91621175573E+02 -0.95888774217E+02  0.18364628938E+03  0.12500000000E+03 0.  0.
         25    1    1    2    0    0  0.50720066733E+02 -0.18102944831E+03 -0.15348645015E+02  0.22628470392E+03  0.12500000000E+03 0.  0.
         25    1    1    2    0    0 -0.73344451142E+02  0.89408272733E+02  0.10485863283E+03  0.19998395092E+03  0.12500000000E+03 0.  0.
</event>
<event>
 5    0  0.5590591E-005  0.2923975E+03  0.7546771E-02  0.1089104E+00
         21   -1    0    0  502  501  0.00000000000E+00  0.00000000000E+00  0.47510629583E+03  0.47510629583E+03  0.00000000000E+00 0. -1.
         21   -1    0    0  501  502 -0.00000000000E+00 -0.00000000000E+00 -0.17995196394E+03  0.17995196394E+03  0.00000000000E+00 0. -1.
         25    1    1    2    0    0 -0.76916054387E+02  0.22936717026E+02  0.33815073961E+03  0.36934143432E+03  0.12500000000E+03 0.  0.
         25    1    1    2    0    0  0.26439074039E+02  0.39432970518E+02 -0.25935166625E+02  0.13620431956E+03  0.12500000000E+03 0.  0.
         25    1    1    2    0    0  0.50476980348E+02 -0.62369687544E+02 -0.17061241092E+02  0.14951250589E+03  0.12500000000E+03 0.  0.
</event>
<event>
 5    0  0.7480882E-005  0.3834023E+03  0.7546771E-02  0.1049683E+00
         21   -1    0    0  502  501  0.00000000000E+00  0.00000000000E+00  0.33942911841E+03  0.33942911841E+03  0.00000000000E+00 0.  1.
         21   -1    0    0  501  502 -0.00000000000E+00 -0.00000000000E+00 -0.43307230584E+03  0.43307230584E+03  0.00000000000E+00 0.  1.
         25    1    1    2    0    0  0.53502334547E+02 -0.14125477981E+03  0.16633210491E+03  0.25711239127E+03  0.12500000000E+03 0.  0.
         25    1    1    2    0    0  0.76037033550E+02 -0.67122874562E+02 -0.14616155926E+03  0.21742886691E+03  0.12500000000E+03 0.  0.
         25    1    1    2    0    0 -0.12953936810E+03  0.20837765437E+03 -0.11381373309E+03  0.29796016607E+03  0.12500000000E+03 0.  0.
</event>
<event>
 5    0  0.5590591E-005  0.3872567E+03  0.7546771E-02  0.1048284E+00
         21   -1    0    0  502  501  0.00000000000E+00  0.00000000000E+00  0.25887878202E+03  0.25887878202E+03  0.00000000000E+00 0.  1.
         21   -1    0    0  501  502 -0.00000000000E+00 -0.00000000000E+00 -0.57929719778E+03  0.57929719778E+03  0.00000000000E+00 0.  1.
         25    1    1    2    0    0 -0.33030541653E+02  0.30649695244E+03 -0.92995363441E+02  0.34540488728E+03  0.12500000000E+03 0.  0.
         25    1    1    2    0    0 -0.16392081944E+02 -0.29818994814E+02 -0.68185287889E+02  0.14639708428E+03  0.12500000000E+03 0.  0.
         25    1    1    2    0    0  0.49422623598E+02 -0.27667795763E+03 -0.15923776443E+03  0.34637400823E+03  0.12500000000E+03 0.  0.
</event>
<event>
 5    0  0.5590591E-005  0.6017017E+03  0.7546771E-02  0.9901882E-01
         21   -1    0    0  502  501  0.00000000000E+00  0.00000000000E+00  0.19976977997E+03  0.19976977997E+03  0.00000000000E+00 0. -1.
         21   -1    0    0  501  502 -0.00000000000E+00 -0.00000000000E+00 -0.18123107334E+04  0.18123107334E+04  0.00000000000E+00 0. -1.
         25    1    1    2    0    0  0.42229368006E+03 -0.35919690409E+03 -0.71444971552E+03  0.91291717266E+03  0.12500000000E+03 0.  0.
         25    1    1    2    0    0 -0.13819842312E+03  0.13851483364E+03 -0.48255812949E+03  0.53551144865E+03  0.12500000000E+03 0.  0.
         25    1    1    2    0    0 -0.28409525695E+03  0.22068207045E+03 -0.41553310838E+03  0.56365189204E+03  0.12500000000E+03 0.  0.
</event>
<event>
 5    0  0.5590591E-005  0.2930596E+03  0.7546771E-02  0.1088762E+00
         21   -1    0    0  502  501  0.00000000000E+00  0.00000000000E+00  0.14924232392E+04  0.14924232392E+04  0.00000000000E+00 0.  1.
         21   -1    0    0  501  502 -0.00000000000E+00 -0.00000000000E+00 -0.57546633347E+02  0.57546633347E+02  0.00000000000E+00 0.  1.
         25    1    1    2    0    0  0.46807286919E+02 -0.40944907512E+02  0.29241939376E+03  0.32403936398E+03  0.12500000000E+03 0.  0.
         25    1    1    2    0    0  0.13443942092E+01 -0.15698151809E+03  0.43155840715E+03  0.47593346509E+03  0.12500000000E+03 0.  0.
         25    1    1    2    0    0 -0.48151681128E+02  0.19792642561E+03  0.71089880499E+03  0.74999704352E+03  0.12500000000E+03 0.  0.
</event>
<event>
 5    0  0.5590591E-005  0.3014096E+03  0.7546771E-02  0.1084538E+00
         21   -1    0    0  502  501  0.00000000000E+00  0.00000000000E+00  0.21806471519E+03  0.21806471519E+03  0.00000000000E+00 0.  1.
         21   -1    0    0  501  502 -0.00000000000E+00 -0.00000000000E+00 -0.41660907177E+03  0.41660907177E+03  0.00000000000E+00 0.  1.
         25    1    1    2    0    0 -0.17342248676E+03  0.75465255840E+02 -0.89691750426E+02  0.24380314568E+03  0.12500000000E+03 0.  0.
         25    1    1    2    0    0  0.15328966756E+03 -0.12766478900E+03 -0.92545151505E+02  0.25295380131E+03  0.12500000000E+03 0.  0.
         25    1    1    2    0    0  0.20132819199E+02  0.52199533156E+02 -0.16307454652E+02  0.13791683997E+03  0.12500000000E+03 0.  0.
</event>
<event>
 5    0  0.5590591E-005  0.2563414E+03  0.7546771E-02  0.1109362E+00
         21   -1    0    0  502  501  0.00000000000E+00  0.00000000000E+00  0.14931620693E+03  0.14931620693E+03  0.00000000000E+00 0.  1.
         21   -1    0    0  501  502 -0.00000000000E+00 -0.00000000000E+00 -0.44007889518E+03  0.44007889518E+03  0.00000000000E+00 0.  1.
         25    1    1    2    0    0 -0.42204856394E+02 -0.15582733172E+02 -0.12236284902E+03  0.18061488947E+03  0.12500000000E+03 0.  0.
         25    1    1    2    0    0 -0.11594191313E+03  0.35536563975E+01 -0.78734904893E+02  0.18782795570E+03  0.12500000000E+03 0.  0.
         25    1    1    2    0    0  0.15814676953E+03  0.12029076775E+02 -0.89664934331E+02  0.22095225694E+03  0.12500000000E+03 0.  0.
</event>
<event>
 5    0  0.5590591E-005  0.2464340E+03  0.7546771E-02  0.1115579E+00
         21   -1    0    0  502  501  0.00000000000E+00  0.00000000000E+00  0.16892899427E+03  0.16892899427E+03  0.00000000000E+00 0. -1.
         21   -1    0    0  501  502 -0.00000000000E+00 -0.00000000000E+00 -0.35949843163E+03  0.35949843163E+03  0.00000000000E+00 0. -1.
         25    1    1    2    0    0 -0.47683175571E+02  0.37073929020E+02  0.47682357589E+02  0.14678817620E+03  0.12500000000E+03 0.  0.
         25    1    1    2    0    0  0.55412163792E+02 -0.67104619781E+02 -0.64606244570E+02  0.16544638022E+03  0.12500000000E+03 0.  0.
         25    1    1    2    0    0 -0.77289882208E+01  0.30030690761E+02 -0.17364555038E+03  0.21619286948E+03  0.12500000000E+03 0.  0.
</event>
<event>
 5    0  0.5590591E-005  0.3314178E+03  0.7546771E-02  0.1070511E+00
         21   -1    0    0  502  501  0.00000000000E+00  0.00000000000E+00  0.16181475980E+03  0.16181475980E+03  0.00000000000E+00 0.  1.
         21   -1    0    0  501  502 -0.00000000000E+00 -0.00000000000E+00 -0.67878711144E+03  0.67878711144E+03  0.00000000000E+00 0.  1.
         25    1    1    2    0    0  0.36993805944E+02  0.25580167315E+03 -0.22341982453E+03  0.36379177513E+03  0.12500000000E+03 0.  0.
         25    1    1    2    0    0 -0.45904927917E+02 -0.19451179406E+03 -0.19624049183E+03  0.30672044449E+03  0.12500000000E+03 0.  0.
         25    1    1    2    0    0  0.89111219738E+01 -0.61289879086E+02 -0.97312035282E+02  0.17008965161E+03  0.12500000000E+03 0.  0.
</event>
<event>
 5    0  0.5590591E-005  0.2742795E+03  0.7546771E-02  0.1098855E+00
         21   -1    0    0  502  501  0.00000000000E+00  0.00000000000E+00  0.15878211770E+04  0.15878211770E+04  0.00000000000E+00 0. -1.
         21   -1    0    0  501  502 -0.00000000000E+00 -0.00000000000E+00 -0.47378906806E+02  0.47378906806E+02  0.00000000000E+00 0. -1.
         25    1    1    2    0    0  0.39326638378E+02  0.16894408646E+02  0.11811747611E+04  0.11885414682E+04  0.12500000000E+03 0.  0.
         25    1    1    2    0    0 -0.53482928211E+02 -0.22181060854E+01  0.15379641136E+03  0.20528925874E+03  0.12500000000E+03 0.  0.
         25    1    1    2    0    0  0.14156289833E+02 -0.14676302560E+02  0.20547109770E+03  0.24136935678E+03  0.12500000000E+03 0.  0.
</event>
<event>
 5    0  0.5590591E-005  0.2262321E+03  0.7546771E-02  0.1129320E+00
         21   -1    0    0  502  501  0.00000000000E+00  0.00000000000E+00  0.70930929931E+03  0.70930929931E+03  0.00000000000E+00 0. -1.
         21   -1    0    0  501  502 -0.00000000000E+00 -0.00000000000E+00 -0.72156026362E+02  0.72156026362E+02  0.00000000000E+00 0. -1.
         25    1    1    2    0    0  0.18740893397E+02  0.11228243620E+03  0.23477389995E+03  0.28931358534E+03  0.12500000000E+03 0.  0.
         25    1    1    2    0    0  0.11072994195E+02 -0.54090613780E+02  0.24705197658E+03  0.28232620288E+03  0.12500000000E+03 0.  0.
         25    1    1    2    0    0 -0.29813887592E+02 -0.58191822421E+02  0.15532739641E+03  0.20982553745E+03  0.12500000000E+03 0.  0.
</event>
<event>
 5    0  0.5590591E-005  0.2760626E+03  0.7546771E-02  0.1097859E+00
         21   -1    0    0  502  501  0.00000000000E+00  0.00000000000E+00  0.40185846307E+03  0.40185846307E+03  0.00000000000E+00 0. -1.
         21   -1    0    0  501  502 -0.00000000000E+00 -0.00000000000E+00 -0.18964527294E+03  0.18964527294E+03  0.00000000000E+00 0. -1.
         25    1    1    2    0    0  0.13453481582E+03  0.47801279110E+02  0.72069268949E+02  0.20298659680E+03  0.12500000000E+03 0.  0.
         25    1    1    2    0    0 -0.13995606031E+03  0.44692955607E+01 -0.77584006905E+01  0.18786395663E+03  0.12500000000E+03 0.  0.
         25    1    1    2    0    0  0.54212444876E+01 -0.52270574671E+02  0.14790232187E+03  0.20065318258E+03  0.12500000000E+03 0.  0.
</event>
<event>
 5    0  0.5590591E-005  0.2292702E+03  0.7546771E-02  0.1127155E+00
         21   -1    0    0  502  501  0.00000000000E+00  0.00000000000E+00  0.30341602123E+03  0.30341602123E+03  0.00000000000E+00 0. -1.
         21   -1    0    0  501  502 -0.00000000000E+00 -0.00000000000E+00 -0.17324334729E+03  0.17324334729E+03  0.00000000000E+00 0. -1.
         25    1    1    2    0    0  0.34075326939E+02 -0.42537692841E+02  0.20103549816E+02  0.13783952965E+03  0.12500000000E+03 0.  0.
         25    1    1    2    0    0 -0.37212089931E+01  0.98402349596E+02 -0.22519766845E+01  0.15914440361E+03  0.12500000000E+03 0.  0.
         25    1    1    2    0    0 -0.30354117946E+02 -0.55864656755E+02  0.11232110080E+03  0.17967543526E+03  0.12500000000E+03 0.  0.
</event>
<event>
 5    0  0.5590591E-005  0.4069506E+03  0.7546771E-02  0.1041399E+00
         21   -1    0    0  502  501  0.00000000000E+00  0.00000000000E+00  0.21645150102E+03  0.21645150102E+03  0.00000000000E+00 0. -1.
         21   -1    0    0  501  502 -0.00000000000E+00 -0.00000000000E+00 -0.76510789023E+03  0.76510789023E+03  0.00000000000E+00 0. -1.
         25    1    1    2    0    0  0.10829605865E+02  0.10834944390E+03 -0.38960925110E+03  0.42341144398E+03  0.12500000000E+03 0.  0.
         25    1    1    2    0    0 -0.17023554535E+03 -0.19481837922E+03 -0.17648566180E+03  0.33720398960E+03  0.12500000000E+03 0.  0.
         25    1    1    2    0    0  0.15940593948E+03  0.86468935319E+02  0.17438523692E+02  0.22094395766E+03  0.12500000000E+03 0.  0.
</event>
<event>
 5    0  0.5590591E-005  0.2188489E+03  0.7546771E-02  0.1134744E+00
         21   -1    0    0  502  501  0.00000000000E+00  0.00000000000E+00  0.41866811967E+03  0.41866811967E+03  0.00000000000E+00 0.  1.
         21   -1    0    0  501  502 -0.00000000000E+00 -0.00000000000E+00 -0.11439808801E+03  0.11439808801E+03  0.00000000000E+00 0.  1.
         25    1    1    2    0    0  0.14373598740E+01 -0.56865091819E+02  0.12552348288E+03  0.18605603840E+03  0.12500000000E+03 0.  0.
         25    1    1    2    0    0  0.38776433635E+02  0.30099531871E+02  0.14564742028E+02  0.13508044024E+03  0.12500000000E+03 0.  0.
         25    1    1    2    0    0 -0.40213793509E+02  0.26765559948E+02  0.16418180676E+03  0.21192972906E+03  0.12500000000E+03 0.  0.
</event>
<event>
 5    0  0.6259617E-005  0.3058993E+03  0.7546771E-02  0.1082328E+00
         21   -1    0    0  502  501  0.00000000000E+00  0.00000000000E+00  0.51282199091E+03  0.51282199091E+03  0.00000000000E+00 0. -1.
         21   -1    0    0  501  502 -0.00000000000E+00 -0.00000000000E+00 -0.18246949438E+03  0.18246949438E+03  0.00000000000E+00 0. -1.
         25    1    1    2    0    0  0.34446848004E+01 -0.62833914773E+02  0.24644456390E+03  0.28340763888E+03  0.12500000000E+03 0.  0.
         25    1    1    2    0    0  0.54618927079E+02 -0.10878504256E+03  0.79478299514E+02  0.19172692240E+03  0.12500000000E+03 0.  0.
         25    1    1    2    0    0 -0.58063611880E+02  0.17161895734E+03  0.44296331225E+01  0.22015692401E+03  0.12500000000E+03 0.  0.
</event>
<event>
 5    0  0.5590591E-005  0.3943370E+03  0.7546771E-02  0.1045758E+00
         21   -1    0    0  502  501  0.00000000000E+00  0.00000000000E+00  0.34519722041E+03  0.34519722041E+03  0.00000000000E+00 0.  1.
         21   -1    0    0  501  502 -0.00000000000E+00 -0.00000000000E+00 -0.45047189800E+03  0.45047189800E+03  0.00000000000E+00 0.  1.
         25    1    1    2    0    0  0.15496502332E+03 -0.10335691274E+03 -0.10696527221E+03  0.24852239199E+03  0.12500000000E+03 0.  0.
         25    1    1    2    0    0 -0.90959087573E+02  0.21508175633E+03 -0.15672899405E+03  0.30777052343E+03  0.12500000000E+03 0.  0.
         25    1    1    2    0    0 -0.64005935751E+02 -0.11172484359E+03  0.15841958866E+03  0.23937620299E+03  0.12500000000E+03 0.  0.
</event>
<event>
 5    0  0.5590591E-005  0.3586615E+03  0.7546771E-02  0.1059115E+00
         21   -1    0    0  502  501  0.00000000000E+00  0.00000000000E+00  0.16783714718E+03  0.16783714718E+03  0.00000000000E+00 0.  1.
         21   -1    0    0  501  502 -0.00000000000E+00 -0.00000000000E+00 -0.76644580030E+03  0.76644580030E+03  0.00000000000E+00 0.  1.
         25    1    1    2    0    0  0.25286509555E+02 -0.18289043244E+03 -0.14900420095E+03  0.26817078466E+03  0.12500000000E+03 0.  0.
         25    1    1    2    0    0  0.71851488794E+02 -0.33720649902E+02 -0.34981494947E+03  0.37986210333E+03  0.12500000000E+03 0.  0.
         25    1    1    2    0    0 -0.97137998348E+02  0.21661108234E+03 -0.99789502693E+02  0.28625005950E+03  0.12500000000E+03 0.  0.
</event>
<event>
 5    0  0.5590591E-005  0.2252264E+03  0.7546771E-02  0.1130045E+00
         21   -1    0    0  502  501  0.00000000000E+00  0.00000000000E+00  0.23283678118E+04  0.23283678118E+04  0.00000000000E+00 0. -1.
         21   -1    0    0  501  502 -0.00000000000E+00 -0.00000000000E+00 -0.21786478422E+02  0.21786478422E+02  0.00000000000E+00 0. -1.
         25    1    1    2    0    0 -0.18661727477E+02 -0.55092281631E+01  0.43339059398E+03  0.45147648734E+03  0.12500000000E+03 0.  0.
         25    1    1    2    0    0  0.50708949437E+02  0.82749391115E+02  0.86985465845E+03  0.88413290070E+03  0.12500000000E+03 0.  0.
         25    1    1    2    0    0 -0.32047221960E+02 -0.77240162952E+02  0.10033360810E+04  0.10145449022E+04  0.12500000000E+03 0.  0.
</event>
<event>
 5    0  0.5590591E-005  0.2830555E+03  0.7546771E-02  0.1094032E+00
         21   -1    0    0  502  501  0.00000000000E+00  0.00000000000E+00  0.60123555797E+03  0.60123555797E+03  0.00000000000E+00 0.  1.
         21   -1    0    0  501  502 -0.00000000000E+00 -0.00000000000E+00 -0.13325958604E+03  0.13325958604E+03  0.00000000000E+00 0.  1.
         25    1    1    2    0    0  0.72712453501E+02  0.30206896008E+02  0.15212051763E+03  0.21205001614E+03  0.12500000000E+03 0.  0.
         25    1    1    2    0    0 -0.13255968030E+03 -0.13126699720E+03  0.97594728672E+02  0.24485265867E+03  0.12500000000E+03 0.  0.
         25    1    1    2    0    0  0.59847226798E+02  0.10106010119E+03  0.21826072563E+03  0.27759246921E+03  0.12500000000E+03 0.  0.
</event>
<event>
 5    0  0.5602292E-005  0.6001112E+03  0.7546771E-02  0.9905175E-01
         21   -1    0    0  502  501  0.00000000000E+00  0.00000000000E+00  0.30720716071E+03  0.30720716071E+03  0.00000000000E+00 0. -1.
         21   -1    0    0  501  502 -0.00000000000E+00 -0.00000000000E+00 -0.11722819723E+04  0.11722819723E+04  0.00000000000E+00 0. -1.
         25    1    1    2    0    0 -0.57740556266E+02  0.41805338743E+02  0.92849193814E+02  0.17125311961E+03  0.12500000000E+03 0.  0.
         25    1    1    2    0    0 -0.24662627975E+03  0.23999041291E+03 -0.73475351244E+03  0.82091878051E+03  0.12500000000E+03 0.  0.
         25    1    1    2    0    0  0.30436683602E+03 -0.28179575165E+03 -0.22317049292E+03  0.48731723285E+03  0.12500000000E+03 0.  0.
</event>
<event>
 5    0  0.5664163E-005  0.3244054E+03  0.7546771E-02  0.1073639E+00
         21   -1    0    0  502  501  0.00000000000E+00  0.00000000000E+00  0.62152470589E+03  0.62152470589E+03  0.00000000000E+00 0.  1.
         21   -1    0    0  501  502 -0.00000000000E+00 -0.00000000000E+00 -0.16932371475E+03  0.16932371475E+03  0.00000000000E+00 0.  1.
         25    1    1    2    0    0  0.57789352281E+02 -0.75188035272E+02  0.13518429155E+03  0.20710539000E+03  0.12500000000E+03 0.  0.
         25    1    1    2    0    0 -0.21339934318E+03  0.73022349338E+02  0.72045353323E+02  0.26774442311E+03  0.12500000000E+03 0.  0.
         25    1    1    2    0    0  0.15560999090E+03  0.21656859335E+01  0.24497134627E+03  0.31599860752E+03  0.12500000000E+03 0.  0.
</event>
<event>
 5    0  0.5590591E-005  0.2618428E+03  0.7546771E-02  0.1106041E+00
         21   -1    0    0  502  501  0.00000000000E+00  0.00000000000E+00  0.40969262894E+03  0.40969262894E+03  0.00000000000E+00 0. -1.
         21   -1    0    0  501  502 -0.00000000000E+00 -0.00000000000E+00 -0.16734893882E+03  0.16734893882E+03  0.00000000000E+00 0. -1.
         25    1    1    2    0    0 -0.90320941986E+01  0.10640767601E+02 -0.13308148964E+02  0.12647889741E+03  0.12500000000E+03 0.  0.
         25    1    1    2    0    0 -0.95582602097E+02  0.81256685188E+02  0.81544359707E+02  0.19496965228E+03  0.12500000000E+03 0.  0.
         25    1    1    2    0    0  0.10461469630E+03 -0.91897452789E+02  0.17410747937E+03  0.25559301807E+03  0.12500000000E+03 0.  0.
</event>
<event>
 5    0  0.5590591E-005  0.3366459E+03  0.7546771E-02  0.1068234E+00
         21   -1    0    0  502  501  0.00000000000E+00  0.00000000000E+00  0.11336298799E+04  0.11336298799E+04  0.00000000000E+00 0. -1.
         21   -1    0    0  501  502 -0.00000000000E+00 -0.00000000000E+00 -0.99971321695E+02  0.99971321695E+02  0.00000000000E+00 0. -1.
         25    1    1    2    0    0  0.16847067892E+03 -0.17245401593E+03  0.42846233735E+03  0.50727480895E+03  0.12500000000E+03 0.  0.
         25    1    1    2    0    0  0.25984369407E+02  0.86044506969E+02  0.20972646454E+03  0.26017116397E+03  0.12500000000E+03 0.  0.
         25    1    1    2    0    0 -0.19445504833E+03  0.86409508957E+02  0.39546975627E+03  0.46615522863E+03  0.12500000000E+03 0.  0.
</event>
<event>
 5    0  0.5590591E-005  0.3864293E+03  0.7546771E-02  0.1048583E+00
         21   -1    0    0  502  501  0.00000000000E+00  0.00000000000E+00  0.41003660977E+02  0.41003660977E+02  0.00000000000E+00 0.  1.
         21   -1    0    0  501  502 -0.00000000000E+00 -0.00000000000E+00 -0.36418118190E+04  0.36418118190E+04  0.00000000000E+00 0.  1.
         25    1    1    2    0    0 -0.13157169307E+03 -0.44889360346E+02 -0.62702510930E+03  0.65430241691E+03  0.12500000000E+03 0.  0.
         25    1    1    2    0    0 -0.10539170865E+03  0.19881193059E+03 -0.11236276427E+04  0.11527348678E+04  0.12500000000E+03 0.  0.
         25    1    1    2    0    0  0.23696340172E+03 -0.15392257024E+03 -0.18501554060E+04  0.18757781952E+04  0.12500000000E+03 0.  0.
</event>
<event>
 5    0  0.5590591E-005  0.2540923E+03  0.7546771E-02  0.1110746E+00
         21   -1    0    0  502  501  0.00000000000E+00  0.00000000000E+00  0.40439303729E+03  0.40439303729E+03  0.00000000000E+00 0. -1.
         21   -1    0    0  501  502 -0.00000000000E+00 -0.00000000000E+00 -0.15965386895E+03  0.15965386895E+03  0.00000000000E+00 0. -1.
         25    1    1    2    0    0 -0.44312465395E+02 -0.14427744401E+03  0.66445474163E+02  0.20692891648E+03  0.12500000000E+03 0.  0.
         25    1    1    2    0    0 -0.28778755274E+02  0.57585534452E+02  0.84367065217E+02  0.16397290089E+03  0.12500000000E+03 0.  0.
         25    1    1    2    0    0  0.73091220670E+02  0.86691909562E+02  0.93926628964E+02  0.19314508886E+03  0.12500000000E+03 0.  0.
</event>
<event>
 5    0  0.5590591E-005  0.4132477E+03  0.7546771E-02  0.1039287E+00
         21   -1    0    0  502  501  0.00000000000E+00  0.00000000000E+00  0.76982768857E+03  0.76982768857E+03  0.00000000000E+00 0. -1.
         21   -1    0    0  501  502 -0.00000000000E+00 -0.00000000000E+00 -0.22183360140E+03  0.22183360140E+03  0.00000000000E+00 0. -1.
         25    1    1    2    0    0 -0.37722236010E+02 -0.12324124100E+02 -0.41376554126E+02  0.13752043614E+03  0.12500000000E+03 0.  0.
         25    1    1    2    0    0 -0.21999046503E+03 -0.18206992793E+02  0.74873068443E+02  0.26449626778E+03  0.12500000000E+03 0.  0.
         25    1    1    2    0    0  0.25771270104E+03  0.30531116893E+02  0.51449757286E+03  0.58964458605E+03  0.12500000000E+03 0.  0.
</event>
<event>
 5    0  0.8696461E-005  0.4715698E+03  0.7546771E-02  0.1021478E+00
         21   -1    0    0  502  501  0.00000000000E+00  0.00000000000E+00  0.97035022507E+03  0.97035022507E+03  0.00000000000E+00 0. -1.
         21   -1    0    0  501  502 -0.00000000000E+00 -0.00000000000E+00 -0.22917303082E+03  0.22917303082E+03  0.00000000000E+00 0. -1.
         25    1    1    2    0    0 -0.57396192662E+02 -0.96120146134E+02  0.63186465776E+03  0.65376704655E+03  0.12500000000E+03 0.  0.
         25    1    1    2    0    0 -0.99387153519E+02 -0.12488949567E+03 -0.48113507727E+02  0.20836290946E+03  0.12500000000E+03 0.  0.
         25    1    1    2    0    0  0.15678334618E+03  0.22100964181E+03  0.15742604422E+03  0.33739329989E+03  0.12500000000E+03 0.  0.
</event>
<event>
 5    0  0.5590591E-005  0.3179906E+03  0.7546771E-02  0.1076578E+00
         21   -1    0    0  502  501  0.00000000000E+00  0.00000000000E+00  0.84579362299E+02  0.84579362299E+02  0.00000000000E+00 0. -1.
         21   -1    0    0  501  502 -0.00000000000E+00 -0.00000000000E+00 -0.11955397545E+04  0.11955397545E+04  0.00000000000E+00 0. -1.
         25    1    1    2    0    0  0.98988506324E+01  0.15605066590E+02 -0.22439130135E+02  0.12833557538E+03  0.12500000000E+03 0.  0.
         25    1    1    2    0    0 -0.87693692904E+02  0.10531293070E+03 -0.50863601885E+03  0.54140243519E+03  0.12500000000E+03 0.  0.
         25    1    1    2    0    0  0.77794842271E+02 -0.12091799729E+03 -0.57988524321E+03  0.61038110623E+03  0.12500000000E+03 0.  0.
</event>
<event>
 5    0  0.5590591E-005  0.2917580E+03  0.7546771E-02  0.1089435E+00
         21   -1    0    0  502  501  0.00000000000E+00  0.00000000000E+00  0.49792489504E+03  0.49792489504E+03  0.00000000000E+00 0.  1.
         21   -1    0    0  501  502 -0.00000000000E+00 -0.00000000000E+00 -0.17095498134E+03  0.17095498134E+03  0.00000000000E+00 0. -1.
         25    1    1    2    0    0 -0.19026306166E+03  0.46441684876E+02  0.14502094263E+03  0.27388489649E+03  0.12500000000E+03 0.  0.
         25    1    1    2    0    0  0.11158463492E+03 -0.45305468617E+02  0.18287224289E+02  0.17453692678E+03  0.12500000000E+03 0.  0.
         25    1    1    2    0    0  0.78678426744E+02 -0.11362162584E+01  0.16366174679E+03  0.22045805312E+03  0.12500000000E+03 0.  0.
</event>
<event>
 5    0  0.5590591E-005  0.2986335E+03  0.7546771E-02  0.1085926E+00
         21   -1    0    0  502  501  0.00000000000E+00  0.00000000000E+00  0.66173204154E+03  0.66173204154E+03  0.00000000000E+00 0.  1.
         21   -1    0    0  501  502 -0.00000000000E+00 -0.00000000000E+00 -0.13477052703E+03  0.13477052703E+03  0.00000000000E+00 0.  1.
         25    1    1    2    0    0 -0.12657343856E+03 -0.13804774944E+02  0.18694317095E+03  0.25842630734E+03  0.12500000000E+03 0.  0.
         25    1    1    2    0    0  0.11491614463E+03 -0.26771772538E+02 -0.15619745060E+01  0.17190080821E+03  0.12500000000E+03 0.  0.
         25    1    1    2    0    0  0.11657293933E+02  0.40576547482E+02  0.34158031806E+03  0.36617545302E+03  0.12500000000E+03 0.  0.
</event>
<event>
 5    0  0.5590591E-005  0.2886002E+03  0.7546771E-02  0.1091082E+00
         21   -1    0    0  502  501  0.00000000000E+00  0.00000000000E+00  0.49619412875E+03  0.49619412875E+03  0.00000000000E+00 0.  1.
         21   -1    0    0  501  502 -0.00000000000E+00 -0.00000000000E+00 -0.16785780813E+03  0.16785780813E+03  0.00000000000E+00 0.  1.
         25    1    1    2    0    0 -0.96585664476E+02 -0.47740292802E+02  0.10567591947E+03  0.19596001147E+03  0.12500000000E+03 0.  0.
         25    1    1    2    0    0  0.11111721338E+03 -0.86197419547E+02  0.12005373684E+02  0.18853689094E+03  0.12500000000E+03 0.  0.
         25    1    1    2    0    0 -0.14531548907E+02  0.13393771235E+03  0.21065502747E+03  0.27955503448E+03  0.12500000000E+03 0.  0.
</event>
<event>
 5    0  0.5590591E-005  0.4160189E+03  0.7546771E-02  0.1038370E+00
         21   -1    0    0  502  501  0.00000000000E+00  0.00000000000E+00  0.65743179739E+03  0.65743179739E+03  0.00000000000E+00 0.  1.
         21   -1    0    0  501  502 -0.00000000000E+00 -0.00000000000E+00 -0.26325425214E+03  0.26325425214E+03  0.00000000000E+00 0.  1.
         25    1    1    2    0    0  0.15903331820E+02 -0.41921759856E+02 -0.17914104101E+03  0.22299520731E+03  0.12500000000E+03 0.  0.
         25    1    1    2    0    0 -0.97132859948E+02  0.10304482918E+03  0.46936772744E+03  0.50594870577E+03  0.12500000000E+03 0.  0.
         25    1    1    2    0    0  0.81229528128E+02 -0.61123069327E+02  0.10395085881E+03  0.19174213645E+03  0.12500000000E+03 0.  0.
</event>
<event>
 5    0  0.5668977E-005  0.2597247E+03  0.7546771E-02  0.1107309E+00
         21   -1    0    0  502  501  0.00000000000E+00  0.00000000000E+00  0.33115324128E+03  0.33115324128E+03  0.00000000000E+00 0.  1.
         21   -1    0    0  501  502 -0.00000000000E+00 -0.00000000000E+00 -0.20370307890E+03  0.20370307890E+03  0.00000000000E+00 0.  1.
         25    1    1    2    0    0  0.29451387034E+02 -0.29411438731E+02  0.13173627376E+03  0.18631119867E+03  0.12500000000E+03 0.  0.
         25    1    1    2    0    0  0.25646099559E+02  0.66381468393E+02 -0.10220661073E+03  0.17645229680E+03  0.12500000000E+03 0.  0.
         25    1    1    2    0    0 -0.55097486593E+02 -0.36970029662E+02  0.97920499353E+02  0.17209282471E+03  0.12500000000E+03 0.  0.
</event>
<event>
 5    0  0.5590591E-005  0.5652364E+03  0.7546771E-02  0.9980276E-01
         21   -1    0    0  502  501  0.00000000000E+00  0.00000000000E+00  0.17118629065E+04  0.17118629065E+04  0.00000000000E+00 0.  1.
         21   -1    0    0  501  502 -0.00000000000E+00 -0.00000000000E+00 -0.18663421050E+03  0.18663421050E+03  0.00000000000E+00 0.  1.
         25    1    1    2    0    0 -0.83791274011E+02 -0.10359742807E+03  0.34601306484E+03  0.39128435407E+03  0.12500000000E+03 0.  0.
         25    1    1    2    0    0  0.44947671510E+03 -0.12758220276E+03  0.53518098833E+03  0.72135305236E+03  0.12500000000E+03 0.  0.
         25    1    1    2    0    0 -0.36568544109E+03  0.23117963083E+03  0.64403464282E+03  0.78585971056E+03  0.12500000000E+03 0.  0.
</event>
<event>
 5    0  0.5590591E-005  0.3310915E+03  0.7546771E-02  0.1070655E+00
         21   -1    0    0  502  501  0.00000000000E+00  0.00000000000E+00  0.26001748063E+03  0.26001748063E+03  0.00000000000E+00 0. -1.
         21   -1    0    0  501  502 -0.00000000000E+00 -0.00000000000E+00 -0.42159302533E+03  0.42159302533E+03  0.00000000000E+00 0. -1.
         25    1    1    2    0    0  0.22015082959E+02 -0.12520401797E+03 -0.40595120699E+02  0.18284877308E+03  0.12500000000E+03 0.  0.
         25    1    1    2    0    0 -0.19805935571E+03  0.17773609049E+02 -0.10438953468E+03  0.25703226357E+03  0.12500000000E+03 0.  0.
         25    1    1    2    0    0  0.17604427275E+03  0.10743040892E+03 -0.16590889316E+02  0.24172946932E+03  0.12500000000E+03 0.  0.
</event>
<event>
 5    0  0.5590591E-005  0.2573865E+03  0.7546771E-02  0.1108724E+00
         21   -1    0    0  502  501  0.00000000000E+00  0.00000000000E+00  0.17161189830E+04  0.17161189830E+04  0.00000000000E+00 0.  1.
         21   -1    0    0  501  502 -0.00000000000E+00 -0.00000000000E+00 -0.38603286432E+02  0.38603286432E+02  0.00000000000E+00 0.  1.
         25    1    1    2    0    0  0.14492006690E+02 -0.44624837481E+02  0.58911599834E+03  0.60405633336E+03  0.12500000000E+03 0.  0.
         25    1    1    2    0    0 -0.97816709789E+02  0.12513526012E+03  0.62843258376E+03  0.66013593628E+03  0.12500000000E+03 0.  0.
         25    1    1    2    0    0  0.83324703099E+02 -0.80510422640E+02  0.45996711451E+03  0.49052999983E+03  0.12500000000E+03 0.  0.
</event>
<event>
 5    0  0.5590591E-005  0.2119447E+03  0.7546771E-02  0.1140035E+00
         21   -1    0    0  502  501  0.00000000000E+00  0.00000000000E+00  0.63688724026E+03  0.63688724026E+03  0.00000000000E+00 0. -1.
         21   -1    0    0  501  502 -0.00000000000E+00 -0.00000000000E+00 -0.70531424935E+02  0.70531424935E+02  0.00000000000E+00 0. -1.
         25    1    1    2    0    0  0.12394738327E+02 -0.36789185732E+02  0.20643702178E+03  0.24443469002E+03  0.12500000000E+03 0.  0.
         25    1    1    2    0    0 -0.18109747024E+02  0.90020795842E+02  0.18457542674E+03  0.24109084341E+03  0.12500000000E+03 0.  0.
         25    1    1    2    0    0  0.57150086972E+01 -0.53231610110E+02  0.17534336681E+03  0.22189313176E+03  0.12500000000E+03 0.  0.
</event>
<event>
 5    0  0.5590591E-005  0.3055749E+03  0.7546771E-02  0.1082486E+00
         21   -1    0    0  502  501  0.00000000000E+00  0.00000000000E+00  0.10529226622E+04  0.10529226622E+04  0.00000000000E+00 0. -1.
         21   -1    0    0  501  502 -0.00000000000E+00 -0.00000000000E+00 -0.88682719644E+02  0.88682719644E+02  0.00000000000E+00 0. -1.
         25    1    1    2    0    0  0.18697222341E+02 -0.32266223403E+02  0.92106389741E+02  0.15968494709E+03  0.12500000000E+03 0.  0.
         25    1    1    2    0    0 -0.15010751731E+02 -0.78476070387E+02  0.77420518565E+03  0.78829086369E+03  0.12500000000E+03 0.  0.
         25    1    1    2    0    0 -0.36864706098E+01  0.11074229379E+03  0.97928367192E+02  0.19362957109E+03  0.12500000000E+03 0.  0.
</event>
<event>
 5    0  0.5590591E-005  0.5802305E+03  0.7546771E-02  0.9947292E-01
         21   -1    0    0  502  501  0.00000000000E+00  0.00000000000E+00  0.19826178495E+03  0.19826178495E+03  0.00000000000E+00 0. -1.
         21   -1    0    0  501  502 -0.00000000000E+00 -0.00000000000E+00 -0.16980954865E+04  0.16980954865E+04  0.00000000000E+00 0. -1.
         25    1    1    2    0    0  0.21949969044E+03  0.40452789593E+03 -0.42213128804E+03  0.63690090048E+03  0.12500000000E+03 0.  0.
         25    1    1    2    0    0  0.11759074882E+02 -0.28072078412E+02 -0.52687300285E+03  0.54235272523E+03  0.12500000000E+03 0.  0.
         25    1    1    2    0    0 -0.23125876532E+03 -0.37645581752E+03 -0.55082941062E+03  0.71710364570E+03  0.12500000000E+03 0.  0.
</event>
<event>
 5    0  0.5590591E-005  0.2577692E+03  0.7546771E-02  0.1108491E+00
         21   -1    0    0  502  501  0.00000000000E+00  0.00000000000E+00  0.40952876670E+02  0.40952876670E+02  0.00000000000E+00 0.  1.
         21   -1    0    0  501  502 -0.00000000000E+00 -0.00000000000E+00 -0.16224738530E+04  0.16224738530E+04  0.00000000000E+00 0.  1.
         25    1    1    2    0    0  0.25499727370E+02 -0.10102421605E+03 -0.58441164085E+03  0.60664494911E+03  0.12500000000E+03 0.  0.
         25    1    1    2    0    0 -0.52373132044E+01  0.16470352898E+03 -0.54263620785E+03  0.58071829313E+03  0.12500000000E+03 0.  0.
         25    1    1    2    0    0 -0.20262414165E+02 -0.63679312930E+02 -0.45447312765E+03  0.47606348744E+03  0.12500000000E+03 0.  0.
</event>
<event>
 5    0  0.5590591E-005  0.3718609E+03  0.7546771E-02  0.1053984E+00
         21   -1    0    0  502  501  0.00000000000E+00  0.00000000000E+00  0.17082439002E+03  0.17082439002E+03  0.00000000000E+00 0.  1.
         21   -1    0    0  501  502 -0.00000000000E+00 -0.00000000000E+00 -0.80948952992E+03  0.80948952992E+03  0.00000000000E+00 0.  1.
         25    1    1    2    0    0 -0.86806285024E+02 -0.10680936827E+03 -0.47909460557E+03  0.51390681388E+03  0.12500000000E+03 0.  0.
         25    1    1    2    0    0  0.12281922935E+02 -0.10157801658E+03  0.83862965871E+01  0.16175372964E+03  0.12500000000E+03 0.  0.
         25    1    1    2    0    0  0.74524362089E+02  0.20838738484E+03 -0.16795683092E+03  0.30465337641E+03  0.12500000000E+03 0.  0.
</event>
<event>
 5    0  0.5590591E-005  0.2939055E+03  0.7546771E-02  0.1088327E+00
         21   -1    0    0  502  501  0.00000000000E+00  0.00000000000E+00  0.21991629233E+03  0.21991629233E+03  0.00000000000E+00 0.  1.
         21   -1    0    0  501  502 -0.00000000000E+00 -0.00000000000E+00 -0.39278782224E+03  0.39278782224E+03  0.00000000000E+00 0.  1.
         25    1    1    2    0    0  0.11076458886E+02  0.27176069136E+02 -0.10079020831E+03  0.16323263389E+03  0.12500000000E+03 0.  0.
         25    1    1    2    0    0 -0.16120584056E+03  0.72878075922E+02 -0.77090307095E+02  0.22992705893E+03  0.12500000000E+03 0.  0.
         25    1    1    2    0    0  0.15012938168E+03 -0.10005414506E+03  0.50089854977E+01  0.21954442175E+03  0.12500000000E+03 0.  0.
</event>
<event>
 5    0  0.5590591E-005  0.3628422E+03  0.7546771E-02  0.1057464E+00
         21   -1    0    0  502  501  0.00000000000E+00  0.00000000000E+00  0.68025398447E+03  0.68025398447E+03  0.00000000000E+00 0.  1.
         21   -1    0    0  501  502 -0.00000000000E+00 -0.00000000000E+00 -0.19353722431E+03  0.19353722431E+03  0.00000000000E+00 0.  1.
         25    1    1    2    0    0  0.22024195229E+02 -0.58481023162E+02  0.12271636596E+02  0.14028787656E+03  0.12500000000E+03 0.  0.
         25    1    1    2    0    0 -0.19259057925E+03 -0.10381008996E+03  0.93944071218E+02  0.26892034976E+03  0.12500000000E+03 0.  0.
         25    1    1    2    0    0  0.17056638403E+03  0.16229111312E+03  0.38050105235E+03  0.46458298247E+03  0.12500000000E+03 0.  0.
</event>
<event>
 5    0  0.5590591E-005  0.2552085E+03  0.7546771E-02  0.1110057E+00
         21   -1    0    0  502  501  0.00000000000E+00  0.00000000000E+00  0.41536396474E+03  0.41536396474E+03  0.00000000000E+00 0. -1.
         21   -1    0    0  501  502 -0.00000000000E+00 -0.00000000000E+00 -0.15680557338E+03  0.15680557338E+03  0.00000000000E+00 0. -1.
         25    1    1    2    0    0  0.41091259711E+02  0.12013377858E+03  0.11894190083E+03  0.21422603052E+03  0.12500000000E+03 0.  0.
         25    1    1    2    0    0  0.15251500484E+02 -0.14233228241E+03  0.91742423692E+02  0.21102786353E+03  0.12500000000E+03 0.  0.
         25    1    1    2    0    0 -0.56342760195E+02  0.22198503830E+02  0.47874066840E+02  0.14691564408E+03  0.12500000000E+03 0.  0.
</event>
<event>
 5    0  0.5590591E-005  0.3698427E+03  0.7546771E-02  0.1054753E+00
         21   -1    0    0  502  501  0.00000000000E+00  0.00000000000E+00  0.29238058051E+03  0.29238058051E+03  0.00000000000E+00 0. -1.
         21   -1    0    0  501  502 -0.00000000000E+00 -0.00000000000E+00 -0.46782731718E+03  0.46782731718E+03  0.00000000000E+00 0. -1.
         25    1    1    2    0    0 -0.19024090028E+03 -0.41719269538E+02 -0.62810147097E+02  0.23979618881E+03  0.12500000000E+03 0.  0.
         25    1    1    2    0    0  0.21332163433E+03  0.67285424493E+02  0.96945379404E+02  0.27396506093E+03  0.12500000000E+03 0.  0.
         25    1    1    2    0    0 -0.23080734052E+02 -0.25566154954E+02 -0.20958196898E+03  0.24644664795E+03  0.12500000000E+03 0.  0.
</event>
<event>
 5    0  0.5590591E-005  0.3134813E+03  0.7546771E-02  0.1078689E+00
         21   -1    0    0  502  501  0.00000000000E+00  0.00000000000E+00  0.93977878067E+02  0.93977878067E+02  0.00000000000E+00 0.  1.
         21   -1    0    0  501  502 -0.00000000000E+00 -0.00000000000E+00 -0.10456774301E+04  0.10456774301E+04  0.00000000000E+00 0.  1.
         25    1    1    2    0    0 -0.10491064649E+03 -0.15025337231E+03 -0.42229541284E+03  0.47701230104E+03  0.12500000000E+03 0.  0.
         25    1    1    2    0    0  0.69118614516E+02  0.81088516206E+02 -0.47996591792E+03  0.50729184175E+03  0.12500000000E+03 0.  0.
         25    1    1    2    0    0  0.35792031971E+02  0.69164856104E+02 -0.49438221313E+02  0.15535116543E+03  0.12500000000E+03 0.  0.
</event>
<event>
 5    0  0.5590591E-005  0.2964284E+03  0.7546771E-02  0.1087040E+00
         21   -1    0    0  502  501  0.00000000000E+00  0.00000000000E+00  0.44368086453E+02  0.44368086453E+02  0.00000000000E+00 0. -1.
         21   -1    0    0  501  502 -0.00000000000E+00 -0.00000000000E+00 -0.19804731793E+04  0.19804731793E+04  0.00000000000E+00 0. -1.
         25    1    1    2    0    0 -0.52734160018E+02  0.24156278881E+02 -0.13927843376E+04  0.13995848058E+04  0.12500000000E+03 0.  0.
         25    1    1    2    0    0  0.99190993157E+02 -0.60593640893E+02 -0.28245739365E+03  0.33002669842E+03  0.12500000000E+03 0.  0.
         25    1    1    2    0    0 -0.46456833139E+02  0.36437362012E+02 -0.26086336155E+03  0.29522976153E+03  0.12500000000E+03 0.  0.
</event>
<event>
 5    0  0.5590591E-005  0.3048544E+03  0.7546771E-02  0.1082839E+00
         21   -1    0    0  502  501  0.00000000000E+00  0.00000000000E+00  0.11754985665E+04  0.11754985665E+04  0.00000000000E+00 0.  1.
         21   -1    0    0  501  502 -0.00000000000E+00 -0.00000000000E+00 -0.79061080473E+02  0.79061080473E+02  0.00000000000E+00 0.  1.
         25    1    1    2    0    0  0.81133567162E+01  0.97079535330E+02  0.19099706835E+03  0.24818368773E+03  0.12500000000E+03 0.  0.
         25    1    1    2    0    0 -0.99197837397E+02 -0.10544870637E+03  0.79099038371E+03  0.81378770434E+03  0.12500000000E+03 0.  0.
         25    1    1    2    0    0  0.91084480681E+02  0.83691710411E+01  0.11445003393E+03  0.19258825487E+03  0.12500000000E+03 0.  0.
</event>
<event>
 5    0  0.5590591E-005  0.2693918E+03  0.7546771E-02  0.1101628E+00
         21   -1    0    0  502  501  0.00000000000E+00  0.00000000000E+00  0.46792285622E+03  0.46792285622E+03  0.00000000000E+00 0.  1.
         21   -1    0    0  501  502 -0.00000000000E+00 -0.00000000000E+00 -0.15509377159E+03  0.15509377159E+03  0.00000000000E+00 0.  1.
         25    1    1    2    0    0  0.46312980915E+02 -0.15618411563E+02 -0.53151712691E+02  0.14435695876E+03  0.12500000000E+03 0.  0.
         25    1    1    2    0    0 -0.51104390150E+02  0.27320371268E+02  0.31361495043E+03  0.34254546926E+03  0.12500000000E+03 0.  0.
         25    1    1    2    0    0  0.47914092352E+01 -0.11701959706E+02  0.52365846892E+02  0.13611419979E+03  0.12500000000E+03 0.  0.
</event>
<event>
 5    0  0.6300708E-005  0.4356667E+03  0.7546771E-02  0.1032085E+00
         21   -1    0    0  502  501  0.00000000000E+00  0.00000000000E+00  0.84270143450E+03  0.84270143450E+03  0.00000000000E+00 0.  1.
         21   -1    0    0  501  502 -0.00000000000E+00 -0.00000000000E+00 -0.22523457067E+03  0.22523457067E+03  0.00000000000E+00 0.  1.
         25    1    1    2    0    0  0.13850476756E+03 -0.19574422147E+03  0.81685068001E+02  0.28248331138E+03  0.12500000000E+03 0.  0.
         25    1    1    2    0    0 -0.26132982695E+03 -0.35427920592E+01  0.37961368033E+03  0.47753259169E+03  0.12500000000E+03 0.  0.
         25    1    1    2    0    0  0.12282505939E+03  0.19928701353E+03  0.15616811549E+03  0.30792010209E+03  0.12500000000E+03 0.  0.
</event>
<event>
 5    0  0.5590591E-005  0.3574010E+03  0.7546771E-02  0.1059618E+00
         21   -1    0    0  502  501  0.00000000000E+00  0.00000000000E+00  0.22585938220E+03  0.22585938220E+03  0.00000000000E+00 0. -1.
         21   -1    0    0  501  502 -0.00000000000E+00 -0.00000000000E+00 -0.56555319651E+03  0.56555319651E+03  0.00000000000E+00 0. -1.
         25    1    1    2    0    0  0.26288313151E+03  0.57645721878E+02 -0.51441521140E+02  0.30116739561E+03  0.12500000000E+03 0.  0.
         25    1    1    2    0    0 -0.14156915897E+03 -0.10476897183E+03 -0.16320336237E+03  0.27070039106E+03  0.12500000000E+03 0.  0.
         25    1    1    2    0    0 -0.12131397254E+03  0.47123249950E+02 -0.12504893080E+03  0.21954479204E+03  0.12500000000E+03 0.  0.
</event>
<event>
 5    0  0.5590591E-005  0.2553021E+03  0.7546771E-02  0.1109999E+00
         21   -1    0    0  502  501  0.00000000000E+00  0.00000000000E+00  0.14544331125E+03  0.14544331125E+03  0.00000000000E+00 0. -1.
         21   -1    0    0  501  502 -0.00000000000E+00 -0.00000000000E+00 -0.44814147723E+03  0.44814147723E+03  0.00000000000E+00 0. -1.
         25    1    1    2    0    0 -0.46198619826E+02  0.35440230508E+00  0.57372688789E+01  0.13338798420E+03  0.12500000000E+03 0.  0.
         25    1    1    2    0    0  0.11681044133E+03 -0.48863634388E+02 -0.10525092209E+03  0.20672467335E+03  0.12500000000E+03 0.  0.
         25    1    1    2    0    0 -0.70611821504E+02  0.48509232083E+02 -0.20318451277E+03  0.25347213094E+03  0.12500000000E+03 0.  0.
</event>
<event>
 5    0  0.5590591E-005  0.7163521E+03  0.7546771E-02  0.9689670E-01
         21   -1    0    0  502  501  0.00000000000E+00  0.00000000000E+00  0.11610330868E+04  0.11610330868E+04  0.00000000000E+00 0.  1.
         21   -1    0    0  501  502 -0.00000000000E+00 -0.00000000000E+00 -0.44198591307E+03  0.44198591307E+03  0.00000000000E+00 0.  1.
         25    1    1    2    0    0  0.33114514585E+03  0.58142312589E+03  0.50160848062E+03  0.84554481062E+03  0.12500000000E+03 0.  0.
         25    1    1    2    0    0 -0.76473231716E+02 -0.15452366744E+03  0.68607941269E+02  0.22373593492E+03  0.12500000000E+03 0.  0.
         25    1    1    2    0    0 -0.25467191413E+03 -0.42689945845E+03  0.14883075188E+03  0.53373825437E+03  0.12500000000E+03 0.  0.
</event>
<event>
 5    0  0.5590591E-005  0.6093520E+03  0.7546771E-02  0.9886191E-01
         21   -1    0    0  502  501  0.00000000000E+00  0.00000000000E+00  0.48802185274E+03  0.48802185274E+03  0.00000000000E+00 0. -1.
         21   -1    0    0  501  502 -0.00000000000E+00 -0.00000000000E+00 -0.76084685936E+03  0.76084685936E+03  0.00000000000E+00 0.  1.
         25    1    1    2    0    0  0.11181763247E+03  0.20645469570E+03 -0.78102900017E+02  0.27722154912E+03  0.12500000000E+03 0.  0.
         25    1    1    2    0    0  0.27141424411E+03 -0.14573043660E+02 -0.38396110608E+03  0.48675373290E+03  0.12500000000E+03 0.  0.
         25    1    1    2    0    0 -0.38323187658E+03 -0.19188165204E+03  0.18923899947E+03  0.48489343008E+03  0.12500000000E+03 0.  0.
</event>
<event>
 5    0  0.5590591E-005  0.2335407E+03  0.7546771E-02  0.1124172E+00
         21   -1    0    0  502  501  0.00000000000E+00  0.00000000000E+00  0.94746269535E+02  0.94746269535E+02  0.00000000000E+00 0.  1.
         21   -1    0    0  501  502 -0.00000000000E+00 -0.00000000000E+00 -0.57565613139E+03  0.57565613139E+03  0.00000000000E+00 0.  1.
         25    1    1    2    0    0  0.79596007448E+01  0.64859365552E+02 -0.47438842540E+02  0.14881376390E+03  0.12500000000E+03 0.  0.
         25    1    1    2    0    0  0.95375787805E+01 -0.96454446837E+02 -0.26652831433E+03  0.30993026322E+03  0.12500000000E+03 0.  0.
         25    1    1    2    0    0 -0.17497179525E+02  0.31595081284E+02 -0.16694270499E+03  0.21165837380E+03  0.12500000000E+03 0.  0.
</event>
<event>
 5    0  0.5590591E-005  0.3735681E+03  0.7546771E-02  0.1053337E+00
         21   -1    0    0  502  501  0.00000000000E+00  0.00000000000E+00  0.59452764149E+02  0.59452764149E+02  0.00000000000E+00 0. -1.
         21   -1    0    0  501  502 -0.00000000000E+00 -0.00000000000E+00 -0.23472946831E+04  0.23472946831E+04  0.00000000000E+00 0. -1.
         25    1    1    2    0    0  0.25339322112E+02  0.14760184645E+03 -0.13524860162E+04  0.13664815441E+04  0.12500000000E+03 0.  0.
         25    1    1    2    0    0  0.11283226976E+03  0.12919862665E+02 -0.18434541807E+03  0.25001255392E+03  0.12500000000E+03 0.  0.
         25    1    1    2    0    0 -0.13817159188E+03 -0.16052170912E+03 -0.75101048475E+03  0.79025334932E+03  0.12500000000E+03 0.  0.
</event>
<event>
 5    0  0.8026960E-005  0.7747406E+03  0.7546771E-02  0.9597316E-01
         21   -1    0    0  502  501  0.00000000000E+00  0.00000000000E+00  0.10077158041E+04  0.10077158041E+04  0.00000000000E+00 0.  1.
         21   -1    0    0  501  502 -0.00000000000E+00 -0.00000000000E+00 -0.59562724023E+03  0.59562724023E+03  0.00000000000E+00 0.  1.
         25    1    1    2    0    0 -0.96044389514E+02 -0.38888812936E+03  0.34543598963E+02  0.42104247071E+03  0.12500000000E+03 0.  0.
         25    1    1    2    0    0  0.80326311430E+01  0.11861481729E+03  0.70807923123E+03  0.72879022753E+03  0.12500000000E+03 0.  0.
         25    1    1    2    0    0  0.88011758371E+02  0.27027331206E+03 -0.33053426630E+03  0.45351034611E+03  0.12500000000E+03 0.  0.
</event>
<event>
 5    0  0.5590591E-005  0.2257569E+03  0.7546771E-02  0.1129662E+00
         21   -1    0    0  502  501  0.00000000000E+00  0.00000000000E+00  0.24232046209E+02  0.24232046209E+02  0.00000000000E+00 0. -1.
         21   -1    0    0  501  502 -0.00000000000E+00 -0.00000000000E+00 -0.21032557973E+04  0.21032557973E+04  0.00000000000E+00 0. -1.
         25    1    1    2    0    0 -0.76149105180E+02 -0.26422987636E+02 -0.10511389017E+04  0.10616095569E+04  0.12500000000E+03 0.  0.
         25    1    1    2    0    0  0.12402395108E+01  0.48897187026E+01 -0.33718764122E+03  0.35964698377E+03  0.12500000000E+03 0.  0.
         25    1    1    2    0    0  0.74908865669E+02  0.21533268933E+02 -0.69069720818E+03  0.70623130291E+03  0.12500000000E+03 0.  0.
</event>
<event>
 5    0  0.5590591E-005  0.2587534E+03  0.7546771E-02  0.1107895E+00
         21   -1    0    0  502  501  0.00000000000E+00  0.00000000000E+00  0.42511413009E+02  0.42511413009E+02  0.00000000000E+00 0.  1.
         21   -1    0    0  501  502 -0.00000000000E+00 -0.00000000000E+00 -0.15749496660E+04  0.15749496660E+04  0.00000000000E+00 0.  1.
         25    1    1    2    0    0 -0.11099424461E+03  0.20530916007E+02 -0.71292573562E+03  0.73254989275E+03  0.12500000000E+03 0.  0.
         25    1    1    2    0    0 -0.31031603078E+02  0.61438747113E+01 -0.46060726307E+03  0.47831449735E+03  0.12500000000E+03 0.  0.
         25    1    1    2    0    0  0.14202584769E+03 -0.26674790718E+02 -0.35890525434E+03  0.40659668895E+03  0.12500000000E+03 0.  0.
</event>
<event>
 5    0  0.5590591E-005  0.6797002E+03  0.7546771E-02  0.9752592E-01
         21   -1    0    0  502  501  0.00000000000E+00  0.00000000000E+00  0.82932140697E+03  0.82932140697E+03  0.00000000000E+00 0.  1.
         21   -1    0    0  501  502 -0.00000000000E+00 -0.00000000000E+00 -0.55707268272E+03  0.55707268272E+03  0.00000000000E+00 0.  1.
         25    1    1    2    0    0 -0.48951186326E+02 -0.16442646943E+03  0.75409483260E+03  0.78340047169E+03  0.12500000000E+03 0.  0.
         25    1    1    2    0    0  0.51469989485E+02  0.18930348110E+03 -0.34371151186E+03  0.41502719328E+03  0.12500000000E+03 0.  0.
         25    1    1    2    0    0 -0.25188031586E+01 -0.24877011669E+02 -0.13813459648E+03  0.18796642472E+03  0.12500000000E+03 0.  0.
</event>
<event>
 5    0  0.5590591E-005  0.3287816E+03  0.7546771E-02  0.1071677E+00
         21   -1    0    0  502  501  0.00000000000E+00  0.00000000000E+00  0.20127334379E+03  0.20127334379E+03  0.00000000000E+00 0.  1.
         21   -1    0    0  501  502 -0.00000000000E+00 -0.00000000000E+00 -0.53706749121E+03  0.53706749121E+03  0.00000000000E+00 0.  1.
         25    1    1    2    0    0 -0.17410334679E+03 -0.19009852817E+03 -0.11039532537E+03  0.30702044498E+03  0.12500000000E+03 0.  0.
         25    1    1    2    0    0  0.74182834855E+02  0.13359891896E+03 -0.10884814054E+03  0.22544330071E+03  0.12500000000E+03 0.  0.
         25    1    1    2    0    0  0.99920511936E+02  0.56499609207E+02 -0.11655068151E+03  0.20587708932E+03  0.12500000000E+03 0.  0.
</event>
<event>
 5    0  0.5590591E-005  0.2482841E+03  0.7546771E-02  0.1114394E+00
         21   -1    0    0  502  501  0.00000000000E+00  0.00000000000E+00  0.12362638299E+03  0.12362638299E+03  0.00000000000E+00 0. -1.
         21   -1    0    0  501  502 -0.00000000000E+00 -0.00000000000E+00 -0.49863965314E+03  0.49863965314E+03  0.00000000000E+00 0. -1.
         25    1    1    2    0    0 -0.34606567415E+02  0.38080549601E+02 -0.14783135410E+02  0.13598266014E+03  0.12500000000E+03 0.  0.
         25    1    1    2    0    0 -0.32456341080E+02 -0.45551364701E+02 -0.51257839156E+02  0.14622143132E+03  0.12500000000E+03 0.  0.
         25    1    1    2    0    0  0.67062908496E+02  0.74708150997E+01 -0.30897229558E+03  0.34006194467E+03  0.12500000000E+03 0.  0.
</event>
<event>
 5    0  0.5590591E-005  0.4714512E+03  0.7546771E-02  0.1021511E+00
         21   -1    0    0  502  501  0.00000000000E+00  0.00000000000E+00  0.93289289046E+03  0.93289289046E+03  0.00000000000E+00 0.  1.
         21   -1    0    0  501  502 -0.00000000000E+00 -0.00000000000E+00 -0.23825477666E+03  0.23825477666E+03  0.00000000000E+00 0.  1.
         25    1    1    2    0    0  0.11084549863E+03  0.73844187382E+02  0.18971771524E+03  0.26335812130E+03  0.12500000000E+03 0.  0.
         25    1    1    2    0    0 -0.25956345921E+03 -0.20164256227E+03 -0.26899507096E+00  0.35165037272E+03  0.12500000000E+03 0.  0.
         25    1    1    2    0    0  0.14871796058E+03  0.12779837489E+03  0.50518939364E+03  0.55613917311E+03  0.12500000000E+03 0.  0.
</event>
<event>
 5    0  0.5590591E-005  0.3620892E+03  0.7546771E-02  0.1057760E+00
         21   -1    0    0  502  501  0.00000000000E+00  0.00000000000E+00  0.42861303666E+03  0.42861303666E+03  0.00000000000E+00 0. -1.
         21   -1    0    0  501  502 -0.00000000000E+00 -0.00000000000E+00 -0.30589040780E+03  0.30589040780E+03  0.00000000000E+00 0. -1.
         25    1    1    2    0    0  0.11989611412E+03  0.10541099529E+03  0.10653300206E+03  0.22904330734E+03  0.12500000000E+03 0.  0.
         25    1    1    2    0    0  0.76631015790E+01  0.82048544011E+02 -0.13841457260E+03  0.20389772095E+03  0.12500000000E+03 0.  0.
         25    1    1    2    0    0 -0.12755921569E+03 -0.18745953930E+03  0.15460419939E+03  0.30156241618E+03  0.12500000000E+03 0.  0.
</event>
<event>
 5    0  0.5590591E-005  0.4235446E+03  0.7546771E-02  0.1035919E+00
         21   -1    0    0  502  501  0.00000000000E+00  0.00000000000E+00  0.47210081662E+03  0.47210081662E+03  0.00000000000E+00 0. -1.
         21   -1    0    0  501  502 -0.00000000000E+00 -0.00000000000E+00 -0.37998249728E+03  0.37998249728E+03  0.00000000000E+00 0. -1.
         25    1    1    2    0    0 -0.12824835065E+03  0.18125076070E+03  0.95142741199E+02  0.27198643147E+03  0.12500000000E+03 0.  0.
         25    1    1    2    0    0 -0.50485162742E+02  0.10983157004E+03 -0.10399511795E+03  0.20261221580E+03  0.12500000000E+03 0.  0.
         25    1    1    2    0    0  0.17873351340E+03 -0.29108233074E+03  0.10097069609E+03  0.37748466664E+03  0.12500000000E+03 0.  0.
</event>
<event>
 5    0  0.5590591E-005  0.2236434E+03  0.7546771E-02  0.1131196E+00
         21   -1    0    0  502  501  0.00000000000E+00  0.00000000000E+00  0.43839582569E+03  0.43839582569E+03  0.00000000000E+00 0.  1.
         21   -1    0    0  501  502 -0.00000000000E+00 -0.00000000000E+00 -0.11408951549E+03  0.11408951549E+03  0.00000000000E+00 0.  1.
         25    1    1    2    0    0  0.29749459374E+02 -0.14658453346E+02  0.53806889445E+02  0.14007170285E+03  0.12500000000E+03 0.  0.
         25    1    1    2    0    0 -0.10777009085E+02 -0.70145695243E+02  0.67848945545E+02  0.15894980937E+03  0.12500000000E+03 0.  0.
         25    1    1    2    0    0 -0.18972450289E+02  0.84804148589E+02  0.20265047521E+03  0.25346382896E+03  0.12500000000E+03 0.  0.
</event>
<event>
 5    0  0.5590591E-005  0.3146559E+03  0.7546771E-02  0.1078135E+00
         21   -1    0    0  502  501  0.00000000000E+00  0.00000000000E+00  0.96745984589E+02  0.96745984589E+02  0.00000000000E+00 0. -1.
         21   -1    0    0  501  502 -0.00000000000E+00 -0.00000000000E+00 -0.10233842597E+04  0.10233842597E+04  0.00000000000E+00 0. -1.
         25    1    1    2    0    0  0.25966665774E+02 -0.11744324393E+03 -0.63776504171E+03  0.66093602694E+03  0.12500000000E+03 0.  0.
         25    1    1    2    0    0 -0.12174393132E+03  0.77990964959E+02 -0.18784858372E+03  0.26798557019E+03  0.12500000000E+03 0.  0.
         25    1    1    2    0    0  0.95777265545E+02  0.39452278971E+02 -0.10102464972E+03  0.19120864720E+03  0.12500000000E+03 0.  0.
</event>
<event>
 5    0  0.5590591E-005  0.4195702E+03  0.7546771E-02  0.1037206E+00
         21   -1    0    0  502  501  0.00000000000E+00  0.00000000000E+00  0.15133996530E+03  0.15133996530E+03  0.00000000000E+00 0.  1.
         21   -1    0    0  501  502 -0.00000000000E+00 -0.00000000000E+00 -0.11632035313E+04  0.11632035313E+04  0.00000000000E+00 0.  1.
         25    1    1    2    0    0 -0.15824329221E+03 -0.16290043346E+03 -0.83560987662E+03  0.87489791213E+03  0.12500000000E+03 0.  0.
         25    1    1    2    0    0  0.70123223817E+02 -0.37074746923E+02 -0.39847928581E+02  0.15331229824E+03  0.12500000000E+03 0.  0.
         25    1    1    2    0    0  0.88120068395E+02  0.19997518038E+03 -0.13640576077E+03  0.28633328621E+03  0.12500000000E+03 0.  0.
</event>
<event>
 5    0  0.6129904E-005  0.4085006E+03  0.7546771E-02  0.1040875E+00
         21   -1    0    0  502  501  0.00000000000E+00  0.00000000000E+00  0.44229733030E+03  0.44229733030E+03  0.00000000000E+00 0.  1.
         21   -1    0    0  501  502 -0.00000000000E+00 -0.00000000000E+00 -0.37728631251E+03  0.37728631251E+03  0.00000000000E+00 0.  1.
         25    1    1    2    0    0  0.12277021179E+03  0.19558563339E+02 -0.18897136354E+03  0.25843807487E+03  0.12500000000E+03 0.  0.
         25    1    1    2    0    0  0.97517750626E+02  0.32567375762E+02  0.25561936539E+03  0.30255017041E+03  0.12500000000E+03 0.  0.
         25    1    1    2    0    0 -0.22028796242E+03 -0.52125939101E+02 -0.16369840571E+01  0.25859539754E+03  0.12500000000E+03 0.  0.
</event>
<event>
 5    0  0.5590591E-005  0.2916205E+03  0.7546771E-02  0.1089506E+00
         21   -1    0    0  502  501  0.00000000000E+00  0.00000000000E+00  0.13159423370E+03  0.13159423370E+03  0.00000000000E+00 0.  1.
         21   -1    0    0  501  502 -0.00000000000E+00 -0.00000000000E+00 -0.64624784026E+03  0.64624784026E+03  0.00000000000E+00 0.  1.
         25    1    1    2    0    0 -0.17244096656E+02  0.99453810104E+02 -0.61518658756E+02  0.17204058995E+03  0.12500000000E+03 0.  0.
         25    1    1    2    0    0 -0.48118647518E+02  0.92963996199E+02 -0.19811426296E+03  0.25657741525E+03  0.12500000000E+03 0.  0.
         25    1    1    2    0    0  0.65362744175E+02 -0.19241780630E+03 -0.25502068484E+03  0.34922406877E+03  0.12500000000E+03 0.  0.
</event>
<event>
 5    0  0.5590591E-005  0.2972109E+03  0.7546771E-02  0.1086643E+00
         21   -1    0    0  502  501  0.00000000000E+00  0.00000000000E+00  0.70546757062E+03  0.70546757062E+03  0.00000000000E+00 0.  1.
         21   -1    0    0  501  502 -0.00000000000E+00 -0.00000000000E+00 -0.12521386690E+03  0.12521386690E+03  0.00000000000E+00 0.  1.
         25    1    1    2    0    0  0.50386937263E+01 -0.12604182070E+02  0.16490629496E+03  0.20737246673E+03  0.12500000000E+03 0.  0.
         25    1    1    2    0    0 -0.29035550017E+02  0.92359512558E+02 -0.23153930167E+02  0.15979501621E+03  0.12500000000E+03 0.  0.
         25    1    1    2    0    0  0.23996856291E+02 -0.79755330488E+02  0.43850133892E+03  0.46351395458E+03  0.12500000000E+03 0.  0.
</event>
<event>
 5    0  0.5590591E-005  0.2972953E+03  0.7546771E-02  0.1086601E+00
         21   -1    0    0  502  501  0.00000000000E+00  0.00000000000E+00  0.14852433336E+04  0.14852433336E+04  0.00000000000E+00 0.  1.
         21   -1    0    0  501  502 -0.00000000000E+00 -0.00000000000E+00 -0.59508420220E+02  0.59508420220E+02  0.00000000000E+00 0.  1.
         25    1    1    2    0    0 -0.74699058676E+02  0.49073778417E+02  0.26372087663E+03  0.30522432056E+03  0.12500000000E+03 0.  0.
         25    1    1    2    0    0 -0.75613243755E+02 -0.68876655643E+02  0.88666481133E+03  0.90125514921E+03  0.12500000000E+03 0.  0.
         25    1    1    2    0    0  0.15031230243E+03  0.19802877227E+02  0.27534922538E+03  0.33827228401E+03  0.12500000000E+03 0.  0.
</event>
<event>
 5    0  0.5590591E-005  0.2557158E+03  0.7546771E-02  0.1109745E+00
         21   -1    0    0  502  501  0.00000000000E+00  0.00000000000E+00  0.17608754895E+02  0.17608754895E+02  0.00000000000E+00 0. -1.
         21   -1    0    0  501  502 -0.00000000000E+00 -0.00000000000E+00 -0.37135255012E+04  0.37135255012E+04  0.00000000000E+00 0. -1.
         25    1    1    2    0    0 -0.53065891313E+02  0.34524148620E+02 -0.17646777166E+04  0.17702317219E+04  0.12500000000E+03 0.  0.
         25    1    1    2    0    0  0.10007014181E+03  0.63933577907E+02 -0.10746428332E+04  0.10883858483E+04  0.12500000000E+03 0.  0.
         25    1    1    2    0    0 -0.47004250501E+02 -0.98457726526E+02 -0.85659619649E+03  0.87251668598E+03  0.12500000000E+03 0.  0.
</event>
<event>
 5    0  0.5590591E-005  0.2780521E+03  0.7546771E-02  0.1096758E+00
         21   -1    0    0  502  501  0.00000000000E+00  0.00000000000E+00  0.51802233540E+02  0.51802233540E+02  0.00000000000E+00 0.  1.
         21   -1    0    0  501  502 -0.00000000000E+00 -0.00000000000E+00 -0.14924645655E+04  0.14924645655E+04  0.00000000000E+00 0.  1.
         25    1    1    2    0    0  0.53069681442E+02 -0.11203527963E+03 -0.51723413571E+03  0.54637390687E+03  0.12500000000E+03 0.  0.
         25    1    1    2    0    0  0.27222705055E+02  0.25929038372E+02 -0.12334246155E+03  0.17958773211E+03  0.12500000000E+03 0.  0.
         25    1    1    2    0    0 -0.80292386497E+02  0.86106241255E+02 -0.80008573464E+03  0.81830516001E+03  0.12500000000E+03 0.  0.
</event>
<event>
 5    0  0.5590591E-005  0.3589652E+03  0.7546771E-02  0.1058994E+00
         21   -1    0    0  502  501  0.00000000000E+00  0.00000000000E+00  0.49117689960E+03  0.49117689960E+03  0.00000000000E+00 0.  1.
         21   -1    0    0  501  502 -0.00000000000E+00 -0.00000000000E+00 -0.26234131546E+03  0.26234131546E+03  0.00000000000E+00 0.  1.
         25    1    1    2    0    0  0.87281692586E+02  0.90965902217E+02  0.34234815224E+03  0.38564251136E+03  0.12500000000E+03 0.  0.
         25    1    1    2    0    0 -0.63853471602E+02 -0.10888593896E+02 -0.15753134360E+03  0.21127458799E+03  0.12500000000E+03 0.  0.
         25    1    1    2    0    0 -0.23428220984E+02 -0.80077308321E+02  0.44018775491E+02  0.15660111571E+03  0.12500000000E+03 0.  0.
</event>
<event>
 5    0  0.5590591E-005  0.4649793E+03  0.7546771E-02  0.1023347E+00
         21   -1    0    0  502  501  0.00000000000E+00  0.00000000000E+00  0.22640630736E+04  0.22640630736E+04  0.00000000000E+00 0. -1.
         21   -1    0    0  501  502 -0.00000000000E+00 -0.00000000000E+00 -0.95494595028E+02  0.95494595028E+02  0.00000000000E+00 0. -1.
         25    1    1    2    0    0  0.38176399401E+02  0.15943239162E+03  0.16595937683E+04  0.16723494254E+04  0.12500000000E+03 0.  0.
         25    1    1    2    0    0 -0.61249596129E+01 -0.26625927980E+03  0.32250011370E+03  0.43653504160E+03  0.12500000000E+03 0.  0.
         25    1    1    2    0    0 -0.32051439789E+02  0.10682688818E+03  0.18647459658E+03  0.25067320160E+03  0.12500000000E+03 0.  0.
</event>
<event>
 5    0  0.5590591E-005  0.2718276E+03  0.7546771E-02  0.1100238E+00
         21   -1    0    0  502  501  0.00000000000E+00  0.00000000000E+00  0.14067392868E+03  0.14067392868E+03  0.00000000000E+00 0.  1.
         21   -1    0    0  501  502 -0.00000000000E+00 -0.00000000000E+00 -0.52525882592E+03  0.52525882592E+03  0.00000000000E+00 0.  1.
         25    1    1    2    0    0  0.83632408846E+02  0.66789809067E+02 -0.59355213105E+02  0.17493798823E+03  0.12500000000E+03 0.  0.
         25    1    1    2    0    0 -0.96205995880E+02 -0.11498909729E+03 -0.29393043182E+03  0.35284300318E+03  0.12500000000E+03 0.  0.
         25    1    1    2    0    0  0.12573587034E+02  0.48199288223E+02 -0.31299252317E+02  0.13815176319E+03  0.12500000000E+03 0.  0.
</event>
<event>
 5    0  0.5590591E-005  0.3016268E+03  0.7546771E-02  0.1084430E+00
         21   -1    0    0  502  501  0.00000000000E+00  0.00000000000E+00  0.43252876229E+03  0.43252876229E+03  0.00000000000E+00 0.  1.
         21   -1    0    0  501  502 -0.00000000000E+00 -0.00000000000E+00 -0.21034145897E+03  0.21034145897E+03  0.00000000000E+00 0.  1.
         25    1    1    2    0    0  0.64509756592E+02 -0.16397350590E+01  0.14167202877E+03  0.19965009683E+03  0.12500000000E+03 0.  0.
         25    1    1    2    0    0 -0.69864408104E+02  0.10868257869E+03  0.17707738081E+03  0.25233774435E+03  0.12500000000E+03 0.  0.
         25    1    1    2    0    0  0.53546515121E+01 -0.10704284363E+03 -0.96562106253E+02  0.19088238009E+03  0.12500000000E+03 0.  0.
</event>
<event>
 5    0  0.5590591E-005  0.2515183E+03  0.7546771E-02  0.1112349E+00
         21   -1    0    0  502  501  0.00000000000E+00  0.00000000000E+00  0.18285921180E+03  0.18285921180E+03  0.00000000000E+00 0.  1.
         21   -1    0    0  501  502 -0.00000000000E+00 -0.00000000000E+00 -0.34595714940E+03  0.34595714940E+03  0.00000000000E+00 0.  1.
         25    1    1    2    0    0  0.10562660379E+03  0.45271467753E+02 -0.13879746110E+03  0.21930850514E+03  0.12500000000E+03 0.  0.
         25    1    1    2    0    0 -0.45906767128E+02 -0.62200365379E+02 -0.69811193810E+02  0.16271115359E+03  0.12500000000E+03 0.  0.
         25    1    1    2    0    0 -0.59719836659E+02  0.16928897626E+02  0.45510717310E+02  0.14679670247E+03  0.12500000000E+03 0.  0.
</event>
<event>
 5    0  0.5590591E-005  0.2942058E+03  0.7546771E-02  0.1088173E+00
         21   -1    0    0  502  501  0.00000000000E+00  0.00000000000E+00  0.76992398774E+03  0.76992398774E+03  0.00000000000E+00 0. -1.
         21   -1    0    0  501  502 -0.00000000000E+00 -0.00000000000E+00 -0.11242281796E+03  0.11242281796E+03  0.00000000000E+00 0. -1.
         25    1    1    2    0    0  0.11815526355E+03  0.12255607605E+03  0.40564913115E+03  0.45733672025E+03  0.12500000000E+03 0.  0.
         25    1    1    2    0    0 -0.11447610090E+03 -0.10540320437E+03  0.87898382039E+02  0.21809571003E+03  0.12500000000E+03 0.  0.
         25    1    1    2    0    0 -0.36791626513E+01 -0.17152871677E+02  0.16395365660E+03  0.20691437542E+03  0.12500000000E+03 0.  0.
</event>
<event>
 5    0  0.5590591E-005  0.4689638E+03  0.7546771E-02  0.1022213E+00
         21   -1    0    0  502  501  0.00000000000E+00  0.00000000000E+00  0.13796137049E+04  0.13796137049E+04  0.00000000000E+00 0. -1.
         21   -1    0    0  501  502 -0.00000000000E+00 -0.00000000000E+00 -0.15941201422E+03  0.15941201422E+03  0.00000000000E+00 0. -1.
         25    1    1    2    0    0 -0.21864815998E+03 -0.49475648795E+02  0.11032195181E+04  0.11326840525E+04  0.12500000000E+03 0.  0.
         25    1    1    2    0    0  0.17566357910E+03 -0.47262780803E+02  0.97818706188E+02  0.24142278839E+03  0.12500000000E+03 0.  0.
         25    1    1    2    0    0  0.42984580875E+02  0.96738429597E+02  0.19163466390E+02  0.16491887823E+03  0.12500000000E+03 0.  0.
</event>
<event>
 5    0  0.5590591E-005  0.3098903E+03  0.7546771E-02  0.1080398E+00
         21   -1    0    0  502  501  0.00000000000E+00  0.00000000000E+00  0.10270123402E+03  0.10270123402E+03  0.00000000000E+00 0.  1.
         21   -1    0    0  501  502 -0.00000000000E+00 -0.00000000000E+00 -0.93506169036E+03  0.93506169036E+03  0.00000000000E+00 0.  1.
         25    1    1    2    0    0  0.13862185281E+03  0.43668163291E+02 -0.22693454673E+03  0.29706432815E+03  0.12500000000E+03 0.  0.
         25    1    1    2    0    0  0.80139992479E+02 -0.80083423767E+02 -0.28831053302E+03  0.33404151929E+03  0.12500000000E+03 0.  0.
         25    1    1    2    0    0 -0.21876184529E+03  0.36415260476E+02 -0.31711537659E+03  0.40665707693E+03  0.12500000000E+03 0.  0.
</event>
<event>
 5    0  0.5590591E-005  0.3142596E+03  0.7546771E-02  0.1078322E+00
         21   -1    0    0  502  501  0.00000000000E+00  0.00000000000E+00  0.42488256671E+03  0.42488256671E+03  0.00000000000E+00 0.  1.
         21   -1    0    0  501  502 -0.00000000000E+00 -0.00000000000E+00 -0.23243857089E+03  0.23243857089E+03  0.00000000000E+00 0.  1.
         25    1    1    2    0    0 -0.78250498224E+01 -0.18893531882E+03 -0.19556827425E+02  0.22751979167E+03  0.12500000000E+03 0.  0.
         25    1    1    2    0    0 -0.18493118042E+02  0.30941680667E+01  0.95669241385E+01  0.12675999104E+03  0.12500000000E+03 0.  0.
         25    1    1    2    0    0  0.26318167865E+02  0.18584115075E+03  0.20243389910E+03  0.30304135489E+03  0.12500000000E+03 0.  0.
</event>
<event>
 5    0  0.5590591E-005  0.3915927E+03  0.7546771E-02  0.1046730E+00
         21   -1    0    0  502  501  0.00000000000E+00  0.00000000000E+00  0.77990817290E+02  0.77990817290E+02  0.00000000000E+00 0.  1.
         21   -1    0    0  501  502 -0.00000000000E+00 -0.00000000000E+00 -0.19661912481E+04  0.19661912481E+04  0.00000000000E+00 0.  1.
         25    1    1    2    0    0  0.20389985455E+03 -0.22527763365E+03 -0.62570277245E+03  0.70672068200E+03  0.12500000000E+03 0.  0.
         25    1    1    2    0    0 -0.21336456060E+03  0.12283837424E+03 -0.71240765399E+03  0.76404408733E+03  0.12500000000E+03 0.  0.
         25    1    1    2    0    0  0.94647060496E+01  0.10243925940E+03 -0.55009000436E+03  0.57341729606E+03  0.12500000000E+03 0.  0.
</event>
<event>
 5    0  0.5590591E-005  0.2447914E+03  0.7546771E-02  0.1116641E+00
         21   -1    0    0  502  501  0.00000000000E+00  0.00000000000E+00  0.14136040358E+03  0.14136040358E+03  0.00000000000E+00 0.  1.
         21   -1    0    0  501  502 -0.00000000000E+00 -0.00000000000E+00 -0.42390112455E+03  0.42390112455E+03  0.00000000000E+00 0.  1.
         25    1    1    2    0    0  0.16769230352E+02 -0.37869149301E+02 -0.31128217406E+02  0.13531166053E+03  0.12500000000E+03 0.  0.
         25    1    1    2    0    0 -0.11815876285E+03 -0.27734736471E+02 -0.13991314866E+03  0.22345334640E+03  0.12500000000E+03 0.  0.
         25    1    1    2    0    0  0.10138953250E+03  0.65603885772E+02 -0.11149935489E+03  0.20649652121E+03  0.12500000000E+03 0.  0.
</event>
<event>
 5    0  0.5590591E-005  0.3204195E+03  0.7546771E-02  0.1075456E+00
         21   -1    0    0  502  501  0.00000000000E+00  0.00000000000E+00  0.60231922628E+02  0.60231922628E+02  0.00000000000E+00 0. -1.
         21   -1    0    0  501  502 -0.00000000000E+00 -0.00000000000E+00 -0.17045551553E+04  0.17045551553E+04  0.00000000000E+00 0. -1.
         25    1    1    2    0    0  0.66852215341E+02 -0.15179177175E+03 -0.20393441764E+03  0.29107422999E+03  0.12500000000E+03 0.  0.
         25    1    1    2    0    0 -0.26833676859E+01  0.66728748145E+02 -0.80840741137E+03  0.82073593137E+03  0.12500000000E+03 0.  0.
         25    1    1    2    0    0 -0.64168847655E+02  0.85063023601E+02 -0.63198140370E+03  0.65297691660E+03  0.12500000000E+03 0.  0.
</event>
<event>
 5    0  0.5766376E-005  0.2926354E+03  0.7546771E-02  0.1088981E+00
         21   -1    0    0  502  501  0.00000000000E+00  0.00000000000E+00  0.14168410773E+03  0.14168410773E+03  0.00000000000E+00 0.  1.
         21   -1    0    0  501  502 -0.00000000000E+00 -0.00000000000E+00 -0.60441128291E+03  0.60441128291E+03  0.00000000000E+00 0.  1.
         25    1    1    2    0    0 -0.95849844441E+02 -0.12345286486E+01 -0.34632939997E+03  0.38047045881E+03  0.12500000000E+03 0.  0.
         25    1    1    2    0    0 -0.48199090998E+02  0.42126107793E+02 -0.39851736653E+01  0.14049428081E+03  0.12500000000E+03 0.  0.
         25    1    1    2    0    0  0.14404893544E+03 -0.40891579144E+02 -0.11241260154E+03  0.22513065102E+03  0.12500000000E+03 0.  0.
</event>
<event>
 5    0  0.5590591E-005  0.2144231E+03  0.7546771E-02  0.1138110E+00
         21   -1    0    0  502  501  0.00000000000E+00  0.00000000000E+00  0.72513273642E+03  0.72513273642E+03  0.00000000000E+00 0. -1.
         21   -1    0    0  501  502 -0.00000000000E+00 -0.00000000000E+00 -0.63405337215E+02  0.63405337215E+02  0.00000000000E+00 0. -1.
         25    1    1    2    0    0 -0.10551175344E+02  0.50739975541E+01  0.17802938486E+03  0.21784520795E+03  0.12500000000E+03 0.  0.
         25    1    1    2    0    0  0.88758425955E+02 -0.17208985733E+02  0.26550922531E+03  0.30707386097E+03  0.12500000000E+03 0.  0.
         25    1    1    2    0    0 -0.78207250611E+02  0.12134988179E+02  0.21818878904E+03  0.26361900472E+03  0.12500000000E+03 0.  0.
</event>
<event>
 5    0  0.5590591E-005  0.2206728E+03  0.7546771E-02  0.1133382E+00
         21   -1    0    0  502  501  0.00000000000E+00  0.00000000000E+00  0.77279735558E+02  0.77279735558E+02  0.00000000000E+00 0.  1.
         21   -1    0    0  501  502 -0.00000000000E+00 -0.00000000000E+00 -0.63013275704E+03  0.63013275704E+03  0.00000000000E+00 0.  1.
         25    1    1    2    0    0 -0.43369907454E+02 -0.74022295519E+02 -0.22346140790E+03  0.27003749726E+03  0.12500000000E+03 0.  0.
         25    1    1    2    0    0  0.56697759933E+02  0.20394995042E+02 -0.22912873456E+03  0.26787229944E+03  0.12500000000E+03 0.  0.
         25    1    1    2    0    0 -0.13327852478E+02  0.53627300477E+02 -0.10026287902E+03  0.16950269590E+03  0.12500000000E+03 0.  0.
</event>
<event>
 5    0  0.5590591E-005  0.5971655E+03  0.7546771E-02  0.9911304E-01
         21   -1    0    0  502  501  0.00000000000E+00  0.00000000000E+00  0.75241737818E+03  0.75241737818E+03  0.00000000000E+00 0. -1.
         21   -1    0    0  501  502 -0.00000000000E+00 -0.00000000000E+00 -0.47394783614E+03  0.47394783614E+03  0.00000000000E+00 0. -1.
         25    1    1    2    0    0  0.94304710607E+02  0.16165051580E+03 -0.32174339023E+03  0.39264242875E+03  0.12500000000E+03 0.  0.
         25    1    1    2    0    0  0.18307182011E+03 -0.46976611114E+02  0.12755201676E+03  0.26003194090E+03  0.12500000000E+03 0.  0.
         25    1    1    2    0    0 -0.27737653071E+03 -0.11467390469E+03  0.47266091550E+03  0.57369084467E+03  0.12500000000E+03 0.  0.
</event>
<event>
 5    0  0.5590591E-005  0.3836307E+03  0.7546771E-02  0.1049600E+00
         21   -1    0    0  502  501  0.00000000000E+00  0.00000000000E+00  0.73580272538E+03  0.73580272538E+03  0.00000000000E+00 0.  1.
         21   -1    0    0  501  502 -0.00000000000E+00 -0.00000000000E+00 -0.20001630000E+03  0.20001630000E+03  0.00000000000E+00 0.  1.
         25    1    1    2    0    0 -0.10022745861E+03  0.25874543083E+03  0.19009167343E+03  0.35882389238E+03  0.12500000000E+03 0.  0.
         25    1    1    2    0    0 -0.17264938159E+02 -0.22294495835E+03  0.99555236368E+02  0.27484318735E+03  0.12500000000E+03 0.  0.
         25    1    1    2    0    0  0.11749239677E+03 -0.35800472482E+02  0.24613951559E+03  0.30215194566E+03  0.12500000000E+03 0.  0.
</event>
<event>
 5    0  0.5590591E-005  0.3409901E+03  0.7546771E-02  0.1066375E+00
         21   -1    0    0  502  501  0.00000000000E+00  0.00000000000E+00  0.10824555276E+04  0.10824555276E+04  0.00000000000E+00 0.  1.
         21   -1    0    0  501  502 -0.00000000000E+00 -0.00000000000E+00 -0.10741712122E+03  0.10741712122E+03  0.00000000000E+00 0.  1.
         25    1    1    2    0    0 -0.15379358676E+03 -0.98334555786E+02  0.16701141122E+03  0.27720022307E+03  0.12500000000E+03 0.  0.
         25    1    1    2    0    0  0.56578378499E+02 -0.51029729417E+02  0.11469356553E+03  0.18596978296E+03  0.12500000000E+03 0.  0.
         25    1    1    2    0    0  0.97215208262E+02  0.14936428520E+03  0.69333342960E+03  0.72670264277E+03  0.12500000000E+03 0.  0.
</event>
<event>
 5    0  0.5590591E-005  0.2900384E+03  0.7546771E-02  0.1090329E+00
         21   -1    0    0  502  501  0.00000000000E+00  0.00000000000E+00  0.24768418734E+03  0.24768418734E+03  0.00000000000E+00 0.  1.
         21   -1    0    0  501  502 -0.00000000000E+00 -0.00000000000E+00 -0.33963518729E+03  0.33963518729E+03  0.00000000000E+00 0.  1.
         25    1    1    2    0    0  0.18481824136E+02 -0.23191090413E+02 -0.26288343418E+02  0.13113154273E+03  0.12500000000E+03 0.  0.
         25    1    1    2    0    0 -0.15766582337E+03 -0.43712102570E+02  0.67879965683E+02  0.21679933005E+03  0.12500000000E+03 0.  0.
         25    1    1    2    0    0  0.13918399923E+03  0.66903192983E+02 -0.13354262221E+03  0.23938850185E+03  0.12500000000E+03 0.  0.
</event>
<event>
 5    0  0.5590591E-005  0.2875082E+03  0.7546771E-02  0.1091657E+00
         21   -1    0    0  502  501  0.00000000000E+00  0.00000000000E+00  0.14187947371E+04  0.14187947371E+04  0.00000000000E+00 0.  1.
         21   -1    0    0  501  502 -0.00000000000E+00 -0.00000000000E+00 -0.58261414447E+02  0.58261414447E+02  0.00000000000E+00 0.  1.
         25    1    1    2    0    0 -0.23409852570E+02  0.41779791253E+02  0.11556698378E+03  0.17684541242E+03  0.12500000000E+03 0.  0.
         25    1    1    2    0    0 -0.93189049159E+02 -0.35368331702E+02  0.91165212260E+03  0.92556453606E+03  0.12500000000E+03 0.  0.
         25    1    1    2    0    0  0.11659890173E+03 -0.64114595509E+01  0.33331421624E+03  0.37464620303E+03  0.12500000000E+03 0.  0.
</event>
<event>
 5    0  0.5590591E-005  0.2469643E+03  0.7546771E-02  0.1115238E+00
         21   -1    0    0  502  501  0.00000000000E+00  0.00000000000E+00  0.74094008204E+02  0.74094008204E+02  0.00000000000E+00 0. -1.
         21   -1    0    0  501  502 -0.00000000000E+00 -0.00000000000E+00 -0.82316221456E+03  0.82316221456E+03  0.00000000000E+00 0. -1.
         25    1    1    2    0    0 -0.28532910446E+02 -0.13623304435E+02 -0.51288450454E+02  0.13876320316E+03  0.12500000000E+03 0.  0.
         25    1    1    2    0    0 -0.30894073419E+02 -0.29670293702E+02 -0.19755995324E+03  0.23767563027E+03  0.12500000000E+03 0.  0.
         25    1    1    2    0    0  0.59426983865E+02  0.43293598138E+02 -0.50021980266E+03  0.52081738933E+03  0.12500000000E+03 0.  0.
</event>
<event>
 5    0  0.5590591E-005  0.3055274E+03  0.7546771E-02  0.1082510E+00
         21   -1    0    0  502  501  0.00000000000E+00  0.00000000000E+00  0.76142677512E+02  0.76142677512E+02  0.00000000000E+00 0. -1.
         21   -1    0    0  501  502 -0.00000000000E+00 -0.00000000000E+00 -0.12259483920E+04  0.12259483920E+04  0.00000000000E+00 0. -1.
         25    1    1    2    0    0 -0.48848478283E+02 -0.20002497056E+02 -0.88014057542E+02  0.16173357117E+03  0.12500000000E+03 0.  0.
         25    1    1    2    0    0 -0.38679084329E+02 -0.68452721991E+02 -0.85896246744E+03  0.87156374820E+03  0.12500000000E+03 0.  0.
         25    1    1    2    0    0  0.87527562611E+02  0.88455219047E+02 -0.20282918948E+03  0.26879375011E+03  0.12500000000E+03 0.  0.
</event>
<event>
 5    0  0.5590591E-005  0.3329254E+03  0.7546771E-02  0.1069850E+00
         21   -1    0    0  502  501  0.00000000000E+00  0.00000000000E+00  0.33251751892E+02  0.33251751892E+02  0.00000000000E+00 0.  1.
         21   -1    0    0  501  502 -0.00000000000E+00 -0.00000000000E+00 -0.33333387076E+04  0.33333387076E+04  0.00000000000E+00 0.  1.
         25    1    1    2    0    0 -0.86014083931E+02  0.59380329157E+02 -0.91484779906E+03  0.92924482327E+03  0.12500000000E+03 0.  0.
         25    1    1    2    0    0  0.23595358693E+03  0.47658736190E+02 -0.10986711260E+04  0.11316574983E+04  0.12500000000E+03 0.  0.
         25    1    1    2    0    0 -0.14993950299E+03 -0.10703906535E+03 -0.12865680306E+04  0.13056881379E+04  0.12500000000E+03 0.  0.
</event>
<event>
 5    0  0.5590591E-005  0.3031774E+03  0.7546771E-02  0.1083663E+00
         21   -1    0    0  502  501  0.00000000000E+00  0.00000000000E+00  0.32685230432E+03  0.32685230432E+03  0.00000000000E+00 0. -1.
         21   -1    0    0  501  502 -0.00000000000E+00 -0.00000000000E+00 -0.28121739247E+03  0.28121739247E+03  0.00000000000E+00 0. -1.
         25    1    1    2    0    0  0.87741264711E+02  0.80401492808E+02  0.10623561307E+03  0.20266705471E+03  0.12500000000E+03 0.  0.
         25    1    1    2    0    0 -0.51591553420E+02 -0.17301043227E+03  0.30242634896E+02  0.22166171303E+03  0.12500000000E+03 0.  0.
         25    1    1    2    0    0 -0.36149711291E+02  0.92608939459E+02 -0.90843336109E+02  0.18374092905E+03  0.12500000000E+03 0.  0.
</event>
<event>
 5    0  0.5590591E-005  0.2551499E+03  0.7546771E-02  0.1110093E+00
         21   -1    0    0  502  501  0.00000000000E+00  0.00000000000E+00  0.18517824584E+03  0.18517824584E+03  0.00000000000E+00 0. -1.
         21   -1    0    0  501  502 -0.00000000000E+00 -0.00000000000E+00 -0.35156124813E+03  0.35156124813E+03  0.00000000000E+00 0. -1.
         25    1    1    2    0    0 -0.95414916897E+02  0.10486817017E+03 -0.38536634394E+02  0.19290259633E+03  0.12500000000E+03 0.  0.
         25    1    1    2    0    0  0.26620995058E+02 -0.71888183070E+01 -0.11219910818E+03  0.17021749723E+03  0.12500000000E+03 0.  0.
         25    1    1    2    0    0  0.68793921839E+02 -0.97679351861E+02 -0.15647259710E+02  0.17361940041E+03  0.12500000000E+03 0.  0.
</event>
<event>
 5    0  0.5590591E-005  0.2525646E+03  0.7546771E-02  0.1111695E+00
         21   -1    0    0  502  501  0.00000000000E+00  0.00000000000E+00  0.14026424548E+03  0.14026424548E+03  0.00000000000E+00 0.  1.
         21   -1    0    0  501  502 -0.00000000000E+00 -0.00000000000E+00 -0.45477644303E+03  0.45477644303E+03  0.00000000000E+00 0.  1.
         25    1    1    2    0    0  0.25021364507E+02  0.53879594065E+02  0.27632860558E+02  0.14112992001E+03  0.12500000000E+03 0.  0.
         25    1    1    2    0    0  0.56173717023E+02 -0.56570392533E+02 -0.15257713076E+03  0.21274509777E+03  0.12500000000E+03 0.  0.
         25    1    1    2    0    0 -0.81195081530E+02  0.26907984680E+01 -0.18956792734E+03  0.24116567073E+03  0.12500000000E+03 0.  0.
</event>
<event>
 5    0  0.5590591E-005  0.3758080E+03  0.7546771E-02  0.1052494E+00
         21   -1    0    0  502  501  0.00000000000E+00  0.00000000000E+00  0.56854566793E+03  0.56854566793E+03  0.00000000000E+00 0.  1.
         21   -1    0    0  501  502 -0.00000000000E+00 -0.00000000000E+00 -0.24840858111E+03  0.24840858111E+03  0.00000000000E+00 0.  1.
         25    1    1    2    0    0  0.15202142125E+03  0.26722490835E+03  0.22092969386E+03  0.39869110072E+03  0.12500000000E+03 0.  0.
         25    1    1    2    0    0 -0.60932560937E+02 -0.77057205657E+02  0.17809731149E+02  0.15997742481E+03  0.12500000000E+03 0.  0.
         25    1    1    2    0    0 -0.91088860316E+02 -0.19016770269E+03  0.81397661822E+02  0.25828572351E+03  0.12500000000E+03 0.  0.
</event>
<event>
 5    0  0.5590591E-005  0.2445331E+03  0.7546771E-02  0.1116809E+00
         21   -1    0    0  502  501  0.00000000000E+00  0.00000000000E+00  0.17723664702E+02  0.17723664702E+02  0.00000000000E+00 0.  1.
         21   -1    0    0  501  502 -0.00000000000E+00 -0.00000000000E+00 -0.33738191213E+04  0.33738191213E+04  0.00000000000E+00 0.  1.
         25    1    1    2    0    0 -0.11908746747E+02  0.12848317260E+03 -0.16127980170E+04  0.16227729932E+04  0.12500000000E+03 0.  0.
         25    1    1    2    0    0  0.34242247732E+02 -0.90469591101E+02 -0.73537206921E+03  0.75216644343E+03  0.12500000000E+03 0.  0.
         25    1    1    2    0    0 -0.22333500986E+02 -0.38013581501E+02 -0.10079253705E+04  0.10166033494E+04  0.12500000000E+03 0.  0.
</event>
<event>
 5    0  0.5590591E-005  0.2949600E+03  0.7546771E-02  0.1087788E+00
         21   -1    0    0  502  501  0.00000000000E+00  0.00000000000E+00  0.16351666003E+04  0.16351666003E+04  0.00000000000E+00 0.  1.
         21   -1    0    0  501  502 -0.00000000000E+00 -0.00000000000E+00 -0.53206438052E+02  0.53206438052E+02  0.00000000000E+00 0.  1.
         25    1    1    2    0    0 -0.13857660878E+02  0.17024926141E+03  0.45779081849E+03  0.50435531054E+03  0.12500000000E+03 0.  0.
         25    1    1    2    0    0  0.19579664666E+02 -0.18692525267E+03  0.88786728540E+03  0.91611010792E+03  0.12500000000E+03 0.  0.
         25    1    1    2    0    0 -0.57220037881E+01  0.16675991257E+02  0.23630205835E+03  0.26790761989E+03  0.12500000000E+03 0.  0.
</event>
<event>
 5    0  0.5590591E-005  0.2378173E+03  0.7546771E-02  0.1121255E+00
         21   -1    0    0  502  501  0.00000000000E+00  0.00000000000E+00  0.64832489831E+03  0.64832489831E+03  0.00000000000E+00 0.  1.
         21   -1    0    0  501  502 -0.00000000000E+00 -0.00000000000E+00 -0.87235717380E+02  0.87235717380E+02  0.00000000000E+00 0.  1.
         25    1    1    2    0    0 -0.10302490138E+03 -0.26369592904E+02  0.20045566553E+03  0.25906941073E+03  0.12500000000E+03 0.  0.
         25    1    1    2    0    0 -0.18881703413E+02 -0.89633781019E+01  0.10323831210E+03  0.16346256439E+03  0.12500000000E+03 0.  0.
         25    1    1    2    0    0  0.12190660480E+03  0.35332971006E+02  0.25739520331E+03  0.31302864057E+03  0.12500000000E+03 0.  0.
</event>
<event>
 5    0  0.5590591E-005  0.3609848E+03  0.7546771E-02  0.1058195E+00
         21   -1    0    0  502  501  0.00000000000E+00  0.00000000000E+00  0.56668337884E+03  0.56668337884E+03  0.00000000000E+00 0. -1.
         21   -1    0    0  501  502 -0.00000000000E+00 -0.00000000000E+00 -0.22995205493E+03  0.22995205493E+03  0.00000000000E+00 0.  1.
         25    1    1    2    0    0 -0.77626226799E+02 -0.11913931180E+03  0.17150247138E+03  0.25545665854E+03  0.12500000000E+03 0.  0.
         25    1    1    2    0    0 -0.17075507071E+03  0.43401157608E+02  0.12666126438E+03  0.25041771213E+03  0.12500000000E+03 0.  0.
         25    1    1    2    0    0  0.24838129751E+03  0.75738154191E+02  0.38567588146E+02  0.29076106309E+03  0.12500000000E+03 0.  0.
</event>
<event>
 5    0  0.5590591E-005  0.2764963E+03  0.7546771E-02  0.1097618E+00
         21   -1    0    0  502  501  0.00000000000E+00  0.00000000000E+00  0.15828698866E+03  0.15828698866E+03  0.00000000000E+00 0.  1.
         21   -1    0    0  501  502 -0.00000000000E+00 -0.00000000000E+00 -0.48298486939E+03  0.48298486939E+03  0.00000000000E+00 0.  1.
         25    1    1    2    0    0 -0.88918804734E+02  0.41647041393E+02 -0.27386375433E+03  0.31665025790E+03  0.12500000000E+03 0.  0.
         25    1    1    2    0    0  0.73448472546E+02  0.57588439467E+02  0.13123552994E+01  0.15600586129E+03  0.12500000000E+03 0.  0.
         25    1    1    2    0    0  0.15470332188E+02 -0.99235480859E+02 -0.52146481696E+02  0.16861573886E+03  0.12500000000E+03 0.  0.
</event>
<event>
 5    0  0.5590591E-005  0.3356083E+03  0.7546771E-02  0.1068682E+00
         21   -1    0    0  502  501  0.00000000000E+00  0.00000000000E+00  0.43381324396E+03  0.43381324396E+03  0.00000000000E+00 0.  1.
         21   -1    0    0  501  502 -0.00000000000E+00 -0.00000000000E+00 -0.25963463100E+03  0.25963463100E+03  0.00000000000E+00 0.  1.
         25    1    1    2    0    0  0.46373851099E+02 -0.14464632241E+03  0.22917949053E+03  0.30202869323E+03  0.12500000000E+03 0.  0.
         25    1    1    2    0    0 -0.24121511747E+02  0.16571379662E+03  0.61489560776E+02  0.21782762865E+03  0.12500000000E+03 0.  0.
         25    1    1    2    0    0 -0.22252339353E+02 -0.21067474205E+02 -0.11649043835E+03  0.17359155309E+03  0.12500000000E+03 0.  0.
</event>
<event>
 5    0  0.5590591E-005  0.2769333E+03  0.7546771E-02  0.1097376E+00
         21   -1    0    0  502  501  0.00000000000E+00  0.00000000000E+00  0.20597876791E+03  0.20597876791E+03  0.00000000000E+00 0. -1.
         21   -1    0    0  501  502 -0.00000000000E+00 -0.00000000000E+00 -0.37232998389E+03  0.37232998389E+03  0.00000000000E+00 0. -1.
         25    1    1    2    0    0  0.31538834201E+02 -0.52645497096E+02 -0.32991738628E+01  0.13929153232E+03  0.12500000000E+03 0.  0.
         25    1    1    2    0    0 -0.17277549231E+03  0.35095161476E+02 -0.10889835542E+03  0.24200597702E+03  0.12500000000E+03 0.  0.
         25    1    1    2    0    0  0.14123665810E+03  0.17550335620E+02 -0.54153686707E+02  0.19701124246E+03  0.12500000000E+03 0.  0.
</event>
<event>
 5    0  0.5590591E-005  0.3004489E+03  0.7546771E-02  0.1085016E+00
         21   -1    0    0  502  501  0.00000000000E+00  0.00000000000E+00  0.21118797405E+03  0.21118797405E+03  0.00000000000E+00 0. -1.
         21   -1    0    0  501  502 -0.00000000000E+00 -0.00000000000E+00 -0.42743691507E+03  0.42743691507E+03  0.00000000000E+00 0. -1.
         25    1    1    2    0    0  0.11024518633E+03 -0.11682584795E+03 -0.10501127018E+03  0.22902979440E+03  0.12500000000E+03 0.  0.
         25    1    1    2    0    0  0.55685497340E+00  0.87263382770E+02 -0.17160420766E+03  0.22953912988E+03  0.12500000000E+03 0.  0.
         25    1    1    2    0    0 -0.11080204131E+03  0.29562465179E+02  0.60366536823E+02  0.18005596484E+03  0.12500000000E+03 0.  0.
</event>
<event>
 5    0  0.5590591E-005  0.3599848E+03  0.7546771E-02  0.1058590E+00
         21   -1    0    0  502  501  0.00000000000E+00  0.00000000000E+00  0.24590648176E+03  0.24590648176E+03  0.00000000000E+00 0. -1.
         21   -1    0    0  501  502 -0.00000000000E+00 -0.00000000000E+00 -0.52698523922E+03  0.52698523922E+03  0.00000000000E+00 0. -1.
         25    1    1    2    0    0 -0.54707924425E+02  0.10161810701E+03 -0.17666847832E+02  0.17104477244E+03  0.12500000000E+03 0.  0.
         25    1    1    2    0    0 -0.18051689488E+03  0.19195957027E+02 -0.19989705793E+02  0.22131295136E+03  0.12500000000E+03 0.  0.
         25    1    1    2    0    0  0.23522481931E+03 -0.12081406403E+03 -0.24342220384E+03  0.38053399717E+03  0.12500000000E+03 0.  0.
</event>
<event>
 5    0  0.5590591E-005  0.3822198E+03  0.7546771E-02  0.1050116E+00
         21   -1    0    0  502  501  0.00000000000E+00  0.00000000000E+00  0.90982897480E+03  0.90982897480E+03  0.00000000000E+00 0.  1.
         21   -1    0    0  501  502 -0.00000000000E+00 -0.00000000000E+00 -0.16057081730E+03  0.16057081730E+03  0.00000000000E+00 0.  1.
         25    1    1    2    0    0 -0.77541879203E+02 -0.25270984034E+03  0.37171544595E+03  0.47294014335E+03  0.12500000000E+03 0.  0.
         25    1    1    2    0    0 -0.22171562907E+01  0.24428022195E+03  0.35270043363E+03  0.44687843817E+03  0.12500000000E+03 0.  0.
         25    1    1    2    0    0  0.79759035494E+02  0.84296183950E+01  0.24842277920E+02  0.15058121059E+03  0.12500000000E+03 0.  0.
</event>
<event>
 5    0  0.6142707E-005  0.2893884E+03  0.7546771E-02  0.1090669E+00
         21   -1    0    0  502  501  0.00000000000E+00  0.00000000000E+00  0.26115620151E+03  0.26115620151E+03  0.00000000000E+00 0.  1.
         21   -1    0    0  501  502 -0.00000000000E+00 -0.00000000000E+00 -0.32067268850E+03  0.32067268850E+03  0.00000000000E+00 0.  1.
         25    1    1    2    0    0 -0.90570700018E+02  0.32706640094E+02 -0.13953851581E+03  0.21063896459E+03  0.12500000000E+03 0.  0.
         25    1    1    2    0    0  0.11732604887E+03  0.42178473963E+02 -0.39409906355E+02  0.18089379793E+03  0.12500000000E+03 0.  0.
         25    1    1    2    0    0 -0.26755348856E+02 -0.74885114057E+02  0.11943193517E+03  0.19029612749E+03  0.12500000000E+03 0.  0.
</event>
<event>
 5    0  0.5590591E-005  0.2969923E+03  0.7546771E-02  0.1086754E+00
         21   -1    0    0  502  501  0.00000000000E+00  0.00000000000E+00  0.79108692748E+03  0.79108692748E+03  0.00000000000E+00 0.  1.
         21   -1    0    0  501  502 -0.00000000000E+00 -0.00000000000E+00 -0.11149773281E+03  0.11149773281E+03  0.00000000000E+00 0.  1.
         25    1    1    2    0    0  0.81432267493E+02 -0.13343036214E+02  0.40364067864E+03  0.43053460751E+03  0.12500000000E+03 0.  0.
         25    1    1    2    0    0 -0.12848296182E+03  0.12202720771E+02  0.16736153038E+02  0.18044909723E+03  0.12500000000E+03 0.  0.
         25    1    1    2    0    0  0.47050694328E+02  0.11403154426E+01  0.25921236299E+03  0.29160095556E+03  0.12500000000E+03 0.  0.
</event>
<event>
 5    0  0.6817173E-005  0.3643859E+03  0.7546771E-02  0.1056861E+00
         21   -1    0    0  502  501  0.00000000000E+00  0.00000000000E+00  0.55837857280E+03  0.55837857280E+03  0.00000000000E+00 0. -1.
         21   -1    0    0  501  502 -0.00000000000E+00 -0.00000000000E+00 -0.23779048701E+03  0.23779048701E+03  0.00000000000E+00 0. -1.
         25    1    1    2    0    0 -0.21615889819E+03  0.33914415047E+02  0.69728898166E+02  0.26146123241E+03  0.12500000000E+03 0.  0.
         25    1    1    2    0    0  0.65655379322E+02 -0.89980205643E+02  0.28285198855E+03  0.32869030054E+03  0.12500000000E+03 0.  0.
         25    1    1    2    0    0  0.15050351886E+03  0.56065790597E+02 -0.31992800927E+02  0.20601752687E+03  0.12500000000E+03 0.  0.
</event>
<event>
 5    0  0.5590591E-005  0.4849707E+03  0.7546771E-02  0.1017778E+00
         21   -1    0    0  502  501  0.00000000000E+00  0.00000000000E+00  0.34714825254E+03  0.34714825254E+03  0.00000000000E+00 0. -1.
         21   -1    0    0  501  502 -0.00000000000E+00 -0.00000000000E+00 -0.67751045323E+03  0.67751045323E+03  0.00000000000E+00 0. -1.
         25    1    1    2    0    0  0.13119021322E+02 -0.31403243754E+02  0.16615561407E+03  0.21069162424E+03  0.12500000000E+03 0.  0.
         25    1    1    2    0    0  0.13411559623E+03  0.19814990227E+01 -0.57492520793E+03  0.60345249540E+03  0.12500000000E+03 0.  0.
         25    1    1    2    0    0 -0.14723461756E+03  0.29421744731E+02  0.78407393171E+02  0.21051458613E+03  0.12500000000E+03 0.  0.
</event>
<event>
 5    0  0.5590591E-005  0.2371965E+03  0.7546771E-02  0.1121675E+00
         21   -1    0    0  502  501  0.00000000000E+00  0.00000000000E+00  0.63617291338E+02  0.63617291338E+02  0.00000000000E+00 0.  1.
         21   -1    0    0  501  502 -0.00000000000E+00 -0.00000000000E+00 -0.88438508345E+03  0.88438508345E+03  0.00000000000E+00 0.  1.
         25    1    1    2    0    0 -0.12739026527E+03  0.29542260678E+02 -0.30949295086E+03  0.35848558058E+03  0.12500000000E+03 0.  0.
         25    1    1    2    0    0  0.35541996850E+02 -0.34014717793E+02 -0.28587343061E+03  0.31586207891E+03  0.12500000000E+03 0.  0.
         25    1    1    2    0    0  0.91848268419E+02  0.44724571153E+01 -0.22540141064E+03  0.27365471530E+03  0.12500000000E+03 0.  0.
</event>
<event>
 5    0  0.5590591E-005  0.3398924E+03  0.7546771E-02  0.1066842E+00
         21   -1    0    0  502  501  0.00000000000E+00  0.00000000000E+00  0.62120912552E+03  0.62120912552E+03  0.00000000000E+00 0.  1.
         21   -1    0    0  501  502 -0.00000000000E+00 -0.00000000000E+00 -0.18597091466E+03  0.18597091466E+03  0.00000000000E+00 0.  1.
         25    1    1    2    0    0 -0.70192251737E+02  0.56962877665E+02  0.20714609913E+02  0.15564644776E+03  0.12500000000E+03 0.  0.
         25    1    1    2    0    0 -0.14456282115E+03  0.92776175067E+02  0.16868508790E+03  0.27126644982E+03  0.12500000000E+03 0.  0.
         25    1    1    2    0    0  0.21475507289E+03 -0.14973905273E+03  0.24583851304E+03  0.38026714259E+03  0.12500000000E+03 0.  0.
</event>
<event>
 5    0  0.5590591E-005  0.3284276E+03  0.7546771E-02  0.1071835E+00
         21   -1    0    0  502  501  0.00000000000E+00  0.00000000000E+00  0.29825757290E+04  0.29825757290E+04  0.00000000000E+00 0. -1.
         21   -1    0    0  501  502 -0.00000000000E+00 -0.00000000000E+00 -0.36164955517E+02  0.36164955517E+02  0.00000000000E+00 0. -1.
         25    1    1    2    0    0  0.14936451902E+02 -0.67096012093E+02  0.97065056062E+03  0.98107720556E+03  0.12500000000E+03 0.  0.
         25    1    1    2    0    0  0.10318483796E+03 -0.11557519932E+03  0.13310784726E+04  0.13458824754E+04  0.12500000000E+03 0.  0.
         25    1    1    2    0    0 -0.11812128987E+03  0.18267121142E+03  0.64468174029E+03  0.69178100354E+03  0.12500000000E+03 0.  0.
</event>
<event>
 5    0  0.5590591E-005  0.3511393E+03  0.7546771E-02  0.1062148E+00
         21   -1    0    0  502  501  0.00000000000E+00  0.00000000000E+00  0.58642679225E+03  0.58642679225E+03  0.00000000000E+00 0.  1.
         21   -1    0    0  501  502 -0.00000000000E+00 -0.00000000000E+00 -0.21025435239E+03  0.21025435239E+03  0.00000000000E+00 0.  1.
         25    1    1    2    0    0 -0.18846509499E+03  0.15566152485E+03  0.44345651505E+02  0.27810274928E+03  0.12500000000E+03 0.  0.
         25    1    1    2    0    0  0.18103731716E+03 -0.16043568285E+03  0.24331939065E+03  0.36516221656E+03  0.12500000000E+03 0.  0.
         25    1    1    2    0    0  0.74277778316E+01  0.47741579978E+01  0.88507397701E+02  0.15341617879E+03  0.12500000000E+03 0.  0.
</event>
<event>
 5    0  0.5590591E-005  0.2575403E+03  0.7546771E-02  0.1108630E+00
         21   -1    0    0  502  501  0.00000000000E+00  0.00000000000E+00  0.28630740771E+03  0.28630740771E+03  0.00000000000E+00 0.  1.
         21   -1    0    0  501  502 -0.00000000000E+00 -0.00000000000E+00 -0.23166358026E+03  0.23166358026E+03  0.00000000000E+00 0.  1.
         25    1    1    2    0    0 -0.69259504653E+02  0.63297370002E+02  0.40866463144E+02  0.16155031366E+03  0.12500000000E+03 0.  0.
         25    1    1    2    0    0  0.11653627022E+03 -0.10113671903E+03  0.64131336193E+02  0.20867957853E+03  0.12500000000E+03 0.  0.
         25    1    1    2    0    0 -0.47276765571E+02  0.37839349026E+02 -0.50353971881E+02  0.14774109578E+03  0.12500000000E+03 0.  0.
</event>
<event>
 5    0  0.5590591E-005  0.2667114E+03  0.7546771E-02  0.1103177E+00
         21   -1    0    0  502  501  0.00000000000E+00  0.00000000000E+00  0.68122455065E+03  0.68122455065E+03  0.00000000000E+00 0.  1.
         21   -1    0    0  501  502 -0.00000000000E+00 -0.00000000000E+00 -0.10442222184E+03  0.10442222184E+03  0.00000000000E+00 0.  1.
         25    1    1    2    0    0  0.99508474440E+02  0.10681896101E+03  0.12976848601E+03  0.23189887210E+03  0.12500000000E+03 0.  0.
         25    1    1    2    0    0  0.35163786327E+01  0.11174047664E+02  0.15305005029E+03  0.19795590962E+03  0.12500000000E+03 0.  0.
         25    1    1    2    0    0 -0.10302485307E+03 -0.11799300868E+03  0.29398379251E+03  0.35579199078E+03  0.12500000000E+03 0.  0.
</event>
<event>
 5    0  0.5590591E-005  0.2515768E+03  0.7546771E-02  0.1112312E+00
         21   -1    0    0  502  501  0.00000000000E+00  0.00000000000E+00  0.13666235827E+03  0.13666235827E+03  0.00000000000E+00 0. -1.
         21   -1    0    0  501  502 -0.00000000000E+00 -0.00000000000E+00 -0.46311875655E+03  0.46311875655E+03  0.00000000000E+00 0. -1.
         25    1    1    2    0    0 -0.84444397193E+02  0.40866296785E+02  0.17121775197E+02  0.15722298056E+03  0.12500000000E+03 0.  0.
         25    1    1    2    0    0  0.44989458979E+01 -0.59274462567E+00 -0.16054247563E+03  0.20351775928E+03  0.12500000000E+03 0.  0.
         25    1    1    2    0    0  0.79945451295E+02 -0.40273552159E+02 -0.18303569785E+03  0.23904037499E+03  0.12500000000E+03 0.  0.
</event>
<event>
 5    0  0.5590591E-005  0.2754085E+03  0.7546771E-02  0.1098223E+00
         21   -1    0    0  502  501  0.00000000000E+00  0.00000000000E+00  0.90501646185E+02  0.90501646185E+02  0.00000000000E+00 0.  1.
         21   -1    0    0  501  502 -0.00000000000E+00 -0.00000000000E+00 -0.83810440562E+03  0.83810440562E+03  0.00000000000E+00 0.  1.
         25    1    1    2    0    0 -0.36877064889E+02 -0.44841225509E+02 -0.90054740965E+02  0.16463751028E+03  0.12500000000E+03 0.  0.
         25    1    1    2    0    0 -0.10036884611E+03  0.95510284167E+02 -0.40965530495E+03  0.45015396091E+03  0.12500000000E+03 0.  0.
         25    1    1    2    0    0  0.13724591100E+03 -0.50669058658E+02 -0.24789271352E+03  0.31381458061E+03  0.12500000000E+03 0.  0.
</event>
<event>
 5    0  0.5590591E-005  0.2995351E+03  0.7546771E-02  0.1085473E+00
         21   -1    0    0  502  501  0.00000000000E+00  0.00000000000E+00  0.41746285464E+03  0.41746285464E+03  0.00000000000E+00 0.  1.
         21   -1    0    0  501  502 -0.00000000000E+00 -0.00000000000E+00 -0.21492036739E+03  0.21492036739E+03  0.00000000000E+00 0.  1.
         25    1    1    2    0    0  0.16177190959E+02 -0.69478894320E+02 -0.98355601207E+01  0.14425933767E+03  0.12500000000E+03 0.  0.
         25    1    1    2    0    0  0.85631907926E+02  0.71916782472E+02 -0.54474748085E+02  0.17634439440E+03  0.12500000000E+03 0.  0.
         25    1    1    2    0    0 -0.10180909888E+03 -0.24378881512E+01  0.26685279546E+03  0.31177948996E+03  0.12500000000E+03 0.  0.
</event>
<event>
 5    0  0.5590591E-005  0.3673525E+03  0.7546771E-02  0.1055710E+00
         21   -1    0    0  502  501  0.00000000000E+00  0.00000000000E+00  0.92954049513E+02  0.92954049513E+02  0.00000000000E+00 0. -1.
         21   -1    0    0  501  502 -0.00000000000E+00 -0.00000000000E+00 -0.14517694642E+04  0.14517694642E+04  0.00000000000E+00 0. -1.
         25    1    1    2    0    0  0.21438848730E+03 -0.87479748387E+02 -0.32949337636E+03  0.42167050517E+03  0.12500000000E+03 0.  0.
         25    1    1    2    0    0 -0.15750138421E+03  0.17744610225E+03 -0.77738185297E+03  0.82233895114E+03  0.12500000000E+03 0.  0.
         25    1    1    2    0    0 -0.56887103093E+02 -0.89966353868E+02 -0.25194018541E+03  0.30071405745E+03  0.12500000000E+03 0.  0.
</event>
<event>
 5    0  0.5590591E-005  0.2500974E+03  0.7546771E-02  0.1113243E+00
         21   -1    0    0  502  501  0.00000000000E+00  0.00000000000E+00  0.12465282749E+03  0.12465282749E+03  0.00000000000E+00 0.  1.
         21   -1    0    0  501  502 -0.00000000000E+00 -0.00000000000E+00 -0.50178315093E+03  0.50178315093E+03  0.00000000000E+00 0.  1.
         25    1    1    2    0    0  0.58863478185E+02 -0.71531613150E+02 -0.11110735899E+03  0.19118453380E+03  0.12500000000E+03 0.  0.
         25    1    1    2    0    0 -0.16627666798E+02  0.13652554145E+03 -0.91929684224E+02  0.20734456736E+03  0.12500000000E+03 0.  0.
         25    1    1    2    0    0 -0.42235811387E+02 -0.64993928305E+02 -0.17409328023E+03  0.22790687726E+03  0.12500000000E+03 0.  0.
</event>
<event>
 5    0  0.5590591E-005  0.2970688E+03  0.7546771E-02  0.1086715E+00
         21   -1    0    0  502  501  0.00000000000E+00  0.00000000000E+00  0.37181897780E+03  0.37181897780E+03  0.00000000000E+00 0.  1.
         21   -1    0    0  501  502 -0.00000000000E+00 -0.00000000000E+00 -0.23734637299E+03  0.23734637299E+03  0.00000000000E+00 0.  1.
         25    1    1    2    0    0  0.36823228952E+01  0.14607578196E+03 -0.10334986778E+03  0.21830686830E+03  0.12500000000E+03 0.  0.
         25    1    1    2    0    0 -0.27009885084E+02 -0.22982670536E+02  0.12903050652E+03  0.18311638007E+03  0.12500000000E+03 0.  0.
         25    1    1    2    0    0  0.23327562189E+02 -0.12309311142E+03  0.10879196607E+03  0.20774210242E+03  0.12500000000E+03 0.  0.
</event>
<event>
 5    0  0.5590591E-005  0.3186462E+03  0.7546771E-02  0.1076274E+00
         21   -1    0    0  502  501  0.00000000000E+00  0.00000000000E+00  0.17334145986E+03  0.17334145986E+03  0.00000000000E+00 0. -1.
         21   -1    0    0  501  502 -0.00000000000E+00 -0.00000000000E+00 -0.58575383395E+03  0.58575383395E+03  0.00000000000E+00 0. -1.
         25    1    1    2    0    0  0.93614652652E+01  0.15001699631E+03 -0.19571305546E+02  0.19647079227E+03  0.12500000000E+03 0.  0.
         25    1    1    2    0    0 -0.10340228300E+03  0.12683863660E+02 -0.24030334892E+03  0.29021304593E+03  0.12500000000E+03 0.  0.
         25    1    1    2    0    0  0.94040817732E+02 -0.16270085997E+03 -0.15253771962E+03  0.27241145560E+03  0.12500000000E+03 0.  0.
</event>
<event>
 5    0  0.5590591E-005  0.3152920E+03  0.7546771E-02  0.1077837E+00
         21   -1    0    0  502  501  0.00000000000E+00  0.00000000000E+00  0.97245135412E+03  0.97245135412E+03  0.00000000000E+00 0. -1.
         21   -1    0    0  501  502 -0.00000000000E+00 -0.00000000000E+00 -0.10222524256E+03  0.10222524256E+03  0.00000000000E+00 0. -1.
         25    1    1    2    0    0 -0.56738995083E+02  0.70240210531E+02  0.12158307239E+02  0.15467975037E+03  0.12500000000E+03 0.  0.
         25    1    1    2    0    0 -0.59819540732E+02  0.16729904068E+02  0.38619573109E+03  0.41064633184E+03  0.12500000000E+03 0.  0.
         25    1    1    2    0    0  0.11655853581E+03 -0.86970114599E+02  0.47187207322E+03  0.50935051447E+03  0.12500000000E+03 0.  0.
</event>
<event>
 5    0  0.5590591E-005  0.3232003E+03  0.7546771E-02  0.1074186E+00
         21   -1    0    0  502  501  0.00000000000E+00  0.00000000000E+00  0.13570659435E+04  0.13570659435E+04  0.00000000000E+00 0.  1.
         21   -1    0    0  501  502 -0.00000000000E+00 -0.00000000000E+00 -0.76973739736E+02  0.76973739736E+02  0.00000000000E+00 0.  1.
         25    1    1    2    0    0 -0.33713254817E+02 -0.43008177171E+02  0.20652894031E+03  0.24751866604E+03  0.12500000000E+03 0.  0.
         25    1    1    2    0    0  0.93431456302E+02  0.21996421774E+03  0.70523374256E+03  0.75504524749E+03  0.12500000000E+03 0.  0.
         25    1    1    2    0    0 -0.59718201485E+02 -0.17695604057E+03  0.36832952095E+03  0.43147576975E+03  0.12500000000E+03 0.  0.
</event>
<event>
 5    0  0.5590591E-005  0.2065376E+03  0.7546771E-02  0.1144338E+00
         21   -1    0    0  502  501  0.00000000000E+00  0.00000000000E+00  0.49871962862E+03  0.49871962862E+03  0.00000000000E+00 0.  1.
         21   -1    0    0  501  502 -0.00000000000E+00 -0.00000000000E+00 -0.85534597948E+02  0.85534597948E+02  0.00000000000E+00 0.  1.
         25    1    1    2    0    0  0.49280543641E+02  0.13075696097E+02  0.14151541098E+03  0.19557903097E+03  0.12500000000E+03 0.  0.
         25    1    1    2    0    0  0.26701333410E+02  0.10158695221E+02  0.14710581768E+03  0.19514425917E+03  0.12500000000E+03 0.  0.
         25    1    1    2    0    0 -0.75981877051E+02 -0.23234391318E+02  0.12456380201E+03  0.19353093642E+03  0.12500000000E+03 0.  0.
</event>
<event>
 5    0  0.5636742E-005  0.2460225E+03  0.7546771E-02  0.1115845E+00
         21   -1    0    0  502  501  0.00000000000E+00  0.00000000000E+00  0.18469983560E+03  0.18469983560E+03  0.00000000000E+00 0.  1.
         21   -1    0    0  501  502 -0.00000000000E+00 -0.00000000000E+00 -0.32770503615E+03  0.32770503615E+03  0.00000000000E+00 0.  1.
         25    1    1    2    0    0  0.33053211634E+02 -0.49655654287E+02 -0.12605383971E+03  0.18727725251E+03  0.12500000000E+03 0.  0.
         25    1    1    2    0    0 -0.26519307200E+02 -0.37844121444E+02 -0.84855620976E+02  0.15799027690E+03  0.12500000000E+03 0.  0.
         25    1    1    2    0    0 -0.65339044339E+01  0.87499775730E+02  0.67904260135E+02  0.16713734234E+03  0.12500000000E+03 0.  0.
</event>
<event>
 5    0  0.5590591E-005  0.2989100E+03  0.7546771E-02  0.1085787E+00
         21   -1    0    0  502  501  0.00000000000E+00  0.00000000000E+00  0.13727992969E+04  0.13727992969E+04  0.00000000000E+00 0. -1.
         21   -1    0    0  501  502 -0.00000000000E+00 -0.00000000000E+00 -0.65083941370E+02  0.65083941370E+02  0.00000000000E+00 0. -1.
         25    1    1    2    0    0 -0.56963604791E+02  0.75827256069E+02  0.84387902556E+02  0.17815988081E+03  0.12500000000E+03 0.  0.
         25    1    1    2    0    0  0.67030517403E+02 -0.26318339188E+02  0.86348553837E+03  0.87545303713E+03  0.12500000000E+03 0.  0.
         25    1    1    2    0    0 -0.10066912612E+02 -0.49508916882E+02  0.35984191462E+03  0.38427032034E+03  0.12500000000E+03 0.  0.
</event>
<event>
 5    0  0.5590591E-005  0.2931856E+03  0.7546771E-02  0.1088698E+00
         21   -1    0    0  502  501  0.00000000000E+00  0.00000000000E+00  0.76096709297E+03  0.76096709297E+03  0.00000000000E+00 0.  1.
         21   -1    0    0  501  502 -0.00000000000E+00 -0.00000000000E+00 -0.11295865583E+03  0.11295865583E+03  0.00000000000E+00 0.  1.
         25    1    1    2    0    0  0.85797682912E+01  0.13841416426E+03  0.97828575474E+02  0.21077837525E+03  0.12500000000E+03 0.  0.
         25    1    1    2    0    0  0.54650538284E+02 -0.27913427939E+02  0.41944887617E+03  0.44195950099E+03  0.12500000000E+03 0.  0.
         25    1    1    2    0    0 -0.63230306576E+02 -0.11050073632E+03  0.13073098550E+03  0.22118787256E+03  0.12500000000E+03 0.  0.
</event>
<event>
 5    0  0.5590591E-005  0.3573789E+03  0.7546771E-02  0.1059627E+00
         21   -1    0    0  502  501  0.00000000000E+00  0.00000000000E+00  0.72456363559E+03  0.72456363559E+03  0.00000000000E+00 0.  1.
         21   -1    0    0  501  502 -0.00000000000E+00 -0.00000000000E+00 -0.17627119476E+03  0.17627119476E+03  0.00000000000E+00 0.  1.
         25    1    1    2    0    0  0.37045528915E+02  0.49741733904E+02  0.75416887609E+02  0.15861689141E+03  0.12500000000E+03 0.  0.
         25    1    1    2    0    0  0.15438301239E+03  0.19501960925E+02  0.46178882041E+03  0.50307887617E+03  0.12500000000E+03 0.  0.
         25    1    1    2    0    0 -0.19142854130E+03 -0.69243694829E+02  0.11086732810E+02  0.23913906277E+03  0.12500000000E+03 0.  0.
</event>
<event>
 5    0  0.5590591E-005  0.3041446E+03  0.7546771E-02  0.1083187E+00
         21   -1    0    0  502  501  0.00000000000E+00  0.00000000000E+00  0.23618014945E+03  0.23618014945E+03  0.00000000000E+00 0. -1.
         21   -1    0    0  501  502 -0.00000000000E+00 -0.00000000000E+00 -0.39166678502E+03  0.39166678502E+03  0.00000000000E+00 0. -1.
         25    1    1    2    0    0 -0.26696982208E+02 -0.36058012646E+02  0.93493471081E+02  0.16241594217E+03  0.12500000000E+03 0.  0.
         25    1    1    2    0    0 -0.31216000659E+02 -0.10723600674E+03 -0.19952640650E+03  0.26059506275E+03  0.12500000000E+03 0.  0.
         25    1    1    2    0    0  0.57912982867E+02  0.14329401939E+03 -0.49453700158E+02  0.20483592956E+03  0.12500000000E+03 0.  0.
</event>
<event>
 5    0  0.5590591E-005  0.3640898E+03  0.7546771E-02  0.1056976E+00
         21   -1    0    0  502  501  0.00000000000E+00  0.00000000000E+00  0.57742638471E+02  0.57742638471E+02  0.00000000000E+00 0.  1.
         21   -1    0    0  501  502 -0.00000000000E+00 -0.00000000000E+00 -0.22957277746E+04  0.22957277746E+04  0.00000000000E+00 0.  1.
         25    1    1    2    0    0 -0.44569376622E+02 -0.75966311076E+02 -0.96911635267E+03  0.98110591414E+03  0.12500000000E+03 0.  0.
         25    1    1    2    0    0 -0.43870628233E+02  0.16703002891E+03 -0.21224407065E+03  0.30082587672E+03  0.12500000000E+03 0.  0.
         25    1    1    2    0    0  0.88440004854E+02 -0.91063717833E+02 -0.10566247128E+04  0.10715386222E+04  0.12500000000E+03 0.  0.
</event>
<event>
 5    0  0.5590591E-005  0.2128312E+03  0.7546771E-02  0.1139343E+00
         21   -1    0    0  502  501  0.00000000000E+00  0.00000000000E+00  0.52010024777E+03  0.52010024777E+03  0.00000000000E+00 0. -1.
         21   -1    0    0  501  502 -0.00000000000E+00 -0.00000000000E+00 -0.87093049847E+02  0.87093049847E+02  0.00000000000E+00 0. -1.
         25    1    1    2    0    0  0.32669416048E+02  0.32705710611E+02  0.94197724081E+02  0.16320283537E+03  0.12500000000E+03 0.  0.
         25    1    1    2    0    0 -0.76991608576E+02 -0.32908099869E+02  0.21603074010E+03  0.26325829806E+03  0.12500000000E+03 0.  0.
         25    1    1    2    0    0  0.44322192528E+02  0.20238925767E+00  0.12277873373E+03  0.18073216418E+03  0.12500000000E+03 0.  0.
</event>
<event>
 5    0  0.5590591E-005  0.2660777E+03  0.7546771E-02  0.1103546E+00
         21   -1    0    0  502  501  0.00000000000E+00  0.00000000000E+00  0.12321871976E+04  0.12321871976E+04  0.00000000000E+00 0.  1.
         21   -1    0    0  501  502 -0.00000000000E+00 -0.00000000000E+00 -0.57456646407E+02  0.57456646407E+02  0.00000000000E+00 0.  1.
         25    1    1    2    0    0 -0.82565235184E+02 -0.14939094950E+03  0.49669651884E+03  0.53987693568E+03  0.12500000000E+03 0.  0.
         25    1    1    2    0    0  0.57193485428E+02  0.33354503846E+02  0.23405074419E+03  0.27347462141E+03  0.12500000000E+03 0.  0.
         25    1    1    2    0    0  0.25371749756E+02  0.11603644565E+03  0.44398328818E+03  0.47629228693E+03  0.12500000000E+03 0.  0.
</event>
<event>
 5    0  0.5590591E-005  0.3513289E+03  0.7546771E-02  0.1062071E+00
         21   -1    0    0  502  501  0.00000000000E+00  0.00000000000E+00  0.23036978066E+03  0.23036978066E+03  0.00000000000E+00 0. -1.
         21   -1    0    0  501  502 -0.00000000000E+00 -0.00000000000E+00 -0.53579947250E+03  0.53579947250E+03  0.00000000000E+00 0. -1.
         25    1    1    2    0    0  0.13765184768E+03 -0.79885129373E+02 -0.34704402631E+03  0.40173899644E+03  0.12500000000E+03 0.  0.
         25    1    1    2    0    0 -0.74096657913E+01 -0.51508085863E+02 -0.82620579532E+01  0.13565119851E+03  0.12500000000E+03 0.  0.
         25    1    1    2    0    0 -0.13024218189E+03  0.13139321524E+03  0.49876392422E+02  0.22877905821E+03  0.12500000000E+03 0.  0.
</event>
<event>
 5    0  0.5590591E-005  0.2798837E+03  0.7546771E-02  0.1095753E+00
         21   -1    0    0  502  501  0.00000000000E+00  0.00000000000E+00  0.22916369690E+03  0.22916369690E+03  0.00000000000E+00 0.  1.
         21   -1    0    0  501  502 -0.00000000000E+00 -0.00000000000E+00 -0.34182926910E+03  0.34182926910E+03  0.00000000000E+00 0.  1.
         25    1    1    2    0    0  0.25954744905E+02 -0.54839898192E+02  0.79322592513E+02  0.15999417771E+03  0.12500000000E+03 0.  0.
         25    1    1    2    0    0 -0.98127797260E+02 -0.35664252725E+02 -0.17613628504E+03  0.23989579910E+03  0.12500000000E+03 0.  0.
         25    1    1    2    0    0  0.72173052355E+02  0.90504150917E+02 -0.15851879674E+02  0.17110298919E+03  0.12500000000E+03 0.  0.
</event>
<event>
 5    0  0.5706741E-005  0.6275372E+03  0.7546771E-02  0.9849867E-01
         21   -1    0    0  502  501  0.00000000000E+00  0.00000000000E+00  0.68149019533E+03  0.68149019533E+03  0.00000000000E+00 0. -1.
         21   -1    0    0  501  502 -0.00000000000E+00 -0.00000000000E+00 -0.57785564915E+03  0.57785564915E+03  0.00000000000E+00 0. -1.
         25    1    1    2    0    0 -0.14826731895E+03 -0.45735011221E+03  0.78943401939E+02  0.50300038143E+03  0.12500000000E+03 0.  0.
         25    1    1    2    0    0 -0.40356920517E+02  0.30143913040E+03  0.24013261825E+03  0.40716446888E+03  0.12500000000E+03 0.  0.
         25    1    1    2    0    0  0.18862423947E+03  0.15591098181E+03 -0.21544147401E+03  0.34918099417E+03  0.12500000000E+03 0.  0.
</event>
<event>
 5    0  0.5590591E-005  0.3528429E+03  0.7546771E-02  0.1061454E+00
         21   -1    0    0  502  501  0.00000000000E+00  0.00000000000E+00  0.94291267493E+03  0.94291267493E+03  0.00000000000E+00 0.  1.
         21   -1    0    0  501  502 -0.00000000000E+00 -0.00000000000E+00 -0.13203567991E+03  0.13203567991E+03  0.00000000000E+00 0.  1.
         25    1    1    2    0    0 -0.36815859858E+02  0.18647407785E+03  0.13347293786E+03  0.26375749163E+03  0.12500000000E+03 0.  0.
         25    1    1    2    0    0 -0.69834448284E+02 -0.11571198619E+02  0.73522840043E+02  0.16137332745E+03  0.12500000000E+03 0.  0.
         25    1    1    2    0    0  0.10665030814E+03 -0.17490287924E+03  0.60388121712E+03  0.64981753576E+03  0.12500000000E+03 0.  0.
</event>
<event>
 5    0  0.6256090E-005  0.2903982E+03  0.7546771E-02  0.1090141E+00
         21   -1    0    0  502  501  0.00000000000E+00  0.00000000000E+00  0.30090857488E+03  0.30090857488E+03  0.00000000000E+00 0. -1.
         21   -1    0    0  501  502 -0.00000000000E+00 -0.00000000000E+00 -0.28025492896E+03  0.28025492896E+03  0.00000000000E+00 0. -1.
         25    1    1    2    0    0  0.61458444606E+02 -0.30966253130E+01  0.12129039110E+03  0.18472435810E+03  0.12500000000E+03 0.  0.
         25    1    1    2    0    0 -0.41746179819E+02  0.88979500737E+02  0.64288822300E+02  0.17151719376E+03  0.12500000000E+03 0.  0.
         25    1    1    2    0    0 -0.19712264786E+02 -0.85882875424E+02 -0.16492556748E+03  0.22492195198E+03  0.12500000000E+03 0.  0.
</event>
<event>
 5    0  0.5590591E-005  0.2211700E+03  0.7546771E-02  0.1133014E+00
         21   -1    0    0  502  501  0.00000000000E+00  0.00000000000E+00  0.66210334800E+03  0.66210334800E+03  0.00000000000E+00 0. -1.
         21   -1    0    0  501  502 -0.00000000000E+00 -0.00000000000E+00 -0.73879989995E+02  0.73879989995E+02  0.00000000000E+00 0. -1.
         25    1    1    2    0    0 -0.14555682417E+02  0.87539127841E+01  0.26678076860E+03  0.29510248622E+03  0.12500000000E+03 0.  0.
         25    1    1    2    0    0  0.21888383536E+02 -0.68945672635E+01  0.28244493234E+03  0.30972048075E+03  0.12500000000E+03 0.  0.
         25    1    1    2    0    0 -0.73327011196E+01 -0.18593455206E+01  0.38997657072E+02  0.13116037103E+03  0.12500000000E+03 0.  0.
</event>
<event>
 5    0  0.5590591E-005  0.3932977E+03  0.7546771E-02  0.1046125E+00
         21   -1    0    0  502  501  0.00000000000E+00  0.00000000000E+00  0.11801735298E+03  0.11801735298E+03  0.00000000000E+00 0.  1.
         21   -1    0    0  501  502 -0.00000000000E+00 -0.00000000000E+00 -0.13106805257E+04  0.13106805257E+04  0.00000000000E+00 0.  1.
         25    1    1    2    0    0 -0.92777030308E+02  0.22631261838E+03 -0.77911288976E+03  0.82611553283E+03  0.12500000000E+03 0.  0.
         25    1    1    2    0    0  0.63759379568E+02 -0.22188707685E+03 -0.39288761165E+03  0.47253021993E+03  0.12500000000E+03 0.  0.
         25    1    1    2    0    0  0.29017650739E+02 -0.44255415314E+01 -0.20662671317E+02  0.13005212593E+03  0.12500000000E+03 0.  0.
</event>
<event>
 5    0  0.5590591E-005  0.4166166E+03  0.7546771E-02  0.1038173E+00
         21   -1    0    0  502  501  0.00000000000E+00  0.00000000000E+00  0.27454311243E+03  0.27454311243E+03  0.00000000000E+00 0.  1.
         21   -1    0    0  501  502 -0.00000000000E+00 -0.00000000000E+00 -0.63221177402E+03  0.63221177402E+03  0.00000000000E+00 0.  1.
         25    1    1    2    0    0  0.66335686072E+02 -0.31538459422E+02 -0.12838145789E+03  0.19365406373E+03  0.12500000000E+03 0.  0.
         25    1    1    2    0    0  0.18711573649E+03  0.16139632791E+03 -0.28473383477E+03  0.39718941346E+03  0.12500000000E+03 0.  0.
         25    1    1    2    0    0 -0.25345142256E+03 -0.12985786849E+03  0.55446631073E+02  0.31591140926E+03  0.12500000000E+03 0.  0.
</event>
<event>
 5    0  0.5590591E-005  0.2278427E+03  0.7546771E-02  0.1128167E+00
         21   -1    0    0  502  501  0.00000000000E+00  0.00000000000E+00  0.83303839945E+02  0.83303839945E+02  0.00000000000E+00 0.  1.
         21   -1    0    0  501  502 -0.00000000000E+00 -0.00000000000E+00 -0.62316801935E+03  0.62316801935E+03  0.00000000000E+00 0.  1.
         25    1    1    2    0    0  0.95359197761E+02 -0.28402838207E+02 -0.23986990211E+03  0.28820594677E+03  0.12500000000E+03 0.  0.
         25    1    1    2    0    0 -0.72507655786E+02  0.62145600011E+02 -0.13496993452E+03  0.20727112431E+03  0.12500000000E+03 0.  0.
         25    1    1    2    0    0 -0.22851541975E+02 -0.33742761804E+02 -0.16502434277E+03  0.21099478821E+03  0.12500000000E+03 0.  0.
</event>
<event>
 5    0  0.5590591E-005  0.3473197E+03  0.7546771E-02  0.1063721E+00
         21   -1    0    0  502  501  0.00000000000E+00  0.00000000000E+00  0.17393651949E+04  0.17393651949E+04  0.00000000000E+00 0.  1.
         21   -1    0    0  501  502 -0.00000000000E+00 -0.00000000000E+00 -0.69353458282E+02  0.69353458282E+02  0.00000000000E+00 0.  1.
         25    1    1    2    0    0  0.11471359355E+03 -0.10379833708E+03  0.95512105099E+03  0.97560982230E+03  0.12500000000E+03 0.  0.
         25    1    1    2    0    0 -0.15961935942E+03  0.79085053543E+02  0.18302243533E+03  0.28435013175E+03  0.12500000000E+03 0.  0.
         25    1    1    2    0    0  0.44905765872E+02  0.24713283541E+02  0.53186825031E+03  0.54875869914E+03  0.12500000000E+03 0.  0.
</event>
<event>
 5    0  0.5590591E-005  0.3854966E+03  0.7546771E-02  0.1048921E+00
         21   -1    0    0  502  501  0.00000000000E+00  0.00000000000E+00  0.20650716309E+03  0.20650716309E+03  0.00000000000E+00 0. -1.
         21   -1    0    0  501  502 -0.00000000000E+00 -0.00000000000E+00 -0.71962465502E+03  0.71962465502E+03  0.00000000000E+00 0. -1.
         25    1    1    2    0    0 -0.10728345979E+03 -0.20981801470E+03 -0.84184536364E+02  0.27972374980E+03  0.12500000000E+03 0.  0.
         25    1    1    2    0    0  0.20535172266E+03  0.14026630634E+03 -0.37048779093E+03  0.46338986817E+03  0.12500000000E+03 0.  0.
         25    1    1    2    0    0 -0.98068262865E+02  0.69551708361E+02 -0.58445164630E+02  0.18301820015E+03  0.12500000000E+03 0.  0.
</event>
<event>
 5    0  0.5590591E-005  0.3903669E+03  0.7546771E-02  0.1047167E+00
         21   -1    0    0  502  501  0.00000000000E+00  0.00000000000E+00  0.75946146761E+02  0.75946146761E+02  0.00000000000E+00 0. -1.
         21   -1    0    0  501  502 -0.00000000000E+00 -0.00000000000E+00 -0.20065053071E+04  0.20065053071E+04  0.00000000000E+00 0. -1.
         25    1    1    2    0    0  0.73245485082E+02  0.15160745222E+03 -0.39138020996E+03  0.44401935701E+03  0.12500000000E+03 0.  0.
         25    1    1    2    0    0 -0.16925929527E+03  0.11654680045E+03 -0.52190110134E+03  0.57466305372E+03  0.12500000000E+03 0.  0.
         25    1    1    2    0    0  0.96013810185E+02 -0.26815425267E+03 -0.10172778491E+04  0.10637690431E+04  0.12500000000E+03 0.  0.
</event>
<event>
 5    0  0.5590591E-005  0.3665121E+03  0.7546771E-02  0.1056035E+00
         21   -1    0    0  502  501  0.00000000000E+00  0.00000000000E+00  0.34734256726E+03  0.34734256726E+03  0.00000000000E+00 0. -1.
         21   -1    0    0  501  502 -0.00000000000E+00 -0.00000000000E+00 -0.38673949041E+03  0.38673949041E+03  0.00000000000E+00 0. -1.
         25    1    1    2    0    0  0.86519583706E+02 -0.16316253524E+03 -0.13555677621E+03  0.26097565183E+03  0.12500000000E+03 0.  0.
         25    1    1    2    0    0 -0.28370374369E+02  0.18097690003E+03 -0.91215311686E+02  0.23979730935E+03  0.12500000000E+03 0.  0.
         25    1    1    2    0    0 -0.58149209337E+02 -0.17814364791E+02  0.18737516475E+03  0.23330909649E+03  0.12500000000E+03 0.  0.
</event>
<event>
 5    0  0.5590591E-005  0.3181810E+03  0.7546771E-02  0.1076490E+00
         21   -1    0    0  502  501  0.00000000000E+00  0.00000000000E+00  0.22359625608E+03  0.22359625608E+03  0.00000000000E+00 0.  1.
         21   -1    0    0  501  502 -0.00000000000E+00 -0.00000000000E+00 -0.45277658563E+03  0.45277658563E+03  0.00000000000E+00 0.  1.
         25    1    1    2    0    0 -0.20453131200E+03  0.11167453540E+03 -0.22833722192E+02  0.26542539124E+03  0.12500000000E+03 0.  0.
         25    1    1    2    0    0  0.63646037081E+02 -0.26509708818E+02 -0.12167868461E+03  0.18757474506E+03  0.12500000000E+03 0.  0.
         25    1    1    2    0    0  0.14088527492E+03 -0.85164826587E+02 -0.84667922752E+02  0.22337270540E+03  0.12500000000E+03 0.  0.
</event>
<event>
 5    0  0.5598670E-005  0.3606056E+03  0.7546771E-02  0.1058344E+00
         21   -1    0    0  502  501  0.00000000000E+00  0.00000000000E+00  0.20666193695E+03  0.20666193695E+03  0.00000000000E+00 0. -1.
         21   -1    0    0  501  502 -0.00000000000E+00 -0.00000000000E+00 -0.62922279557E+03  0.62922279557E+03  0.00000000000E+00 0. -1.
         25    1    1    2    0    0  0.18011501939E+03  0.11128487376E+01 -0.18602029099E+03  0.28752601152E+03  0.12500000000E+03 0.  0.
         25    1    1    2    0    0 -0.21769064791E+03  0.93211676464E+02 -0.27389580360E+03  0.38304248596E+03  0.12500000000E+03 0.  0.
         25    1    1    2    0    0  0.37575628521E+02 -0.94324525202E+02  0.37355235963E+02  0.16531623504E+03  0.12500000000E+03 0.  0.
</event>
<event>
 5    0  0.5590591E-005  0.2729001E+03  0.7546771E-02  0.1099631E+00
         21   -1    0    0  502  501  0.00000000000E+00  0.00000000000E+00  0.12797456159E+04  0.12797456159E+04  0.00000000000E+00 0. -1.
         21   -1    0    0  501  502 -0.00000000000E+00 -0.00000000000E+00 -0.58194748026E+02  0.58194748026E+02  0.00000000000E+00 0. -1.
         25    1    1    2    0    0  0.39972702309E+02 -0.11348732027E+03  0.24925867534E+03  0.30369734280E+03  0.12500000000E+03 0.  0.
         25    1    1    2    0    0 -0.12074891028E+03  0.16325946803E+02  0.46141477120E+03  0.49333095073E+03  0.12500000000E+03 0.  0.
         25    1    1    2    0    0  0.80776207966E+02  0.97161373463E+02  0.51087742133E+03  0.54091207039E+03  0.12500000000E+03 0.  0.
</event>
<event>
 5    0  0.5590591E-005  0.2700623E+03  0.7546771E-02  0.1101244E+00
         21   -1    0    0  502  501  0.00000000000E+00  0.00000000000E+00  0.91831334077E+02  0.91831334077E+02  0.00000000000E+00 0. -1.
         21   -1    0    0  501  502 -0.00000000000E+00 -0.00000000000E+00 -0.79421309741E+03  0.79421309741E+03  0.00000000000E+00 0. -1.
         25    1    1    2    0    0 -0.54267054876E+01  0.92910381738E+01 -0.29197213936E+03  0.31778688249E+03  0.12500000000E+03 0.  0.
         25    1    1    2    0    0 -0.71720555854E+02  0.10518272317E+03 -0.30743531269E+03  0.35545564404E+03  0.12500000000E+03 0.  0.
         25    1    1    2    0    0  0.77147261341E+02 -0.11447376135E+03 -0.10297431128E+03  0.21280190496E+03  0.12500000000E+03 0.  0.
</event>
<event>
 5    0  0.5590591E-005  0.2521992E+03  0.7546771E-02  0.1111923E+00
         21   -1    0    0  502  501  0.00000000000E+00  0.00000000000E+00  0.99075937962E+02  0.99075937962E+02  0.00000000000E+00 0.  1.
         21   -1    0    0  501  502 -0.00000000000E+00 -0.00000000000E+00 -0.64197668069E+03  0.64197668069E+03  0.00000000000E+00 0.  1.
         25    1    1    2    0    0  0.12653520780E+03  0.15728645944E+02 -0.28831317842E+03  0.33912835028E+03  0.12500000000E+03 0.  0.
         25    1    1    2    0    0 -0.93043184998E+02  0.44133526093E+02 -0.17576095223E+03  0.23900149524E+03  0.12500000000E+03 0.  0.
         25    1    1    2    0    0 -0.33492022799E+02 -0.59862172037E+02 -0.78826612088E+02  0.16292277313E+03  0.12500000000E+03 0.  0.
</event>
<event>
 5    0  0.5590591E-005  0.3405852E+03  0.7546771E-02  0.1066547E+00
         21   -1    0    0  502  501  0.00000000000E+00  0.00000000000E+00  0.19034874120E+03  0.19034874120E+03  0.00000000000E+00 0. -1.
         21   -1    0    0  501  502 -0.00000000000E+00 -0.00000000000E+00 -0.60939857894E+03  0.60939857894E+03  0.00000000000E+00 0. -1.
         25    1    1    2    0    0 -0.35338700897E+02 -0.35363043570E+02  0.55360712828E+02  0.14556502724E+03  0.12500000000E+03 0.  0.
         25    1    1    2    0    0  0.18609459340E+01  0.67375735729E+02 -0.49883558433E+03  0.51865681628E+03  0.12500000000E+03 0.  0.
         25    1    1    2    0    0  0.33477754963E+02 -0.32012692159E+02  0.24425033767E+02  0.13552547661E+03  0.12500000000E+03 0.  0.
</event>
<event>
 5    0  0.5590591E-005  0.4498855E+03  0.7546771E-02  0.1027756E+00
         21   -1    0    0  502  501  0.00000000000E+00  0.00000000000E+00  0.79699391688E+03  0.79699391688E+03  0.00000000000E+00 0.  1.
         21   -1    0    0  501  502 -0.00000000000E+00 -0.00000000000E+00 -0.25395045419E+03  0.25395045419E+03  0.00000000000E+00 0.  1.
         25    1    1    2    0    0  0.83807412376E+02 -0.12030513029E+03  0.34582296029E+03  0.39587311933E+03  0.12500000000E+03 0.  0.
         25    1    1    2    0    0 -0.17461224654E+03  0.12806484116E+03 -0.13821038448E+03  0.28568715505E+03  0.12500000000E+03 0.  0.
         25    1    1    2    0    0  0.90804834166E+02 -0.77597108707E+01  0.33543088687E+03  0.36938409669E+03  0.12500000000E+03 0.  0.
</event>
<event>
 5    0  0.5590591E-005  0.4217006E+03  0.7546771E-02  0.1036514E+00
         21   -1    0    0  502  501  0.00000000000E+00  0.00000000000E+00  0.69685353184E+03  0.69685353184E+03  0.00000000000E+00 0. -1.
         21   -1    0    0  501  502 -0.00000000000E+00 -0.00000000000E+00 -0.25519188855E+03  0.25519188855E+03  0.00000000000E+00 0. -1.
         25    1    1    2    0    0 -0.21375591066E+03  0.56987349643E+02  0.11893444326E+03  0.28055222180E+03  0.12500000000E+03 0.  0.
         25    1    1    2    0    0  0.28599572779E+03  0.13989793714E+03  0.15657063226E+03  0.37617064215E+03  0.12500000000E+03 0.  0.
         25    1    1    2    0    0 -0.72239817124E+02 -0.19688528679E+03  0.16615656776E+03  0.29532255644E+03  0.12500000000E+03 0.  0.
</event>
<event>
 5    0  0.5590591E-005  0.3574002E+03  0.7546771E-02  0.1059618E+00
         21   -1    0    0  502  501  0.00000000000E+00  0.00000000000E+00  0.73694473278E+02  0.73694473278E+02  0.00000000000E+00 0. -1.
         21   -1    0    0  501  502 -0.00000000000E+00 -0.00000000000E+00 -0.17333032837E+04  0.17333032837E+04  0.00000000000E+00 0. -1.
         25    1    1    2    0    0 -0.11979082931E+03 -0.11290572947E+03 -0.21868698616E+03  0.30090952868E+03  0.12500000000E+03 0.  0.
         25    1    1    2    0    0 -0.10249608763E+03  0.72251175207E+02 -0.67326981907E+03  0.69616300503E+03  0.12500000000E+03 0.  0.
         25    1    1    2    0    0  0.22228691693E+03  0.40654554260E+02 -0.76765200519E+03  0.80992522327E+03  0.12500000000E+03 0.  0.
</event>
<event>
 5    0  0.5590591E-005  0.3779564E+03  0.7546771E-02  0.1051692E+00
         21   -1    0    0  502  501  0.00000000000E+00  0.00000000000E+00  0.25150025326E+04  0.25150025326E+04  0.00000000000E+00 0. -1.
         21   -1    0    0  501  502 -0.00000000000E+00 -0.00000000000E+00 -0.56799549472E+02  0.56799549472E+02  0.00000000000E+00 0. -1.
         25    1    1    2    0    0 -0.30859039096E+03 -0.35732622042E+01  0.96160037861E+03  0.10176153919E+04  0.12500000000E+03 0.  0.
         25    1    1    2    0    0  0.20966118273E+03 -0.22896582406E+00  0.68817654498E+03  0.73018478554E+03  0.12500000000E+03 0.  0.
         25    1    1    2    0    0  0.98929208231E+02  0.38022280283E+01  0.80842605953E+03  0.82400190468E+03  0.12500000000E+03 0.  0.
</event>
<event>
 5    0  0.5590591E-005  0.2404461E+03  0.7546771E-02  0.1119496E+00
         21   -1    0    0  502  501  0.00000000000E+00  0.00000000000E+00  0.71730559661E+02  0.71730559661E+02  0.00000000000E+00 0. -1.
         21   -1    0    0  501  502 -0.00000000000E+00 -0.00000000000E+00 -0.80599291710E+03  0.80599291710E+03  0.00000000000E+00 0. -1.
         25    1    1    2    0    0  0.56452595500E+02 -0.30639528617E+00 -0.63565832180E+02  0.15117077905E+03  0.12500000000E+03 0.  0.
         25    1    1    2    0    0 -0.54113588193E+02 -0.41809384649E+02 -0.27971045015E+03  0.31390960641E+03  0.12500000000E+03 0.  0.
         25    1    1    2    0    0 -0.23390073070E+01  0.42115779935E+02 -0.39098607510E+03  0.41264309130E+03  0.12500000000E+03 0.  0.
</event>
<event>
 5    0  0.5590591E-005  0.2954712E+03  0.7546771E-02  0.1087527E+00
         21   -1    0    0  502  501  0.00000000000E+00  0.00000000000E+00  0.11535545929E+04  0.11535545929E+04  0.00000000000E+00 0.  1.
         21   -1    0    0  501  502 -0.00000000000E+00 -0.00000000000E+00 -0.75681941913E+02  0.75681941913E+02  0.00000000000E+00 0.  1.
         25    1    1    2    0    0 -0.31968707861E+02 -0.48396346432E+01  0.93654760193E+02  0.15950433992E+03  0.12500000000E+03 0.  0.
         25    1    1    2    0    0  0.33636424782E+02 -0.10736079294E+03  0.17286981484E+03  0.24117778052E+03  0.12500000000E+03 0.  0.
         25    1    1    2    0    0 -0.16677169218E+01  0.11220042758E+03  0.81134807594E+03  0.82855441436E+03  0.12500000000E+03 0.  0.
</event>
<event>
 5    0  0.5590591E-005  0.3622619E+03  0.7546771E-02  0.1057692E+00
         21   -1    0    0  502  501  0.00000000000E+00  0.00000000000E+00  0.65884734587E+02  0.65884734587E+02  0.00000000000E+00 0. -1.
         21   -1    0    0  501  502 -0.00000000000E+00 -0.00000000000E+00 -0.19918674750E+04  0.19918674750E+04  0.00000000000E+00 0. -1.
         25    1    1    2    0    0  0.79460310136E+02 -0.84327105880E+02 -0.40877894479E+03  0.44288850445E+03  0.12500000000E+03 0.  0.
         25    1    1    2    0    0  0.10035810092E+03  0.22505065543E+03 -0.58454064737E+03  0.64655418517E+03  0.12500000000E+03 0.  0.
         25    1    1    2    0    0 -0.17981841106E+03 -0.14072354955E+03 -0.93266314827E+03  0.96830951999E+03  0.12500000000E+03 0.  0.
</event>
<event>
 5    0  0.5590591E-005  0.2457509E+03  0.7546771E-02  0.1116020E+00
         21   -1    0    0  502  501  0.00000000000E+00  0.00000000000E+00  0.32835732312E+03  0.32835732312E+03  0.00000000000E+00 0. -1.
         21   -1    0    0  501  502 -0.00000000000E+00 -0.00000000000E+00 -0.18392617908E+03  0.18392617908E+03  0.00000000000E+00 0. -1.
         25    1    1    2    0    0 -0.68616063302E+02 -0.32684486327E+02 -0.10064128185E+02  0.14663807986E+03  0.12500000000E+03 0.  0.
         25    1    1    2    0    0  0.11326930104E+03 -0.24862841437E+02  0.26650818750E+02  0.17257856640E+03  0.12500000000E+03 0.  0.
         25    1    1    2    0    0 -0.44653237736E+02  0.57547327764E+02  0.12784445348E+03  0.19306685593E+03  0.12500000000E+03 0.  0.
</event>
<event>
 5    0  0.5590591E-005  0.3180016E+03  0.7546771E-02  0.1076573E+00
         21   -1    0    0  502  501  0.00000000000E+00  0.00000000000E+00  0.88310041720E+02  0.88310041720E+02  0.00000000000E+00 0.  1.
         21   -1    0    0  501  502 -0.00000000000E+00 -0.00000000000E+00 -0.11451133566E+04  0.11451133566E+04  0.00000000000E+00 0.  1.
         25    1    1    2    0    0  0.12039798856E+03 -0.15759177033E+02 -0.66933473760E+03  0.69164876799E+03  0.12500000000E+03 0.  0.
         25    1    1    2    0    0 -0.23224162757E+02 -0.47239345029E+02 -0.20498766022E+02  0.13717185157E+03  0.12500000000E+03 0.  0.
         25    1    1    2    0    0 -0.97173825802E+02  0.62998522062E+02 -0.36696981127E+03  0.40460277876E+03  0.12500000000E+03 0.  0.
</event>
<event>
 5    0  0.5590591E-005  0.4022334E+03  0.7546771E-02  0.1043009E+00
         21   -1    0    0  502  501  0.00000000000E+00  0.00000000000E+00  0.92706694447E+02  0.92706694447E+02  0.00000000000E+00 0. -1.
         21   -1    0    0  501  502 -0.00000000000E+00 -0.00000000000E+00 -0.17451996332E+04  0.17451996332E+04  0.00000000000E+00 0. -1.
         25    1    1    2    0    0 -0.24387471757E+03 -0.18362590331E+03 -0.59182393700E+03  0.67754994107E+03  0.12500000000E+03 0.  0.
         25    1    1    2    0    0 -0.12376229903E+02  0.10461166594E+03 -0.50549170119E+03  0.53126606488E+03  0.12500000000E+03 0.  0.
         25    1    1    2    0    0  0.25625094748E+03  0.79014237369E+02 -0.55517730052E+03  0.62909032165E+03  0.12500000000E+03 0.  0.
</event>
<event>
 5    0  0.5590591E-005  0.3251780E+03  0.7546771E-02  0.1073291E+00
         21   -1    0    0  502  501  0.00000000000E+00  0.00000000000E+00  0.19804760494E+04  0.19804760494E+04  0.00000000000E+00 0. -1.
         21   -1    0    0  501  502 -0.00000000000E+00 -0.00000000000E+00 -0.53391583574E+02  0.53391583574E+02  0.00000000000E+00 0. -1.
         25    1    1    2    0    0  0.23048632214E+03  0.59930550899E+01  0.61710746913E+03  0.67052702395E+03  0.12500000000E+03 0.  0.
         25    1    1    2    0    0 -0.12378811165E+03  0.46867181531E+02  0.43613314348E+03  0.47260675845E+03  0.12500000000E+03 0.  0.
         25    1    1    2    0    0 -0.10669821049E+03 -0.52860236620E+02  0.87384385325E+03  0.89073385059E+03  0.12500000000E+03 0.  0.
</event>
<event>
 5    0  0.5590591E-005  0.3801702E+03  0.7546771E-02  0.1050871E+00
         21   -1    0    0  502  501  0.00000000000E+00  0.00000000000E+00  0.10743360599E+04  0.10743360599E+04  0.00000000000E+00 0. -1.
         21   -1    0    0  501  502 -0.00000000000E+00 -0.00000000000E+00 -0.13452905380E+03  0.13452905380E+03  0.00000000000E+00 0. -1.
         25    1    1    2    0    0 -0.12403190833E+03 -0.13938539884E+03  0.11968612661E+03  0.25448373739E+03  0.12500000000E+03 0.  0.
         25    1    1    2    0    0 -0.12160963910E+03 -0.95229107348E+01  0.28130158584E+03  0.33111202386E+03  0.12500000000E+03 0.  0.
         25    1    1    2    0    0  0.24564154743E+03  0.14890830958E+03  0.53881929361E+03  0.62326935241E+03  0.12500000000E+03 0.  0.
</event>
<event>
 5    0  0.5590591E-005  0.3117457E+03  0.7546771E-02  0.1079512E+00
         21   -1    0    0  502  501  0.00000000000E+00  0.00000000000E+00  0.17733582396E+04  0.17733582396E+04  0.00000000000E+00 0.  1.
         21   -1    0    0  501  502 -0.00000000000E+00 -0.00000000000E+00 -0.54803003323E+02  0.54803003323E+02  0.00000000000E+00 0.  1.
         25    1    1    2    0    0  0.14645676500E+03 -0.12105042951E+02  0.42794569685E+03  0.46942372706E+03  0.12500000000E+03 0.  0.
         25    1    1    2    0    0 -0.35785464784E+02  0.14634824311E+03  0.44033737360E+03  0.48189252986E+03  0.12500000000E+03 0.  0.
         25    1    1    2    0    0 -0.11067130022E+03 -0.13424320016E+03  0.85027216587E+03  0.87684498603E+03  0.12500000000E+03 0.  0.
</event>
<event>
 5    0  0.5590591E-005  0.3165272E+03  0.7546771E-02  0.1077259E+00
         21   -1    0    0  502  501  0.00000000000E+00  0.00000000000E+00  0.12567028867E+03  0.12567028867E+03  0.00000000000E+00 0. -1.
         21   -1    0    0  501  502 -0.00000000000E+00 -0.00000000000E+00 -0.79724063988E+03  0.79724063988E+03  0.00000000000E+00 0. -1.
         25    1    1    2    0    0 -0.93787987447E+02  0.18671163394E+03 -0.18781067368E+03  0.30749840648E+03  0.12500000000E+03 0.  0.
         25    1    1    2    0    0  0.91358157011E+02 -0.17997134981E+03 -0.22100592611E+03  0.32435261519E+03  0.12500000000E+03 0.  0.
         25    1    1    2    0    0  0.24298304365E+01 -0.67402841318E+01 -0.26275375142E+03  0.29105990688E+03  0.12500000000E+03 0.  0.
</event>
<event>
 5    0  0.5590591E-005  0.2810537E+03  0.7546771E-02  0.1095115E+00
         21   -1    0    0  502  501  0.00000000000E+00  0.00000000000E+00  0.27199723984E+03  0.27199723984E+03  0.00000000000E+00 0. -1.
         21   -1    0    0  501  502 -0.00000000000E+00 -0.00000000000E+00 -0.29041169642E+03  0.29041169642E+03  0.00000000000E+00 0. -1.
         25    1    1    2    0    0  0.77185795970E+02 -0.98580614229E+02 -0.12315544989E+03  0.21556449021E+03  0.12500000000E+03 0.  0.
         25    1    1    2    0    0  0.37234444675E+02  0.34058485060E+01  0.10643498294E+02  0.13090564438E+03  0.12500000000E+03 0.  0.
         25    1    1    2    0    0 -0.11442024064E+03  0.95174765723E+02  0.94097495022E+02  0.21593880168E+03  0.12500000000E+03 0.  0.
</event>
<event>
 5    0  0.5590591E-005  0.2313988E+03  0.7546771E-02  0.1125659E+00
         21   -1    0    0  502  501  0.00000000000E+00  0.00000000000E+00  0.10977431850E+03  0.10977431850E+03  0.00000000000E+00 0. -1.
         21   -1    0    0  501  502 -0.00000000000E+00 -0.00000000000E+00 -0.48777724612E+03  0.48777724612E+03  0.00000000000E+00 0. -1.
         25    1    1    2    0    0 -0.84197775367E+01 -0.90905793790E+02 -0.95765387552E+02  0.18201858546E+03  0.12500000000E+03 0.  0.
         25    1    1    2    0    0 -0.50988387110E+02  0.51073222052E+02 -0.20891023885E+03  0.25392277867E+03  0.12500000000E+03 0.  0.
         25    1    1    2    0    0  0.59408164646E+02  0.39832571738E+02 -0.73327301222E+02  0.16161020049E+03  0.12500000000E+03 0.  0.
</event>
<event>
 5    0  0.5590591E-005  0.4941064E+03  0.7546771E-02  0.1015329E+00
         21   -1    0    0  502  501  0.00000000000E+00  0.00000000000E+00  0.85393853220E+03  0.85393853220E+03  0.00000000000E+00 0.  1.
         21   -1    0    0  501  502 -0.00000000000E+00 -0.00000000000E+00 -0.28590008923E+03  0.28590008923E+03  0.00000000000E+00 0.  1.
         25    1    1    2    0    0 -0.22268349972E+03  0.66316717647E+02  0.18679368848E+03  0.32326882025E+03  0.12500000000E+03 0.  0.
         25    1    1    2    0    0  0.27904153953E+03 -0.12525787196E+02 -0.93114472585E+02  0.31986931884E+03  0.12500000000E+03 0.  0.
         25    1    1    2    0    0 -0.56358039806E+02 -0.53790930450E+02  0.47435922708E+03  0.49670048235E+03  0.12500000000E+03 0.  0.
</event>
<event>
 5    0  0.5590591E-005  0.2920349E+03  0.7546771E-02  0.1089291E+00
         21   -1    0    0  502  501  0.00000000000E+00  0.00000000000E+00  0.94684571609E+02  0.94684571609E+02  0.00000000000E+00 0. -1.
         21   -1    0    0  501  502 -0.00000000000E+00 -0.00000000000E+00 -0.90072110209E+03  0.90072110209E+03  0.00000000000E+00 0. -1.
         25    1    1    2    0    0  0.25446746695E+02 -0.31899038330E+02 -0.10250459441E+03  0.16672515538E+03  0.12500000000E+03 0.  0.
         25    1    1    2    0    0  0.15101625967E+02 -0.12234503335E+03 -0.54144294008E+03  0.56919401232E+03  0.12500000000E+03 0.  0.
         25    1    1    2    0    0 -0.40548372662E+02  0.15424407168E+03 -0.16208899599E+03  0.25948650599E+03  0.12500000000E+03 0.  0.
</event>
<event>
 5    0  0.5590591E-005  0.4093742E+03  0.7546771E-02  0.1040581E+00
         21   -1    0    0  502  501  0.00000000000E+00  0.00000000000E+00  0.45019392840E+03  0.45019392840E+03  0.00000000000E+00 0.  1.
         21   -1    0    0  501  502 -0.00000000000E+00 -0.00000000000E+00 -0.37225562302E+03  0.37225562302E+03  0.00000000000E+00 0.  1.
         25    1    1    2    0    0  0.11816682430E+03 -0.16949456858E+03  0.25689803074E+03  0.35258106209E+03  0.12500000000E+03 0.  0.
         25    1    1    2    0    0  0.63385602971E+02 -0.11612671208E+02 -0.16570131080E+02  0.14160564269E+03  0.12500000000E+03 0.  0.
         25    1    1    2    0    0 -0.18155242727E+03  0.18110723979E+03 -0.16238959428E+03  0.32826284664E+03  0.12500000000E+03 0.  0.
</event>
<event>
 5    0  0.5590591E-005  0.4062882E+03  0.7546771E-02  0.1041624E+00
         21   -1    0    0  502  501  0.00000000000E+00  0.00000000000E+00  0.45841153519E+03  0.45841153519E+03  0.00000000000E+00 0. -1.
         21   -1    0    0  501  502 -0.00000000000E+00 -0.00000000000E+00 -0.36009157255E+03  0.36009157255E+03  0.00000000000E+00 0. -1.
         25    1    1    2    0    0 -0.86648743162E+02 -0.17792461902E+03 -0.11196027057E+03  0.25947114855E+03  0.12500000000E+03 0.  0.
         25    1    1    2    0    0 -0.73454153923E+02 -0.70899217310E+02 -0.21663108849E+02  0.16283888365E+03  0.12500000000E+03 0.  0.
         25    1    1    2    0    0  0.16010289708E+03  0.24882383633E+03  0.23194334205E+03  0.39619307554E+03  0.12500000000E+03 0.  0.
</event>
<event>
 5    0  0.5590591E-005  0.2759061E+03  0.7546771E-02  0.1097946E+00
         21   -1    0    0  502  501  0.00000000000E+00  0.00000000000E+00  0.39809508782E+03  0.39809508782E+03  0.00000000000E+00 0.  1.
         21   -1    0    0  501  502 -0.00000000000E+00 -0.00000000000E+00 -0.19122106056E+03  0.19122106056E+03  0.00000000000E+00 0.  1.
         25    1    1    2    0    0  0.83260917532E+02  0.72644576274E+02 -0.24070647498E+02  0.16856456010E+03  0.12500000000E+03 0.  0.
         25    1    1    2    0    0 -0.58271873730E+02 -0.14830534807E+03  0.11800504609E+03  0.23439342661E+03  0.12500000000E+03 0.  0.
         25    1    1    2    0    0 -0.24989043802E+02  0.75660771793E+02  0.11293962867E+03  0.18635816168E+03  0.12500000000E+03 0.  0.
</event>
<event>
 5    0  0.5590591E-005  0.3042329E+03  0.7546771E-02  0.1083144E+00
         21   -1    0    0  502  501  0.00000000000E+00  0.00000000000E+00  0.39195374460E+03  0.39195374460E+03  0.00000000000E+00 0. -1.
         21   -1    0    0  501  502 -0.00000000000E+00 -0.00000000000E+00 -0.23614426953E+03  0.23614426953E+03  0.00000000000E+00 0. -1.
         25    1    1    2    0    0 -0.34614579699E+02  0.35176523136E+02 -0.46569356040E+02  0.14222960954E+03  0.12500000000E+03 0.  0.
         25    1    1    2    0    0  0.13008061514E+03 -0.15248135477E+03  0.60805885566E+02  0.24391368495E+03  0.12500000000E+03 0.  0.
         25    1    1    2    0    0 -0.95466035442E+02  0.11730483164E+03  0.14157294554E+03  0.24195471964E+03  0.12500000000E+03 0.  0.
</event>
<event>
 5    0  0.5590591E-005  0.2480455E+03  0.7546771E-02  0.1114546E+00
         21   -1    0    0  502  501  0.00000000000E+00  0.00000000000E+00  0.35178670071E+02  0.35178670071E+02  0.00000000000E+00 0. -1.
         21   -1    0    0  501  502 -0.00000000000E+00 -0.00000000000E+00 -0.17489741361E+04  0.17489741361E+04  0.00000000000E+00 0. -1.
         25    1    1    2    0    0  0.13998959591E+03 -0.22948457757E+02 -0.82688700044E+03  0.84822805316E+03  0.12500000000E+03 0.  0.
         25    1    1    2    0    0 -0.41933741374E+02 -0.22232655681E+02 -0.38975066775E+03  0.41204770677E+03  0.12500000000E+03 0.  0.
         25    1    1    2    0    0 -0.98055854535E+02  0.45181113439E+02 -0.49715779783E+03  0.52387704622E+03  0.12500000000E+03 0.  0.
</event>
<event>
 5    0  0.5590591E-005  0.5227225E+03  0.7546771E-02  0.1008012E+00
         21   -1    0    0  502  501  0.00000000000E+00  0.00000000000E+00  0.32701458747E+03  0.32701458747E+03  0.00000000000E+00 0. -1.
         21   -1    0    0  501  502 -0.00000000000E+00 -0.00000000000E+00 -0.83555531343E+03  0.83555531343E+03  0.00000000000E+00 0. -1.
         25    1    1    2    0    0  0.11260032500E+03  0.71576397271E+01 -0.35689342407E+03  0.39462384766E+03  0.12500000000E+03 0.  0.
         25    1    1    2    0    0  0.10818260357E+02  0.33064944256E+03 -0.15752569813E+03  0.38715040254E+03  0.12500000000E+03 0.  0.
         25    1    1    2    0    0 -0.12341858535E+03 -0.33780708228E+03  0.58783962397E+01  0.38079565070E+03  0.12500000000E+03 0.  0.
</event>
<event>
 5    0  0.5590591E-005  0.2659003E+03  0.7546771E-02  0.1103649E+00
         21   -1    0    0  502  501  0.00000000000E+00  0.00000000000E+00  0.24222976737E+03  0.24222976737E+03  0.00000000000E+00 0.  1.
         21   -1    0    0  501  502 -0.00000000000E+00 -0.00000000000E+00 -0.29188379963E+03  0.29188379963E+03  0.00000000000E+00 0.  1.
         25    1    1    2    0    0  0.10355529059E+03  0.13001615093E+03 -0.29816706390E+02  0.21009981840E+03  0.12500000000E+03 0.  0.
         25    1    1    2    0    0 -0.59068376762E+02 -0.20867548175E+02 -0.52087136406E+02  0.14920655977E+03  0.12500000000E+03 0.  0.
         25    1    1    2    0    0 -0.44486913824E+02 -0.10914860275E+03  0.32249810537E+02  0.17480718882E+03  0.12500000000E+03 0.  0.
</event>
<event>
 5    0  0.5590591E-005  0.3923382E+03  0.7546771E-02  0.1046465E+00
         21   -1    0    0  502  501  0.00000000000E+00  0.00000000000E+00  0.22927830872E+03  0.22927830872E+03  0.00000000000E+00 0.  1.
         21   -1    0    0  501  502 -0.00000000000E+00 -0.00000000000E+00 -0.67136432211E+03  0.67136432211E+03  0.00000000000E+00 0.  1.
         25    1    1    2    0    0 -0.23464221470E+02  0.28391001596E+02  0.13668224249E+03  0.18884823026E+03  0.12500000000E+03 0.  0.
         25    1    1    2    0    0 -0.77144298337E+02  0.96598214872E+02 -0.12863099048E+03  0.21783798933E+03  0.12500000000E+03 0.  0.
         25    1    1    2    0    0  0.10060851981E+03 -0.12498921647E+03 -0.45013726541E+03  0.49395641124E+03  0.12500000000E+03 0.  0.
</event>
<event>
 5    0  0.5590591E-005  0.3032255E+03  0.7546771E-02  0.1083639E+00
         21   -1    0    0  502  501  0.00000000000E+00  0.00000000000E+00  0.13402214364E+04  0.13402214364E+04  0.00000000000E+00 0. -1.
         21   -1    0    0  501  502 -0.00000000000E+00 -0.00000000000E+00 -0.68604845485E+02  0.68604845485E+02  0.00000000000E+00 0. -1.
         25    1    1    2    0    0 -0.77673681761E+02 -0.10053870091E+03  0.21815392544E+03  0.28170439543E+03  0.12500000000E+03 0.  0.
         25    1    1    2    0    0  0.10748214760E+03  0.10682943787E+03  0.92381476557E+03  0.94447004289E+03  0.12500000000E+03 0.  0.
         25    1    1    2    0    0 -0.29808465837E+02 -0.62907369518E+01  0.12964789992E+03  0.18265184357E+03  0.12500000000E+03 0.  0.
</event>
<event>
 5    0  0.5590591E-005  0.2985572E+03  0.7546771E-02  0.1085964E+00
         21   -1    0    0  502  501  0.00000000000E+00  0.00000000000E+00  0.95287165002E+03  0.95287165002E+03  0.00000000000E+00 0. -1.
         21   -1    0    0  501  502 -0.00000000000E+00 -0.00000000000E+00 -0.93545053609E+02  0.93545053609E+02  0.00000000000E+00 0. -1.
         25    1    1    2    0    0 -0.15721533453E+03  0.14637250402E+02  0.22872186233E+03  0.30474514076E+03  0.12500000000E+03 0.  0.
         25    1    1    2    0    0  0.75877585639E+02  0.16661471551E+02  0.74282634086E+02  0.16485727877E+03  0.12500000000E+03 0.  0.
         25    1    1    2    0    0  0.81337748896E+02 -0.31298721952E+02  0.55632210000E+03  0.57681428410E+03  0.12500000000E+03 0.  0.
</event>
<event>
 5    0  0.5590591E-005  0.2519446E+03  0.7546771E-02  0.1112082E+00
         21   -1    0    0  502  501  0.00000000000E+00  0.00000000000E+00  0.23199151932E+04  0.23199151932E+04  0.00000000000E+00 0.  1.
         21   -1    0    0  501  502 -0.00000000000E+00 -0.00000000000E+00 -0.27361374921E+02  0.27361374921E+02  0.00000000000E+00 0.  1.
         25    1    1    2    0    0  0.83476776643E+02  0.65124860786E+02  0.50585756697E+03  0.53172031914E+03  0.12500000000E+03 0.  0.
         25    1    1    2    0    0 -0.43405287709E+02 -0.10169587185E+03  0.66532726451E+03  0.68593836331E+03  0.12500000000E+03 0.  0.
         25    1    1    2    0    0 -0.40071488935E+02  0.36571011063E+02  0.11213689868E+04  0.11296178857E+04  0.12500000000E+03 0.  0.
</event>
<event>
 5    0  0.5590591E-005  0.2369395E+03  0.7546771E-02  0.1121849E+00
         21   -1    0    0  502  501  0.00000000000E+00  0.00000000000E+00  0.66428519101E+03  0.66428519101E+03  0.00000000000E+00 0. -1.
         21   -1    0    0  501  502 -0.00000000000E+00 -0.00000000000E+00 -0.84512409397E+02  0.84512409397E+02  0.00000000000E+00 0. -1.
         25    1    1    2    0    0 -0.21503681467E+02  0.12012805648E+03  0.22589928435E+03  0.28556723366E+03  0.12500000000E+03 0.  0.
         25    1    1    2    0    0  0.12492399684E+02 -0.10496522899E+03  0.14253660696E+03  0.21706092156E+03  0.12500000000E+03 0.  0.
         25    1    1    2    0    0  0.90112817826E+01 -0.15162827493E+02  0.21133689031E+03  0.24616944518E+03  0.12500000000E+03 0.  0.
</event>
<event>
 5    0  0.5590591E-005  0.3305415E+03  0.7546771E-02  0.1070898E+00
         21   -1    0    0  502  501  0.00000000000E+00  0.00000000000E+00  0.94493937546E+03  0.94493937546E+03  0.00000000000E+00 0.  1.
         21   -1    0    0  501  502 -0.00000000000E+00 -0.00000000000E+00 -0.11562402705E+03  0.11562402705E+03  0.00000000000E+00 0.  1.
         25    1    1    2    0    0  0.30651159959E+02  0.18409544367E+03  0.22714294585E+03  0.31945194292E+03  0.12500000000E+03 0.  0.
         25    1    1    2    0    0  0.63613513104E+02 -0.22878528144E+03  0.35204229254E+03  0.44266032100E+03  0.12500000000E+03 0.  0.
         25    1    1    2    0    0 -0.94264673063E+02  0.44689837763E+02  0.25013011002E+03  0.29845113859E+03  0.12500000000E+03 0.  0.
</event>
<event>
 5    0  0.5590591E-005  0.2734304E+03  0.7546771E-02  0.1099332E+00
         21   -1    0    0  502  501  0.00000000000E+00  0.00000000000E+00  0.36905065340E+03  0.36905065340E+03  0.00000000000E+00 0. -1.
         21   -1    0    0  501  502 -0.00000000000E+00 -0.00000000000E+00 -0.20258519138E+03  0.20258519138E+03  0.00000000000E+00 0. -1.
         25    1    1    2    0    0  0.11929396548E+03  0.52704420036E+02 -0.47964341164E+02  0.18690742124E+03  0.12500000000E+03 0.  0.
         25    1    1    2    0    0 -0.74316021120E+02 -0.68282197637E+02  0.41172767235E+02  0.16584790101E+03  0.12500000000E+03 0.  0.
         25    1    1    2    0    0 -0.44977944365E+02  0.15577777601E+02  0.17325703595E+03  0.21888052252E+03  0.12500000000E+03 0.  0.
</event>
<event>
 5    0  0.5590591E-005  0.3859874E+03  0.7546771E-02  0.1048743E+00
         21   -1    0    0  502  501  0.00000000000E+00  0.00000000000E+00  0.47364522768E+03  0.47364522768E+03  0.00000000000E+00 0. -1.
         21   -1    0    0  501  502 -0.00000000000E+00 -0.00000000000E+00 -0.31455247835E+03  0.31455247835E+03  0.00000000000E+00 0. -1.
         25    1    1    2    0    0 -0.19965731145E+01 -0.56672725073E+02 -0.11692088347E+03  0.18030883800E+03  0.12500000000E+03 0.  0.
         25    1    1    2    0    0  0.45631499310E+02 -0.12974191336E+03 -0.65368119890E+02  0.19701063147E+03  0.12500000000E+03 0.  0.
         25    1    1    2    0    0 -0.43634926195E+02  0.18641463844E+03  0.34138175269E+03  0.41087823656E+03  0.12500000000E+03 0.  0.
</event>
<event>
 5    0  0.5590591E-005  0.3639734E+03  0.7546771E-02  0.1057022E+00
         21   -1    0    0  502  501  0.00000000000E+00  0.00000000000E+00  0.51385063890E+03  0.51385063890E+03  0.00000000000E+00 0. -1.
         21   -1    0    0  501  502 -0.00000000000E+00 -0.00000000000E+00 -0.25781154606E+03  0.25781154606E+03  0.00000000000E+00 0. -1.
         25    1    1    2    0    0 -0.15420772652E+03 -0.13888394070E+03  0.17352745841E+03  0.29800260187E+03  0.12500000000E+03 0.  0.
         25    1    1    2    0    0  0.75301040107E+01  0.73736132015E+02 -0.11861895396E+03  0.18758778177E+03  0.12500000000E+03 0.  0.
         25    1    1    2    0    0  0.14667762251E+03  0.65147808682E+02  0.20113058839E+03  0.28607180132E+03  0.12500000000E+03 0.  0.
</event>
<event>
 5    0  0.5590591E-005  0.2711926E+03  0.7546771E-02  0.1100599E+00
         21   -1    0    0  502  501  0.00000000000E+00  0.00000000000E+00  0.26652775112E+03  0.26652775112E+03  0.00000000000E+00 0.  1.
         21   -1    0    0  501  502 -0.00000000000E+00 -0.00000000000E+00 -0.27593913166E+03  0.27593913166E+03  0.00000000000E+00 0.  1.
         25    1    1    2    0    0 -0.90215985907E+02 -0.76636527002E+02 -0.11400063048E+03  0.20647814687E+03  0.12500000000E+03 0.  0.
         25    1    1    2    0    0 -0.15977245941E+02  0.27091066013E+02  0.10242620571E+03  0.16463695169E+03  0.12500000000E+03 0.  0.
         25    1    1    2    0    0  0.10619323185E+03  0.49545460989E+02  0.21630442289E+01  0.17135178422E+03  0.12500000000E+03 0.  0.
</event>
<event>
 5    0  0.5904067E-005  0.3908670E+03  0.7546771E-02  0.1046989E+00
         21   -1    0    0  502  501  0.00000000000E+00  0.00000000000E+00  0.54010323615E+03  0.54010323615E+03  0.00000000000E+00 0. -1.
         21   -1    0    0  501  502 -0.00000000000E+00 -0.00000000000E+00 -0.28286631225E+03  0.28286631225E+03  0.00000000000E+00 0. -1.
         25    1    1    2    0    0  0.92899898778E+01 -0.14472235761E+03  0.25692261658E+03  0.32041394416E+03  0.12500000000E+03 0.  0.
         25    1    1    2    0    0 -0.16048988784E+03  0.20355964454E+03 -0.48914893974E+02  0.29190957476E+03  0.12500000000E+03 0.  0.
         25    1    1    2    0    0  0.15119989796E+03 -0.58837286934E+02  0.49229201297E+02  0.21064602948E+03  0.12500000000E+03 0.  0.
</event>
<event>
 5    0  0.5590591E-005  0.2747325E+03  0.7546771E-02  0.1098601E+00
         21   -1    0    0  502  501  0.00000000000E+00  0.00000000000E+00  0.12879752412E+04  0.12879752412E+04  0.00000000000E+00 0.  1.
         21   -1    0    0  501  502 -0.00000000000E+00 -0.00000000000E+00 -0.58602020979E+02  0.58602020979E+02  0.00000000000E+00 0.  1.
         25    1    1    2    0    0  0.66121404646E+02  0.40889220451E+02  0.52949754773E+03  0.54957858542E+03  0.12500000000E+03 0.  0.
         25    1    1    2    0    0 -0.20330550595E+02 -0.15404450833E+03  0.29552078520E+03  0.35651167768E+03  0.12500000000E+03 0.  0.
         25    1    1    2    0    0 -0.45790854051E+02  0.11315528787E+03  0.40435488731E+03  0.44048699911E+03  0.12500000000E+03 0.  0.
</event>
<event>
 5    0  0.5590591E-005  0.3400245E+03  0.7546771E-02  0.1066785E+00
         21   -1    0    0  502  501  0.00000000000E+00  0.00000000000E+00  0.24395447795E+03  0.24395447795E+03  0.00000000000E+00 0.  1.
         21   -1    0    0  501  502 -0.00000000000E+00 -0.00000000000E+00 -0.47392714917E+03  0.47392714917E+03  0.00000000000E+00 0.  1.
         25    1    1    2    0    0  0.84700837143E+02  0.19614412877E+03 -0.90725736983E+02  0.26363404639E+03  0.12500000000E+03 0.  0.
         25    1    1    2    0    0 -0.15697913929E+03 -0.32641221139E+02 -0.16558572887E+02  0.20397815036E+03  0.12500000000E+03 0.  0.
         25    1    1    2    0    0  0.72278302142E+02 -0.16350290763E+03 -0.12268836135E+03  0.25026943036E+03  0.12500000000E+03 0.  0.
</event>
<event>
 5    0  0.5590591E-005  0.2680344E+03  0.7546771E-02  0.1102410E+00
         21   -1    0    0  502  501  0.00000000000E+00  0.00000000000E+00  0.14794268414E+03  0.14794268414E+03  0.00000000000E+00 0.  1.
         21   -1    0    0  501  502 -0.00000000000E+00 -0.00000000000E+00 -0.48560998027E+03  0.48560998027E+03  0.00000000000E+00 0.  1.
         25    1    1    2    0    0  0.25710903982E+02 -0.32392521976E+02 -0.60173379912E+01  0.13180111692E+03  0.12500000000E+03 0.  0.
         25    1    1    2    0    0 -0.11017779578E+02 -0.23789651665E+02  0.15102928720E+02  0.12860963202E+03  0.12500000000E+03 0.  0.
         25    1    1    2    0    0 -0.14693124404E+02  0.56182173641E+02 -0.34675288686E+03  0.37314191548E+03  0.12500000000E+03 0.  0.
</event>
<event>
 5    0  0.5590591E-005  0.2645682E+03  0.7546771E-02  0.1104429E+00
         21   -1    0    0  502  501  0.00000000000E+00  0.00000000000E+00  0.57389327495E+03  0.57389327495E+03  0.00000000000E+00 0.  1.
         21   -1    0    0  501  502 -0.00000000000E+00 -0.00000000000E+00 -0.12196752945E+03  0.12196752945E+03  0.00000000000E+00 0.  1.
         25    1    1    2    0    0 -0.49197010948E+02 -0.91342152483E+02  0.28594849463E+03  0.32886969500E+03  0.12500000000E+03 0.  0.
         25    1    1    2    0    0  0.57854541394E+02  0.24352501655E+02  0.17569644788E+03  0.22457612093E+03  0.12500000000E+03 0.  0.
         25    1    1    2    0    0 -0.86575304458E+01  0.66989650828E+02 -0.97191970114E+01  0.14241498847E+03  0.12500000000E+03 0.  0.
</event>
<event>
 5    0  0.5590591E-005  0.4653851E+03  0.7546771E-02  0.1023231E+00
         21   -1    0    0  502  501  0.00000000000E+00  0.00000000000E+00  0.61732050389E+03  0.61732050389E+03  0.00000000000E+00 0. -1.
         21   -1    0    0  501  502 -0.00000000000E+00 -0.00000000000E+00 -0.35084419371E+03  0.35084419371E+03  0.00000000000E+00 0. -1.
         25    1    1    2    0    0 -0.21104406903E+03  0.17430199095E+03 -0.13818405722E+03  0.33112024522E+03  0.12500000000E+03 0.  0.
         25    1    1    2    0    0  0.29593744227E+02 -0.17022946736E+03  0.49275117134E+02  0.21887644557E+03  0.12500000000E+03 0.  0.
         25    1    1    2    0    0  0.18145032481E+03 -0.40725235842E+01  0.35538525027E+03  0.41816800682E+03  0.12500000000E+03 0.  0.
</event>
<event>
 5    0  0.5590591E-005  0.2468512E+03  0.7546771E-02  0.1115311E+00
         21   -1    0    0  502  501  0.00000000000E+00  0.00000000000E+00  0.36011050331E+03  0.36011050331E+03  0.00000000000E+00 0.  1.
         21   -1    0    0  501  502 -0.00000000000E+00 -0.00000000000E+00 -0.16921339665E+03  0.16921339665E+03  0.00000000000E+00 0.  1.
         25    1    1    2    0    0  0.59861152721E+02 -0.17959460976E+02  0.72099904166E+02  0.15725551190E+03  0.12500000000E+03 0.  0.
         25    1    1    2    0    0 -0.13177275678E+03 -0.25197731169E+02  0.12415219033E+03  0.22144469162E+03  0.12500000000E+03 0.  0.
         25    1    1    2    0    0  0.71911604055E+02  0.43157192145E+02 -0.53549878324E+01  0.15062369643E+03  0.12500000000E+03 0.  0.
</event>
<event>
 5    0  0.5590591E-005  0.3023701E+03  0.7546771E-02  0.1084062E+00
         21   -1    0    0  502  501  0.00000000000E+00  0.00000000000E+00  0.99349160438E+03  0.99349160438E+03  0.00000000000E+00 0.  1.
         21   -1    0    0  501  502 -0.00000000000E+00 -0.00000000000E+00 -0.92026608463E+02  0.92026608463E+02  0.00000000000E+00 0.  1.
         25    1    1    2    0    0  0.30522190646E+02 -0.10546725131E+03  0.30143561299E+03  0.34430128376E+03  0.12500000000E+03 0.  0.
         25    1    1    2    0    0 -0.10968425454E+03 -0.90574182413E+02  0.27207814486E+03  0.33149032433E+03  0.12500000000E+03 0.  0.
         25    1    1    2    0    0  0.79162063889E+02  0.19604143372E+03  0.32795123806E+03  0.40972660475E+03  0.12500000000E+03 0.  0.
</event>
<event>
 5    0  0.6517405E-005  0.2802073E+03  0.7546771E-02  0.1095576E+00
         21   -1    0    0  502  501  0.00000000000E+00  0.00000000000E+00  0.34097349676E+03  0.34097349676E+03  0.00000000000E+00 0.  1.
         21   -1    0    0  501  502 -0.00000000000E+00 -0.00000000000E+00 -0.23027040403E+03  0.23027040403E+03  0.00000000000E+00 0.  1.
         25    1    1    2    0    0  0.71681802585E+02  0.96957594347E+01  0.13798480298E+03  0.19974257039E+03  0.12500000000E+03 0.  0.
         25    1    1    2    0    0 -0.47594607889E+02  0.11961346768E+03  0.28453878077E+02  0.18167897932E+03  0.12500000000E+03 0.  0.
         25    1    1    2    0    0 -0.24087194696E+02 -0.12930922711E+03 -0.55735588319E+02  0.18982235108E+03  0.12500000000E+03 0.  0.
</event>
<event>
 5    0  0.5590591E-005  0.3374150E+03  0.7546771E-02  0.1067902E+00
         21   -1    0    0  502  501  0.00000000000E+00  0.00000000000E+00  0.49626368001E+03  0.49626368001E+03  0.00000000000E+00 0. -1.
         21   -1    0    0  501  502 -0.00000000000E+00 -0.00000000000E+00 -0.22941207108E+03  0.22941207108E+03  0.00000000000E+00 0. -1.
         25    1    1    2    0    0 -0.10692799843E+03  0.16507734863E+03  0.26495752255E+02  0.23454456457E+03  0.12500000000E+03 0.  0.
         25    1    1    2    0    0  0.19919751025E+03 -0.13107305492E+03  0.15359562809E+03  0.30996195054E+03  0.12500000000E+03 0.  0.
         25    1    1    2    0    0 -0.92269511817E+02 -0.34004293712E+02  0.86760228594E+02  0.18116923599E+03  0.12500000000E+03 0.  0.
</event>
<event>
 5    0  0.5590591E-005  0.2274764E+03  0.7546771E-02  0.1128429E+00
         21   -1    0    0  502  501  0.00000000000E+00  0.00000000000E+00  0.12808801718E+03  0.12808801718E+03  0.00000000000E+00 0. -1.
         21   -1    0    0  501  502 -0.00000000000E+00 -0.00000000000E+00 -0.40398386147E+03  0.40398386147E+03  0.00000000000E+00 0. -1.
         25    1    1    2    0    0  0.75755047963E+02  0.30511274499E+02 -0.19218870539E+03  0.24337473913E+03  0.12500000000E+03 0.  0.
         25    1    1    2    0    0 -0.60760910349E+02 -0.51057590449E+02 -0.34955881752E+02  0.15213704164E+03  0.12500000000E+03 0.  0.
         25    1    1    2    0    0 -0.14994137614E+02  0.20546315949E+02 -0.48751257139E+02  0.13656009789E+03  0.12500000000E+03 0.  0.
</event>
<event>
 5    0  0.5590591E-005  0.2436908E+03  0.7546771E-02  0.1117358E+00
         21   -1    0    0  502  501  0.00000000000E+00  0.00000000000E+00  0.36601737974E+02  0.36601737974E+02  0.00000000000E+00 0. -1.
         21   -1    0    0  501  502 -0.00000000000E+00 -0.00000000000E+00 -0.16224698767E+04  0.16224698767E+04  0.00000000000E+00 0. -1.
         25    1    1    2    0    0 -0.53739372531E+02 -0.28216902089E+02 -0.35174116300E+03  0.37819434088E+03  0.12500000000E+03 0.  0.
         25    1    1    2    0    0  0.63827092243E+02  0.11791931506E+03 -0.55589595876E+03  0.58534107966E+03  0.12500000000E+03 0.  0.
         25    1    1    2    0    0 -0.10087719712E+02 -0.89702412974E+02 -0.67823101698E+03  0.69553619415E+03  0.12500000000E+03 0.  0.
</event>
<event>
 5    0  0.5590591E-005  0.3298279E+03  0.7546771E-02  0.1071213E+00
         21   -1    0    0  502  501  0.00000000000E+00  0.00000000000E+00  0.21866989680E+03  0.21866989680E+03  0.00000000000E+00 0. -1.
         21   -1    0    0  501  502 -0.00000000000E+00 -0.00000000000E+00 -0.49749157178E+03  0.49749157178E+03  0.00000000000E+00 0. -1.
         25    1    1    2    0    0  0.10225051352E+03 -0.78715764334E+02 -0.11496766359E+03  0.21329299740E+03  0.12500000000E+03 0.  0.
         25    1    1    2    0    0 -0.23056654741E+03  0.58075456902E+02 -0.14995605910E+02  0.26904192922E+03  0.12500000000E+03 0.  0.
         25    1    1    2    0    0  0.12831603390E+03  0.20640307432E+02 -0.14885840548E+03  0.23382654197E+03  0.12500000000E+03 0.  0.
</event>
<event>
 5    0  0.5590591E-005  0.3766614E+03  0.7546771E-02  0.1052175E+00
         21   -1    0    0  502  501  0.00000000000E+00  0.00000000000E+00  0.28268149845E+03  0.28268149845E+03  0.00000000000E+00 0.  1.
         21   -1    0    0  501  502 -0.00000000000E+00 -0.00000000000E+00 -0.50188569572E+03  0.50188569572E+03  0.00000000000E+00 0.  1.
         25    1    1    2    0    0 -0.16274895191E+03  0.62502235836E+02  0.78147424090E+02  0.22831068903E+03  0.12500000000E+03 0.  0.
         25    1    1    2    0    0  0.23136879302E+03  0.72013818079E+02 -0.19415181539E+03  0.33471993636E+03  0.12500000000E+03 0.  0.
         25    1    1    2    0    0 -0.68619841109E+02 -0.13451605392E+03 -0.10319980596E+03  0.22153656878E+03  0.12500000000E+03 0.  0.
</event>
<event>
 5    0  0.5590591E-005  0.2870414E+03  0.7546771E-02  0.1091904E+00
         21   -1    0    0  502  501  0.00000000000E+00  0.00000000000E+00  0.70640997773E+03  0.70640997773E+03  0.00000000000E+00 0.  1.
         21   -1    0    0  501  502 -0.00000000000E+00 -0.00000000000E+00 -0.11663592454E+03  0.11663592454E+03  0.00000000000E+00 0.  1.
         25    1    1    2    0    0 -0.42142726234E+02  0.17730803526E+03  0.30511349692E+03  0.37674048726E+03  0.12500000000E+03 0.  0.
         25    1    1    2    0    0 -0.29084748314E+02 -0.73305370435E+02  0.20247318362E+03  0.25067905777E+03  0.12500000000E+03 0.  0.
         25    1    1    2    0    0  0.71227474548E+02 -0.10400266482E+03  0.82187372651E+02  0.19562635723E+03  0.12500000000E+03 0.  0.
</event>
<event>
 5    0  0.5590591E-005  0.2918992E+03  0.7546771E-02  0.1089362E+00
         21   -1    0    0  502  501  0.00000000000E+00  0.00000000000E+00  0.32848583364E+03  0.32848583364E+03  0.00000000000E+00 0. -1.
         21   -1    0    0  501  502 -0.00000000000E+00 -0.00000000000E+00 -0.25938755543E+03  0.25938755543E+03  0.00000000000E+00 0. -1.
         25    1    1    2    0    0  0.96325156705E+02 -0.12740163467E+02  0.13534472727E+03  0.20828836448E+03  0.12500000000E+03 0.  0.
         25    1    1    2    0    0 -0.16237871740E+03  0.16048868072E+02 -0.10791901173E+03  0.23215496359E+03  0.12500000000E+03 0.  0.
         25    1    1    2    0    0  0.66053560691E+02 -0.33087046051E+01  0.41672562662E+02  0.14743006099E+03  0.12500000000E+03 0.  0.
</event>
<event>
 5    0  0.5590591E-005  0.3245951E+03  0.7546771E-02  0.1073554E+00
         21   -1    0    0  502  501  0.00000000000E+00  0.00000000000E+00  0.27508751026E+03  0.27508751026E+03  0.00000000000E+00 0.  1.
         21   -1    0    0  501  502 -0.00000000000E+00 -0.00000000000E+00 -0.38301248845E+03  0.38301248845E+03  0.00000000000E+00 0.  1.
         25    1    1    2    0    0  0.56149667167E+02  0.60951263979E+02  0.29917640441E+02  0.15293105281E+03  0.12500000000E+03 0.  0.
         25    1    1    2    0    0  0.15273829792E+03 -0.66855612338E+02  0.28427299341E+02  0.21031350860E+03  0.12500000000E+03 0.  0.
         25    1    1    2    0    0 -0.20888796508E+03  0.59043483583E+01 -0.16626991798E+03  0.29485543731E+03  0.12500000000E+03 0.  0.
</event>
<event>
 5    0  0.5590591E-005  0.1996344E+03  0.7546771E-02  0.1150048E+00
         21   -1    0    0  502  501  0.00000000000E+00  0.00000000000E+00  0.59871106156E+03  0.59871106156E+03  0.00000000000E+00 0. -1.
         21   -1    0    0  501  502 -0.00000000000E+00 -0.00000000000E+00 -0.66566124083E+02  0.66566124083E+02  0.00000000000E+00 0. -1.
         25    1    1    2    0    0  0.13480330909E+02  0.30133860310E+02  0.10363056069E+03  0.16569267324E+03  0.12500000000E+03 0.  0.
         25    1    1    2    0    0  0.50688905395E+01 -0.69935813671E+01  0.25007763494E+03  0.27971132856E+03  0.12500000000E+03 0.  0.
         25    1    1    2    0    0 -0.18549221449E+02 -0.23140278943E+02  0.17843674186E+03  0.21987318384E+03  0.12500000000E+03 0.  0.
</event>
<event>
 5    0  0.5590591E-005  0.2047430E+03  0.7546771E-02  0.1145798E+00
         21   -1    0    0  502  501  0.00000000000E+00  0.00000000000E+00  0.23665080526E+03  0.23665080526E+03  0.00000000000E+00 0.  1.
         21   -1    0    0  501  502 -0.00000000000E+00 -0.00000000000E+00 -0.17713738921E+03  0.17713738921E+03  0.00000000000E+00 0.  1.
         25    1    1    2    0    0  0.28921677503E+02  0.31841030210E+02  0.19898889703E+02  0.13368350850E+03  0.12500000000E+03 0.  0.
         25    1    1    2    0    0  0.26960777081E+02 -0.86182743459E+01 -0.18622053823E+02  0.12951038199E+03  0.12500000000E+03 0.  0.
         25    1    1    2    0    0 -0.55882454584E+02 -0.23222755864E+02  0.58236580170E+02  0.15059430398E+03  0.12500000000E+03 0.  0.
</event>
<event>
 5    0  0.5590591E-005  0.2214530E+03  0.7546771E-02  0.1132804E+00
         21   -1    0    0  502  501  0.00000000000E+00  0.00000000000E+00  0.81503564632E+03  0.81503564632E+03  0.00000000000E+00 0. -1.
         21   -1    0    0  501  502 -0.00000000000E+00 -0.00000000000E+00 -0.60170902886E+02  0.60170902886E+02  0.00000000000E+00 0. -1.
         25    1    1    2    0    0  0.37502051754E+02  0.48200859452E+02  0.21800523624E+03  0.25861363028E+03  0.12500000000E+03 0.  0.
         25    1    1    2    0    0 -0.93075146371E+02 -0.29113599359E+02  0.34993161257E+03  0.38417146955E+03  0.12500000000E+03 0.  0.
         25    1    1    2    0    0  0.55573094617E+02 -0.19087260093E+02  0.18692789463E+03  0.23242144938E+03  0.12500000000E+03 0.  0.
</event>
<event>
 5    0  0.5590591E-005  0.3223738E+03  0.7546771E-02  0.1074562E+00
         21   -1    0    0  502  501  0.00000000000E+00  0.00000000000E+00  0.95254247008E+03  0.95254247008E+03  0.00000000000E+00 0. -1.
         21   -1    0    0  501  502 -0.00000000000E+00 -0.00000000000E+00 -0.10910262729E+03  0.10910262729E+03  0.00000000000E+00 0. -1.
         25    1    1    2    0    0  0.64355130384E+02 -0.53253477583E+01  0.13837980471E+03  0.19734212040E+03  0.12500000000E+03 0.  0.
         25    1    1    2    0    0  0.58183368608E+02  0.19691697871E+03  0.34124960465E+03  0.41741812798E+03  0.12500000000E+03 0.  0.
         25    1    1    2    0    0 -0.12253849899E+03 -0.19159163095E+03  0.36381043343E+03  0.44688484899E+03  0.12500000000E+03 0.  0.
</event>
<event>
 5    0  0.5590591E-005  0.3185091E+03  0.7546771E-02  0.1076338E+00
         21   -1    0    0  502  501  0.00000000000E+00  0.00000000000E+00  0.12366546782E+03  0.12366546782E+03  0.00000000000E+00 0. -1.
         21   -1    0    0  501  502 -0.00000000000E+00 -0.00000000000E+00 -0.82034249667E+03  0.82034249667E+03  0.00000000000E+00 0. -1.
         25    1    1    2    0    0  0.11118453475E+03 -0.14158006272E+03 -0.53494529990E+03  0.57809894380E+03  0.12500000000E+03 0.  0.
         25    1    1    2    0    0 -0.59876774379E+02  0.57999851493E+02 -0.14033811284E+03  0.20559425284E+03  0.12500000000E+03 0.  0.
         25    1    1    2    0    0 -0.51307760374E+02  0.83580211226E+02 -0.21393616112E+02  0.16031476786E+03  0.12500000000E+03 0.  0.
</event>
<event>
 5    0  0.5590591E-005  0.2961083E+03  0.7546771E-02  0.1087202E+00
         21   -1    0    0  502  501  0.00000000000E+00  0.00000000000E+00  0.20342815441E+04  0.20342815441E+04  0.00000000000E+00 0. -1.
         21   -1    0    0  501  502 -0.00000000000E+00 -0.00000000000E+00 -0.43101286263E+02  0.43101286263E+02  0.00000000000E+00 0. -1.
         25    1    1    2    0    0  0.57971962966E+02 -0.19350213857E+03  0.58517498563E+03  0.63155252349E+03  0.12500000000E+03 0.  0.
         25    1    1    2    0    0 -0.10882054871E+02  0.92334817644E+02  0.47582416903E+03  0.50067731874E+03  0.12500000000E+03 0.  0.
         25    1    1    2    0    0 -0.47089908094E+02  0.10116732093E+03  0.93018110323E+03  0.94515298819E+03  0.12500000000E+03 0.  0.
</event>
<event>
 5    0  0.5590591E-005  0.3365813E+03  0.7546771E-02  0.1068261E+00
         21   -1    0    0  502  501  0.00000000000E+00  0.00000000000E+00  0.96641040693E+03  0.96641040693E+03  0.00000000000E+00 0.  1.
         21   -1    0    0  501  502 -0.00000000000E+00 -0.00000000000E+00 -0.11722451302E+03  0.11722451302E+03  0.00000000000E+00 0.  1.
         25    1    1    2    0    0  0.53216273198E+00  0.32462212821E+02  0.17460569533E+03  0.21717787019E+03  0.12500000000E+03 0.  0.
         25    1    1    2    0    0 -0.21199527641E+03  0.86487465355E+02  0.24731904158E+03  0.35946319313E+03  0.12500000000E+03 0.  0.
         25    1    1    2    0    0  0.21146311368E+03 -0.11894967818E+03  0.42726115699E+03  0.50699385663E+03  0.12500000000E+03 0.  0.
</event>
<event>
 5    0  0.6034356E-005  0.3361611E+03  0.7546771E-02  0.1068443E+00
         21   -1    0    0  502  501  0.00000000000E+00  0.00000000000E+00  0.23874856849E+03  0.23874856849E+03  0.00000000000E+00 0. -1.
         21   -1    0    0  501  502 -0.00000000000E+00 -0.00000000000E+00 -0.47331929453E+03  0.47331929453E+03  0.00000000000E+00 0. -1.
         25    1    1    2    0    0 -0.17945446279E+03  0.68721844228E+02 -0.36439073321E+02  0.23211937048E+03  0.12500000000E+03 0.  0.
         25    1    1    2    0    0 -0.80774134831E+01  0.12567012518E+02 -0.20465494712E+03  0.24027447179E+03  0.12500000000E+03 0.  0.
         25    1    1    2    0    0  0.18753187627E+03 -0.81288856746E+02  0.65232944059E+01  0.23967402074E+03  0.12500000000E+03 0.  0.
</event>
<event>
 5    0  0.5590591E-005  0.5614293E+03  0.7546771E-02  0.9988826E-01
         21   -1    0    0  502  501  0.00000000000E+00  0.00000000000E+00  0.76707490254E+03  0.76707490254E+03  0.00000000000E+00 0.  1.
         21   -1    0    0  501  502 -0.00000000000E+00 -0.00000000000E+00 -0.41091535043E+03  0.41091535043E+03  0.00000000000E+00 0.  1.
         25    1    1    2    0    0  0.31908880385E+03 -0.38997565146E+03  0.86061077163E+02  0.52624156285E+03  0.12500000000E+03 0.  0.
         25    1    1    2    0    0 -0.10123761153E+03  0.25754897758E+03  0.95026512651E+02  0.31817537294E+03  0.12500000000E+03 0.  0.
         25    1    1    2    0    0 -0.21785119232E+03  0.13242667388E+03  0.17507196229E+03  0.33357331717E+03  0.12500000000E+03 0.  0.
</event>
<event>
 5    0  0.5590591E-005  0.4048154E+03  0.7546771E-02  0.1042125E+00
         21   -1    0    0  502  501  0.00000000000E+00  0.00000000000E+00  0.30404728901E+03  0.30404728901E+03  0.00000000000E+00 0.  1.
         21   -1    0    0  501  502 -0.00000000000E+00 -0.00000000000E+00 -0.53898039876E+03  0.53898039876E+03  0.00000000000E+00 0.  1.
         25    1    1    2    0    0  0.12624820954E+03  0.13057227375E+03 -0.34374281898E+03  0.40837709863E+03  0.12500000000E+03 0.  0.
         25    1    1    2    0    0  0.89929114519E+01  0.34630262140E+02 -0.51504659057E+02  0.13984940978E+03  0.12500000000E+03 0.  0.
         25    1    1    2    0    0 -0.13524112099E+03 -0.16520253589E+03  0.16031436828E+03  0.29480117936E+03  0.12500000000E+03 0.  0.
</event>
<event>
 5    0  0.5590591E-005  0.4788414E+03  0.7546771E-02  0.1019454E+00
         21   -1    0    0  502  501  0.00000000000E+00  0.00000000000E+00  0.25827269497E+03  0.25827269497E+03  0.00000000000E+00 0. -1.
         21   -1    0    0  501  502 -0.00000000000E+00 -0.00000000000E+00 -0.88777897789E+03  0.88777897789E+03  0.00000000000E+00 0. -1.
         25    1    1    2    0    0 -0.70778513077E+02 -0.20641230623E+03  0.12270041595E+03  0.27981427796E+03  0.12500000000E+03 0.  0.
         25    1    1    2    0    0  0.34134917609E+02 -0.23565595946E+02 -0.42877785879E+03  0.44854875108E+03  0.12500000000E+03 0.  0.
         25    1    1    2    0    0  0.36643595468E+02  0.22997790217E+03 -0.32342884008E+03  0.41768864382E+03  0.12500000000E+03 0.  0.
</event>
<event>
 5    0  0.5590591E-005  0.2682105E+03  0.7546771E-02  0.1102308E+00
         21   -1    0    0  502  501  0.00000000000E+00  0.00000000000E+00  0.55096274597E+02  0.55096274597E+02  0.00000000000E+00 0.  1.
         21   -1    0    0  501  502 -0.00000000000E+00 -0.00000000000E+00 -0.13056576754E+04  0.13056576754E+04  0.00000000000E+00 0.  1.
         25    1    1    2    0    0 -0.25791492372E+02 -0.10615824881E+03 -0.18921910304E+03  0.25172136148E+03  0.12500000000E+03 0.  0.
         25    1    1    2    0    0 -0.57369859554E+02  0.35899885290E+02 -0.33306339383E+03  0.36212750083E+03  0.12500000000E+03 0.  0.
         25    1    1    2    0    0  0.83161351926E+02  0.70258363520E+02 -0.72827890395E+03  0.74690508770E+03  0.12500000000E+03 0.  0.
</event>
<event>
 5    0  0.5590591E-005  0.2338725E+03  0.7546771E-02  0.1123943E+00
         21   -1    0    0  502  501  0.00000000000E+00  0.00000000000E+00  0.10778702202E+04  0.10778702202E+04  0.00000000000E+00 0.  1.
         21   -1    0    0  501  502 -0.00000000000E+00 -0.00000000000E+00 -0.50744851255E+02  0.50744851255E+02  0.00000000000E+00 0.  1.
         25    1    1    2    0    0  0.36990594950E+02 -0.95485705323E+02  0.37924986925E+03  0.41223935688E+03  0.12500000000E+03 0.  0.
         25    1    1    2    0    0 -0.22716488597E+02  0.47044715203E+02  0.15723492669E+03  0.20755015358E+03  0.12500000000E+03 0.  0.
         25    1    1    2    0    0 -0.14274106353E+02  0.48440990120E+02  0.49064057305E+03  0.50882556104E+03  0.12500000000E+03 0.  0.
</event>
<event>
 5    0  0.5590591E-005  0.3820258E+03  0.7546771E-02  0.1050188E+00
         21   -1    0    0  502  501  0.00000000000E+00  0.00000000000E+00  0.47754873373E+03  0.47754873373E+03  0.00000000000E+00 0. -1.
         21   -1    0    0  501  502 -0.00000000000E+00 -0.00000000000E+00 -0.30561014888E+03  0.30561014888E+03  0.00000000000E+00 0. -1.
         25    1    1    2    0    0  0.28311050269E+02  0.35768961900E+02  0.34850503728E+02  0.13755177866E+03  0.12500000000E+03 0.  0.
         25    1    1    2    0    0  0.12347367908E+03  0.17259304436E+03  0.23738175484E+03  0.34206608414E+03  0.12500000000E+03 0.  0.
         25    1    1    2    0    0 -0.15178472935E+03 -0.20836200626E+03 -0.10029367372E+03  0.30354101980E+03  0.12500000000E+03 0.  0.
</event>
<event>
 5    0  0.5590591E-005  0.2445012E+03  0.7546771E-02  0.1116830E+00
         21   -1    0    0  502  501  0.00000000000E+00  0.00000000000E+00  0.31898906596E+02  0.31898906596E+02  0.00000000000E+00 0. -1.
         21   -1    0    0  501  502 -0.00000000000E+00 -0.00000000000E+00 -0.18740715371E+04  0.18740715371E+04  0.00000000000E+00 0. -1.
         25    1    1    2    0    0  0.15512132899E+02  0.78250466270E+02 -0.37247670218E+03  0.40090853745E+03  0.12500000000E+03 0.  0.
         25    1    1    2    0    0  0.33690028982E+02  0.10740861746E+02 -0.34071806851E+03  0.36464254603E+03  0.12500000000E+03 0.  0.
         25    1    1    2    0    0 -0.49202161881E+02 -0.88991328015E+02 -0.11289778598E+04  0.11404193602E+04  0.12500000000E+03 0.  0.
</event>
<event>
 5    0  0.5590591E-005  0.2544012E+03  0.7546771E-02  0.1110555E+00
         21   -1    0    0  502  501  0.00000000000E+00  0.00000000000E+00  0.73907905402E+03  0.73907905402E+03  0.00000000000E+00 0.  1.
         21   -1    0    0  501  502 -0.00000000000E+00 -0.00000000000E+00 -0.87568420475E+02  0.87568420475E+02  0.00000000000E+00 0.  1.
         25    1    1    2    0    0 -0.22979030363E+01  0.95470292179E+02  0.18086560558E+03  0.23970236613E+03  0.12500000000E+03 0.  0.
         25    1    1    2    0    0 -0.59631925527E+02 -0.35808449481E+02  0.71473512146E+02  0.15991145842E+03  0.12500000000E+03 0.  0.
         25    1    1    2    0    0  0.61929828563E+02 -0.59661842699E+02  0.39917151582E+03  0.42703364994E+03  0.12500000000E+03 0.  0.
</event>
<event>
 5    0  0.5590591E-005  0.2927879E+03  0.7546771E-02  0.1088902E+00
         21   -1    0    0  502  501  0.00000000000E+00  0.00000000000E+00  0.49803090792E+03  0.49803090792E+03  0.00000000000E+00 0.  1.
         21   -1    0    0  501  502 -0.00000000000E+00 -0.00000000000E+00 -0.17212735738E+03  0.17212735738E+03  0.00000000000E+00 0.  1.
         25    1    1    2    0    0  0.12925079398E+03  0.12540049247E+03  0.78237437249E+02  0.23275985016E+03  0.12500000000E+03 0.  0.
         25    1    1    2    0    0  0.28509394736E+02 -0.11840799411E+02  0.76000791472E+02  0.14951291056E+03  0.12500000000E+03 0.  0.
         25    1    1    2    0    0 -0.15776018872E+03 -0.11355969306E+03  0.17166532182E+03  0.28788550458E+03  0.12500000000E+03 0.  0.
</event>
<event>
 5    0  0.5590591E-005  0.1970424E+03  0.7546771E-02  0.1152259E+00
         21   -1    0    0  502  501  0.00000000000E+00  0.00000000000E+00  0.13868713593E+03  0.13868713593E+03  0.00000000000E+00 0.  1.
         21   -1    0    0  501  502 -0.00000000000E+00 -0.00000000000E+00 -0.27995173683E+03  0.27995173683E+03  0.00000000000E+00 0.  1.
         25    1    1    2    0    0 -0.17098425178E+02  0.15547881487E+02 -0.35915456415E+02  0.13209471137E+03  0.12500000000E+03 0.  0.
         25    1    1    2    0    0  0.52039753466E+02 -0.17987363779E+02 -0.57324684147E+02  0.14813102514E+03  0.12500000000E+03 0.  0.
         25    1    1    2    0    0 -0.34941328287E+02  0.24394822916E+01 -0.48024460333E+02  0.13841313625E+03  0.12500000000E+03 0.  0.
</event>
<event>
 5    0  0.5590591E-005  0.2228075E+03  0.7546771E-02  0.1131807E+00
         21   -1    0    0  502  501  0.00000000000E+00  0.00000000000E+00  0.36579280548E+03  0.36579280548E+03  0.00000000000E+00 0.  1.
         21   -1    0    0  501  502 -0.00000000000E+00 -0.00000000000E+00 -0.13571389468E+03  0.13571389468E+03  0.00000000000E+00 0.  1.
         25    1    1    2    0    0 -0.70866383010E+02  0.24544514576E+02  0.11776702890E+03  0.18739944112E+03  0.12500000000E+03 0.  0.
         25    1    1    2    0    0  0.10304760815E+03 -0.26890861181E+02  0.65044316207E+02  0.17662868122E+03  0.12500000000E+03 0.  0.
         25    1    1    2    0    0 -0.32181225135E+02  0.23463466046E+01  0.47267565688E+02  0.13747857782E+03  0.12500000000E+03 0.  0.
</event>
<event>
 5    0  0.5590591E-005  0.3195532E+03  0.7546771E-02  0.1075855E+00
         21   -1    0    0  502  501  0.00000000000E+00  0.00000000000E+00  0.90419520807E+02  0.90419520807E+02  0.00000000000E+00 0. -1.
         21   -1    0    0  501  502 -0.00000000000E+00 -0.00000000000E+00 -0.11293383123E+04  0.11293383123E+04  0.00000000000E+00 0. -1.
         25    1    1    2    0    0 -0.15682034267E+03 -0.62187285674E+02 -0.23795199035E+03  0.31734213097E+03  0.12500000000E+03 0.  0.
         25    1    1    2    0    0 -0.54313914376E+02  0.10869551937E+02 -0.45556201698E+03  0.47563631040E+03  0.12500000000E+03 0.  0.
         25    1    1    2    0    0  0.21113425704E+03  0.51317733737E+02 -0.34540478415E+03  0.42677939174E+03  0.12500000000E+03 0.  0.
</event>
<event>
 5    0  0.5590591E-005  0.3426452E+03  0.7546771E-02  0.1065675E+00
         21   -1    0    0  502  501  0.00000000000E+00  0.00000000000E+00  0.24647299423E+03  0.24647299423E+03  0.00000000000E+00 0. -1.
         21   -1    0    0  501  502 -0.00000000000E+00 -0.00000000000E+00 -0.47634310817E+03  0.47634310817E+03  0.00000000000E+00 0. -1.
         25    1    1    2    0    0  0.12731981315E+03 -0.10160270657E+03  0.38019554963E+02  0.20881554387E+03  0.12500000000E+03 0.  0.
         25    1    1    2    0    0 -0.98321939038E+02  0.88600660206E+02 -0.32533691881E+03  0.37280878668E+03  0.12500000000E+03 0.  0.
         25    1    1    2    0    0 -0.28997874113E+02  0.13002046363E+02  0.57447249919E+02  0.14119177184E+03  0.12500000000E+03 0.  0.
</event>
<event>
 5    0  0.5590591E-005  0.3861046E+03  0.7546771E-02  0.1048700E+00
         21   -1    0    0  502  501  0.00000000000E+00  0.00000000000E+00  0.12574462246E+04  0.12574462246E+04  0.00000000000E+00 0. -1.
         21   -1    0    0  501  502 -0.00000000000E+00 -0.00000000000E+00 -0.11855516308E+03  0.11855516308E+03  0.00000000000E+00 0. -1.
         25    1    1    2    0    0  0.15850323606E+03 -0.45796202020E+02  0.31443379441E+03  0.37644943754E+03  0.12500000000E+03 0.  0.
         25    1    1    2    0    0  0.21815732320E+01 -0.14575864185E+03  0.86854774092E+02  0.21075837520E+03  0.12500000000E+03 0.  0.
         25    1    1    2    0    0 -0.16068480929E+03  0.19155484387E+03  0.73760249307E+03  0.78879357498E+03  0.12500000000E+03 0.  0.
</event>
<event>
 5    0  0.5590591E-005  0.3405793E+03  0.7546771E-02  0.1066549E+00
         21   -1    0    0  502  501  0.00000000000E+00  0.00000000000E+00  0.12639697596E+04  0.12639697596E+04  0.00000000000E+00 0. -1.
         21   -1    0    0  501  502 -0.00000000000E+00 -0.00000000000E+00 -0.91769802257E+02  0.91769802257E+02  0.00000000000E+00 0. -1.
         25    1    1    2    0    0 -0.19552594812E+03 -0.12714186229E+02  0.54042075907E+03  0.58827854265E+03  0.12500000000E+03 0.  0.
         25    1    1    2    0    0  0.20243869378E+03  0.47300637982E+02  0.57808694467E+03  0.62691968440E+03  0.12500000000E+03 0.  0.
         25    1    1    2    0    0 -0.69127456695E+01 -0.34586451753E+02  0.53692253651E+02  0.14054133484E+03  0.12500000000E+03 0.  0.
</event>
<event>
 5    0  0.5590591E-005  0.2539140E+03  0.7546771E-02  0.1110856E+00
         21   -1    0    0  502  501  0.00000000000E+00  0.00000000000E+00  0.59937761344E+03  0.59937761344E+03  0.00000000000E+00 0. -1.
         21   -1    0    0  501  502 -0.00000000000E+00 -0.00000000000E+00 -0.10756546615E+03  0.10756546615E+03  0.00000000000E+00 0. -1.
         25    1    1    2    0    0 -0.22436574639E+02  0.65255406133E+02  0.73592065095E+02  0.16063144137E+03  0.12500000000E+03 0.  0.
         25    1    1    2    0    0 -0.44799241456E+02 -0.61491511516E+02  0.36746112468E+03  0.39552604994E+03  0.12500000000E+03 0.  0.
         25    1    1    2    0    0  0.67235816095E+02 -0.37638946173E+01  0.50758957504E+02  0.15078558829E+03  0.12500000000E+03 0.  0.
</event>
<event>
 5    0  0.5590591E-005  0.2131615E+03  0.7546771E-02  0.1139087E+00
         21   -1    0    0  502  501  0.00000000000E+00  0.00000000000E+00  0.30871982644E+03  0.30871982644E+03  0.00000000000E+00 0. -1.
         21   -1    0    0  501  502 -0.00000000000E+00 -0.00000000000E+00 -0.14718147219E+03  0.14718147219E+03  0.00000000000E+00 0. -1.
         25    1    1    2    0    0  0.29337486485E+02 -0.15589997552E+02  0.73194778809E+02  0.14861430544E+03  0.12500000000E+03 0.  0.
         25    1    1    2    0    0  0.31588946370E+02 -0.44374579132E+02  0.74091207025E+02  0.15518206006E+03  0.12500000000E+03 0.  0.
         25    1    1    2    0    0 -0.60926432854E+02  0.59964576683E+02  0.14252368413E+02  0.15210493313E+03  0.12500000000E+03 0.  0.
</event>
<event>
 5    0  0.5590591E-005  0.2323047E+03  0.7546771E-02  0.1125028E+00
         21   -1    0    0  502  501  0.00000000000E+00  0.00000000000E+00  0.28718763690E+03  0.28718763690E+03  0.00000000000E+00 0. -1.
         21   -1    0    0  501  502 -0.00000000000E+00 -0.00000000000E+00 -0.18791015496E+03  0.18791015496E+03  0.00000000000E+00 0. -1.
         25    1    1    2    0    0 -0.68136136513E+02 -0.64833794246E+01 -0.19114426900E+02  0.14378779024E+03  0.12500000000E+03 0.  0.
         25    1    1    2    0    0  0.19713995113E+02  0.15520783029E+01  0.14718584186E+03  0.19411265439E+03  0.12500000000E+03 0.  0.
         25    1    1    2    0    0  0.48422141400E+02  0.49313011217E+01 -0.28793933021E+02  0.13719734723E+03  0.12500000000E+03 0.  0.
</event>
<event>
 5    0  0.5590591E-005  0.2784931E+03  0.7546771E-02  0.1096515E+00
         21   -1    0    0  502  501  0.00000000000E+00  0.00000000000E+00  0.55971573838E+03  0.55971573838E+03  0.00000000000E+00 0. -1.
         21   -1    0    0  501  502 -0.00000000000E+00 -0.00000000000E+00 -0.13856747038E+03  0.13856747038E+03  0.00000000000E+00 0. -1.
         25    1    1    2    0    0  0.61146823822E+01  0.34591379929E+02  0.28378695442E+02  0.13290712269E+03  0.12500000000E+03 0.  0.
         25    1    1    2    0    0  0.56832547466E+02 -0.54153796454E+02  0.39745933054E+03  0.42398289064E+03  0.12500000000E+03 0.  0.
         25    1    1    2    0    0 -0.62947229848E+02  0.19562416524E+02 -0.46897579718E+01  0.14139319544E+03  0.12500000000E+03 0.  0.
</event>
<event>
 5    0  0.5590591E-005  0.2193237E+03  0.7546771E-02  0.1134388E+00
         21   -1    0    0  502  501  0.00000000000E+00  0.00000000000E+00  0.11214000162E+04  0.11214000162E+04  0.00000000000E+00 0. -1.
         21   -1    0    0  501  502 -0.00000000000E+00 -0.00000000000E+00 -0.42895382443E+02  0.42895382443E+02  0.00000000000E+00 0. -1.
         25    1    1    2    0    0  0.35785472987E+02 -0.72217429888E+02  0.43395044661E+03  0.45873080055E+03  0.12500000000E+03 0.  0.
         25    1    1    2    0    0 -0.32078682246E+02  0.64975601942E+02  0.46276863951E+03  0.48479963327E+03  0.12500000000E+03 0.  0.
         25    1    1    2    0    0 -0.37067907408E+01  0.72418279466E+01  0.18178554768E+03  0.22076496487E+03  0.12500000000E+03 0.  0.
</event>
<event>
 5    0  0.5590591E-005  0.3628656E+03  0.7546771E-02  0.1057455E+00
         21   -1    0    0  502  501  0.00000000000E+00  0.00000000000E+00  0.70082197948E+03  0.70082197948E+03  0.00000000000E+00 0. -1.
         21   -1    0    0  501  502 -0.00000000000E+00 -0.00000000000E+00 -0.18788145676E+03  0.18788145676E+03  0.00000000000E+00 0. -1.
         25    1    1    2    0    0 -0.50386191164E+02  0.15040800879E+03  0.18289631575E+03  0.27246541007E+03  0.12500000000E+03 0.  0.
         25    1    1    2    0    0 -0.28526429992E+02  0.11881594509E+03  0.23859226423E+03  0.29577399238E+03  0.12500000000E+03 0.  0.
         25    1    1    2    0    0  0.78912621156E+02 -0.26922395388E+03  0.91451942739E+02  0.32046403379E+03  0.12500000000E+03 0.  0.
</event>
<event>
 5    0  0.5590591E-005  0.3147020E+03  0.7546771E-02  0.1078114E+00
         21   -1    0    0  502  501  0.00000000000E+00  0.00000000000E+00  0.16486523223E+04  0.16486523223E+04  0.00000000000E+00 0. -1.
         21   -1    0    0  501  502 -0.00000000000E+00 -0.00000000000E+00 -0.60071686076E+02  0.60071686076E+02  0.00000000000E+00 0. -1.
         25    1    1    2    0    0 -0.77570059683E+02  0.28930416898E+02  0.28075418293E+03  0.31827974239E+03  0.12500000000E+03 0.  0.
         25    1    1    2    0    0  0.54239185460E+01  0.82579009500E+02  0.12954377765E+03  0.19812950823E+03  0.12500000000E+03 0.  0.
         25    1    1    2    0    0  0.72146141137E+02 -0.11150942640E+03  0.11782826757E+04  0.11923147578E+04  0.12500000000E+03 0.  0.
</event>
<event>
 5    0  0.5590591E-005  0.2669227E+03  0.7546771E-02  0.1103054E+00
         21   -1    0    0  502  501  0.00000000000E+00  0.00000000000E+00  0.14746660407E+03  0.14746660407E+03  0.00000000000E+00 0. -1.
         21   -1    0    0  501  502 -0.00000000000E+00 -0.00000000000E+00 -0.48314477453E+03  0.48314477453E+03  0.00000000000E+00 0. -1.
         25    1    1    2    0    0 -0.43656259181E+02 -0.50316170144E+02 -0.15923431609E+03  0.21311535225E+03  0.12500000000E+03 0.  0.
         25    1    1    2    0    0  0.10683993168E+02  0.16237919586E+03 -0.74282767649E+02  0.21822942178E+03  0.12500000000E+03 0.  0.
         25    1    1    2    0    0  0.32972266012E+02 -0.11206302572E+03 -0.10216108673E+03  0.19926660458E+03  0.12500000000E+03 0.  0.
</event>
<event>
 5    0  0.5590591E-005  0.2749127E+03  0.7546771E-02  0.1098500E+00
         21   -1    0    0  502  501  0.00000000000E+00  0.00000000000E+00  0.81266637572E+02  0.81266637572E+02  0.00000000000E+00 0. -1.
         21   -1    0    0  501  502 -0.00000000000E+00 -0.00000000000E+00 -0.92998781500E+03  0.92998781500E+03  0.00000000000E+00 0. -1.
         25    1    1    2    0    0  0.15988226153E+02  0.15481933292E+03 -0.44692879102E+03  0.48948441595E+03  0.12500000000E+03 0.  0.
         25    1    1    2    0    0 -0.83105820112E+02 -0.86294791090E+02 -0.18050883001E+03  0.25012358149E+03  0.12500000000E+03 0.  0.
         25    1    1    2    0    0  0.67117593959E+02 -0.68524541826E+02 -0.22128355641E+03  0.27164645514E+03  0.12500000000E+03 0.  0.
</event>
<event>
 5    0  0.5590591E-005  0.3052040E+03  0.7546771E-02  0.1082668E+00
         21   -1    0    0  502  501  0.00000000000E+00  0.00000000000E+00  0.11253448123E+04  0.11253448123E+04  0.00000000000E+00 0. -1.
         21   -1    0    0  501  502 -0.00000000000E+00 -0.00000000000E+00 -0.82774193173E+02  0.82774193173E+02  0.00000000000E+00 0. -1.
         25    1    1    2    0    0  0.16224731389E+03 -0.67544957503E+02  0.61336163180E+03  0.65017228757E+03  0.12500000000E+03 0.  0.
         25    1    1    2    0    0 -0.87479148236E+02 -0.58950413258E+02  0.19907746573E+03  0.25765207152E+03  0.12500000000E+03 0.  0.
         25    1    1    2    0    0 -0.74768165657E+02  0.12649537076E+03  0.23013152163E+03  0.30029464641E+03  0.12500000000E+03 0.  0.
</event>
<event>
 5    0  0.5590591E-005  0.2099541E+03  0.7546771E-02  0.1141602E+00
         21   -1    0    0  502  501  0.00000000000E+00  0.00000000000E+00  0.47088470758E+03  0.47088470758E+03  0.00000000000E+00 0.  1.
         21   -1    0    0  501  502 -0.00000000000E+00 -0.00000000000E+00 -0.93612550263E+02  0.93612550263E+02  0.00000000000E+00 0.  1.
         25    1    1    2    0    0  0.35178507496E+02  0.15458509150E+02  0.20466614029E+03  0.24287799793E+03  0.12500000000E+03 0.  0.
         25    1    1    2    0    0  0.30883505460E+01  0.25501885372E+02  0.47713054911E+02  0.13624030122E+03  0.12500000000E+03 0.  0.
         25    1    1    2    0    0 -0.38266858042E+02 -0.40960394522E+02  0.12489296212E+03  0.18537895870E+03  0.12500000000E+03 0.  0.
</event>
<event>
 5    0  0.5590591E-005  0.2804065E+03  0.7546771E-02  0.1095467E+00
         21   -1    0    0  502  501  0.00000000000E+00  0.00000000000E+00  0.67769944820E+03  0.67769944820E+03  0.00000000000E+00 0.  1.
         21   -1    0    0  501  502 -0.00000000000E+00 -0.00000000000E+00 -0.11602162193E+03  0.11602162193E+03  0.00000000000E+00 0.  1.
         25    1    1    2    0    0  0.42773458130E+00  0.69657837247E+02  0.25830514132E+03  0.29529467194E+03  0.12500000000E+03 0.  0.
         25    1    1    2    0    0 -0.10731251111E+03  0.47349115913E+01  0.26778936815E+03  0.31444322241E+03  0.12500000000E+03 0.  0.
         25    1    1    2    0    0  0.10688477653E+03 -0.74392748838E+02  0.35583316799E+02  0.18398317577E+03  0.12500000000E+03 0.  0.
</event>
<event>
 5    0  0.5590591E-005  0.3533026E+03  0.7546771E-02  0.1061268E+00
         21   -1    0    0  502  501  0.00000000000E+00  0.00000000000E+00  0.23972232018E+03  0.23972232018E+03  0.00000000000E+00 0.  1.
         21   -1    0    0  501  502 -0.00000000000E+00 -0.00000000000E+00 -0.52069710686E+03  0.52069710686E+03  0.00000000000E+00 0.  1.
         25    1    1    2    0    0  0.46497139099E+02 -0.14813630422E+02 -0.62933851193E+02  0.14821301298E+03  0.12500000000E+03 0.  0.
         25    1    1    2    0    0  0.12410895916E+03  0.19508367678E+03 -0.20616809711E+03  0.33405232967E+03  0.12500000000E+03 0.  0.
         25    1    1    2    0    0 -0.17060609826E+03 -0.18027004636E+03 -0.11872838376E+02  0.27815408440E+03  0.12500000000E+03 0.  0.
</event>
<event>
 5    0  0.6033523E-005  0.4789661E+03  0.7546771E-02  0.1019420E+00
         21   -1    0    0  502  501  0.00000000000E+00  0.00000000000E+00  0.82884926668E+03  0.82884926668E+03  0.00000000000E+00 0. -1.
         21   -1    0    0  501  502 -0.00000000000E+00 -0.00000000000E+00 -0.27677960096E+03  0.27677960096E+03  0.00000000000E+00 0. -1.
         25    1    1    2    0    0  0.31578075571E+02  0.23075366667E+03  0.66950948625E+02  0.27267537304E+03  0.12500000000E+03 0.  0.
         25    1    1    2    0    0  0.15806987121E+03 -0.29224289179E+03  0.79132258844E+02  0.36370167222E+03  0.12500000000E+03 0.  0.
         25    1    1    2    0    0 -0.18964794678E+03  0.61489225118E+02  0.40598645825E+03  0.46925182238E+03  0.12500000000E+03 0.  0.
</event>
<event>
 5    0  0.5590591E-005  0.2610876E+03  0.7546771E-02  0.1106492E+00
         21   -1    0    0  502  501  0.00000000000E+00  0.00000000000E+00  0.82249792906E+02  0.82249792906E+02  0.00000000000E+00 0. -1.
         21   -1    0    0  501  502 -0.00000000000E+00 -0.00000000000E+00 -0.82877698807E+03  0.82877698807E+03  0.00000000000E+00 0. -1.
         25    1    1    2    0    0 -0.13975307788E+03 -0.91561817806E+01 -0.45285232680E+03  0.49021932676E+03  0.12500000000E+03 0.  0.
         25    1    1    2    0    0  0.52110436504E+02  0.18331968851E+02 -0.19739461926E+03  0.24008580630E+03  0.12500000000E+03 0.  0.
         25    1    1    2    0    0  0.87642641378E+02 -0.91757870703E+01 -0.96280249101E+02  0.18072164791E+03  0.12500000000E+03 0.  0.
</event>
<event>
 5    0  0.5590591E-005  0.3716074E+03  0.7546771E-02  0.1054080E+00
         21   -1    0    0  502  501  0.00000000000E+00  0.00000000000E+00  0.57611392798E+03  0.57611392798E+03  0.00000000000E+00 0. -1.
         21   -1    0    0  501  502 -0.00000000000E+00 -0.00000000000E+00 -0.23969577418E+03  0.23969577418E+03  0.00000000000E+00 0. -1.
         25    1    1    2    0    0  0.41531056326E+02  0.62612000193E+02  0.22546957544E+03  0.26852675966E+03  0.12500000000E+03 0.  0.
         25    1    1    2    0    0 -0.21499261576E+03 -0.10421651086E+03  0.17352535490E+03  0.32065394861E+03  0.12500000000E+03 0.  0.
         25    1    1    2    0    0  0.17346155943E+03  0.41604510670E+02 -0.62576776541E+02  0.22662899389E+03  0.12500000000E+03 0.  0.
</event>
<event>
 5    0  0.5590591E-005  0.2818224E+03  0.7546771E-02  0.1094698E+00
         21   -1    0    0  502  501  0.00000000000E+00  0.00000000000E+00  0.10520959022E+04  0.10520959022E+04  0.00000000000E+00 0.  1.
         21   -1    0    0  501  502 -0.00000000000E+00 -0.00000000000E+00 -0.75491073444E+02  0.75491073444E+02  0.00000000000E+00 0.  1.
         25    1    1    2    0    0  0.11399973684E+03 -0.47478899040E+02  0.11856121787E+03  0.21197157412E+03  0.12500000000E+03 0.  0.
         25    1    1    2    0    0 -0.62013214413E+02  0.22936328578E+02  0.21030949837E+03  0.25343006735E+03  0.12500000000E+03 0.  0.
         25    1    1    2    0    0 -0.51986522426E+02  0.24542570462E+02  0.64773411252E+03  0.66218533418E+03  0.12500000000E+03 0.  0.
</event>
<event>
 5    0  0.5590591E-005  0.3159313E+03  0.7546771E-02  0.1077537E+00
         21   -1    0    0  502  501  0.00000000000E+00  0.00000000000E+00  0.14316997192E+04  0.14316997192E+04  0.00000000000E+00 0.  1.
         21   -1    0    0  501  502 -0.00000000000E+00 -0.00000000000E+00 -0.69716154108E+02  0.69716154108E+02  0.00000000000E+00 0.  1.
         25    1    1    2    0    0  0.13394868038E+03  0.10259844270E+03  0.27254336605E+03  0.34405461165E+03  0.12500000000E+03 0.  0.
         25    1    1    2    0    0  0.59700414927E+02 -0.12519403043E+02  0.31492247995E+03  0.34427030568E+03  0.12500000000E+03 0.  0.
         25    1    1    2    0    0 -0.19364909531E+03 -0.90079039662E+02  0.77451771907E+03  0.81309095595E+03  0.12500000000E+03 0.  0.
</event>
<event>
 5    0  0.5590591E-005  0.5488230E+03  0.7546771E-02  0.1001767E+00
         21   -1    0    0  502  501  0.00000000000E+00  0.00000000000E+00  0.45807306160E+03  0.45807306160E+03  0.00000000000E+00 0.  1.
         21   -1    0    0  501  502 -0.00000000000E+00 -0.00000000000E+00 -0.65755169209E+03  0.65755169209E+03  0.00000000000E+00 0.  1.
         25    1    1    2    0    0 -0.28068149809E+03  0.37219485765E+03  0.38734415458E+02  0.48418640044E+03  0.12500000000E+03 0.  0.
         25    1    1    2    0    0  0.49577533078E+01 -0.14959845314E+03 -0.17849067655E+02  0.19582611092E+03  0.12500000000E+03 0.  0.
         25    1    1    2    0    0  0.27572374478E+03 -0.22259640451E+03 -0.22036397829E+03  0.43561224233E+03  0.12500000000E+03 0.  0.
</event>
<event>
 5    0  0.5590591E-005  0.3753623E+03  0.7546771E-02  0.1052661E+00
         21   -1    0    0  502  501  0.00000000000E+00  0.00000000000E+00  0.56400039317E+03  0.56400039317E+03  0.00000000000E+00 0. -1.
         21   -1    0    0  501  502 -0.00000000000E+00 -0.00000000000E+00 -0.24981698167E+03  0.24981698167E+03  0.00000000000E+00 0. -1.
         25    1    1    2    0    0  0.14273181919E+03 -0.18457172356E+02 -0.14404469256E+03  0.23892867738E+03  0.12500000000E+03 0.  0.
         25    1    1    2    0    0 -0.46607120787E+02 -0.83131515107E+02  0.24281145382E+03  0.28924984808E+03  0.12500000000E+03 0.  0.
         25    1    1    2    0    0 -0.96124698402E+02  0.10158868746E+03  0.21541665025E+03  0.28563884937E+03  0.12500000000E+03 0.  0.
</event>
<event>
 5    0  0.5590591E-005  0.2635511E+03  0.7546771E-02  0.1105028E+00
         21   -1    0    0  502  501  0.00000000000E+00  0.00000000000E+00  0.78167683724E+03  0.78167683724E+03  0.00000000000E+00 0. -1.
         21   -1    0    0  501  502 -0.00000000000E+00 -0.00000000000E+00 -0.88859188962E+02  0.88859188962E+02  0.00000000000E+00 0. -1.
         25    1    1    2    0    0  0.10494089233E+03 -0.98786913034E+01  0.33294006713E+03  0.37092353353E+03  0.12500000000E+03 0.  0.
         25    1    1    2    0    0  0.28393433481E+02 -0.56611670929E+02  0.88478960114E+02  0.16572445424E+03  0.12500000000E+03 0.  0.
         25    1    1    2    0    0 -0.13333432581E+03  0.66490362233E+02  0.27139862103E+03  0.33388803843E+03  0.12500000000E+03 0.  0.
</event>
<event>
 5    0  0.5590591E-005  0.3177941E+03  0.7546771E-02  0.1076669E+00
         21   -1    0    0  502  501  0.00000000000E+00  0.00000000000E+00  0.88678795310E+02  0.88678795310E+02  0.00000000000E+00 0. -1.
         21   -1    0    0  501  502 -0.00000000000E+00 -0.00000000000E+00 -0.11388638908E+04  0.11388638908E+04  0.00000000000E+00 0. -1.
         25    1    1    2    0    0 -0.18598402801E+02  0.93135183439E+02 -0.77492008061E+03  0.79066187104E+03  0.12500000000E+03 0.  0.
         25    1    1    2    0    0  0.10741753699E+03 -0.10858722734E+02 -0.12982444962E+03  0.21008528466E+03  0.12500000000E+03 0.  0.
         25    1    1    2    0    0 -0.88819134189E+02 -0.82276460705E+02 -0.14544056522E+03  0.22679553037E+03  0.12500000000E+03 0.  0.
</event>
<event>
 5    0  0.5590591E-005  0.2742800E+03  0.7546771E-02  0.1098855E+00
         21   -1    0    0  502  501  0.00000000000E+00  0.00000000000E+00  0.33267402795E+03  0.33267402795E+03  0.00000000000E+00 0.  1.
         21   -1    0    0  501  502 -0.00000000000E+00 -0.00000000000E+00 -0.22613581419E+03  0.22613581419E+03  0.00000000000E+00 0.  1.
         25    1    1    2    0    0  0.13215789801E+03 -0.71423314822E+02 -0.88163706595E+01  0.19562650204E+03  0.12500000000E+03 0.  0.
         25    1    1    2    0    0 -0.14038195440E+02 -0.86851746439E+01  0.11907355108E+03  0.17342437475E+03  0.12500000000E+03 0.  0.
         25    1    1    2    0    0 -0.11811970257E+03  0.80108489466E+02 -0.37189666685E+01  0.18975896536E+03  0.12500000000E+03 0.  0.
</event>
<event>
 5    0  0.5590591E-005  0.2392949E+03  0.7546771E-02  0.1120263E+00
         21   -1    0    0  502  501  0.00000000000E+00  0.00000000000E+00  0.19450386967E+03  0.19450386967E+03  0.00000000000E+00 0. -1.
         21   -1    0    0  501  502 -0.00000000000E+00 -0.00000000000E+00 -0.29440068072E+03  0.29440068072E+03  0.00000000000E+00 0. -1.
         25    1    1    2    0    0  0.39236103223E+01 -0.19629045325E+02  0.55763214227E+02  0.13833014928E+03  0.12500000000E+03 0.  0.
         25    1    1    2    0    0 -0.45595726146E+02  0.68830245129E+02 -0.13206426030E+02  0.15038611165E+03  0.12500000000E+03 0.  0.
         25    1    1    2    0    0  0.41672115824E+02 -0.49201199803E+02 -0.14245359925E+03  0.20018828947E+03  0.12500000000E+03 0.  0.
</event>
<event>
 5    0  0.5590591E-005  0.3699390E+03  0.7546771E-02  0.1054716E+00
         21   -1    0    0  502  501  0.00000000000E+00  0.00000000000E+00  0.13214943765E+03  0.13214943765E+03  0.00000000000E+00 0.  1.
         21   -1    0    0  501  502 -0.00000000000E+00 -0.00000000000E+00 -0.10356069611E+04  0.10356069611E+04  0.00000000000E+00 0.  1.
         25    1    1    2    0    0  0.42326595800E+02 -0.22698869421E+03 -0.41784935043E+03  0.49349618810E+03  0.12500000000E+03 0.  0.
         25    1    1    2    0    0 -0.12251110799E+03 -0.18982454505E+02 -0.14080774284E+03  0.22543541338E+03  0.12500000000E+03 0.  0.
         25    1    1    2    0    0  0.80184512193E+02  0.24597114872E+03 -0.34480043020E+03  0.44882479729E+03  0.12500000000E+03 0.  0.
</event>
<event>
 5    0  0.5590591E-005  0.2203003E+03  0.7546771E-02  0.1133659E+00
         21   -1    0    0  502  501  0.00000000000E+00  0.00000000000E+00  0.52354959917E+03  0.52354959917E+03  0.00000000000E+00 0. -1.
         21   -1    0    0  501  502 -0.00000000000E+00 -0.00000000000E+00 -0.92698413329E+02  0.92698413329E+02  0.00000000000E+00 0. -1.
         25    1    1    2    0    0  0.75341618389E+02  0.43310379641E+02  0.10268272887E+03  0.18363248965E+03  0.12500000000E+03 0.  0.
         25    1    1    2    0    0  0.65787493195E+01  0.29270851974E+01  0.13703107040E+03  0.18561886225E+03  0.12500000000E+03 0.  0.
         25    1    1    2    0    0 -0.81920367708E+02 -0.46237464839E+02  0.19113738657E+03  0.24699666060E+03  0.12500000000E+03 0.  0.
</event>
<event>
 5    0  0.5590591E-005  0.3350587E+03  0.7546771E-02  0.1068920E+00
         21   -1    0    0  502  501  0.00000000000E+00  0.00000000000E+00  0.21420646670E+03  0.21420646670E+03  0.00000000000E+00 0. -1.
         21   -1    0    0  501  502 -0.00000000000E+00 -0.00000000000E+00 -0.52409393925E+03  0.52409393925E+03  0.00000000000E+00 0. -1.
         25    1    1    2    0    0 -0.17729188287E+03 -0.41217225013E+02 -0.34344114269E+03  0.40829902015E+03  0.12500000000E+03 0.  0.
         25    1    1    2    0    0  0.29640386376E+02  0.19400242720E+02  0.37670133295E+02  0.13527365178E+03  0.12500000000E+03 0.  0.
         25    1    1    2    0    0  0.14765149649E+03  0.21816982293E+02 -0.41164631574E+01  0.19472773403E+03  0.12500000000E+03 0.  0.
</event>
<event>
 5    0  0.6039236E-005  0.2676948E+03  0.7546771E-02  0.1102606E+00
         21   -1    0    0  502  501  0.00000000000E+00  0.00000000000E+00  0.21261591107E+03  0.21261591107E+03  0.00000000000E+00 0.  1.
         21   -1    0    0  501  502 -0.00000000000E+00 -0.00000000000E+00 -0.33704201236E+03  0.33704201236E+03  0.00000000000E+00 0.  1.
         25    1    1    2    0    0 -0.43352802605E+02 -0.24096299252E-01 -0.13275239139E+03  0.18742375381E+03  0.12500000000E+03 0.  0.
         25    1    1    2    0    0 -0.10778980067E+03  0.55539934903E+00 -0.92204718718E+01  0.16531475040E+03  0.12500000000E+03 0.  0.
         25    1    1    2    0    0  0.15114260328E+03 -0.53130304978E+00  0.17546761972E+02  0.19691941922E+03  0.12500000000E+03 0.  0.
</event>
<event>
 5    0  0.5590591E-005  0.2459119E+03  0.7546771E-02  0.1115916E+00
         21   -1    0    0  502  501  0.00000000000E+00  0.00000000000E+00  0.94279545437E+03  0.94279545437E+03  0.00000000000E+00 0.  1.
         21   -1    0    0  501  502 -0.00000000000E+00 -0.00000000000E+00 -0.64141883099E+02  0.64141883099E+02  0.00000000000E+00 0.  1.
         25    1    1    2    0    0 -0.35016345211E+02  0.43257173112E+02  0.20618645308E+03  0.24745743248E+03  0.12500000000E+03 0.  0.
         25    1    1    2    0    0 -0.77509112000E+02 -0.30949915213E+02  0.48294527153E+03  0.50579313458E+03  0.12500000000E+03 0.  0.
         25    1    1    2    0    0  0.11252545721E+03 -0.12307257899E+02  0.18952184666E+03  0.25368677041E+03  0.12500000000E+03 0.  0.
</event>
<event>
 5    0  0.5590591E-005  0.3607042E+03  0.7546771E-02  0.1058305E+00
         21   -1    0    0  502  501  0.00000000000E+00  0.00000000000E+00  0.26947253628E+03  0.26947253628E+03  0.00000000000E+00 0.  1.
         21   -1    0    0  501  502 -0.00000000000E+00 -0.00000000000E+00 -0.48282301339E+03  0.48282301339E+03  0.00000000000E+00 0.  1.
         25    1    1    2    0    0  0.73544622580E+02 -0.16554165748E+02 -0.36087638506E+03  0.38928089756E+03  0.12500000000E+03 0.  0.
         25    1    1    2    0    0 -0.98829608954E+02 -0.66883641770E+02  0.42612839192E+02  0.17799316618E+03  0.12500000000E+03 0.  0.
         25    1    1    2    0    0  0.25284986374E+02  0.83437807517E+02  0.10491306876E+03  0.18502148593E+03  0.12500000000E+03 0.  0.
</event>
<event>
 5    0  0.5590591E-005  0.2400146E+03  0.7546771E-02  0.1119783E+00
         21   -1    0    0  502  501  0.00000000000E+00  0.00000000000E+00  0.13482494480E+04  0.13482494480E+04  0.00000000000E+00 0. -1.
         21   -1    0    0  501  502 -0.00000000000E+00 -0.00000000000E+00 -0.42727273508E+02  0.42727273508E+02  0.00000000000E+00 0. -1.
         25    1    1    2    0    0  0.92722131564E+02  0.25584109880E+02  0.29598371090E+03  0.33538529705E+03  0.12500000000E+03 0.  0.
         25    1    1    2    0    0  0.27996879868E+02  0.39186549783E+01  0.34364058923E+03  0.36676018828E+03  0.12500000000E+03 0.  0.
         25    1    1    2    0    0 -0.12071901143E+03 -0.29502764858E+02  0.66589787438E+03  0.68883123619E+03  0.12500000000E+03 0.  0.
</event>
<event>
 5    0  0.5590591E-005  0.2629096E+03  0.7546771E-02  0.1105408E+00
         21   -1    0    0  502  501  0.00000000000E+00  0.00000000000E+00  0.11310763928E+03  0.11310763928E+03  0.00000000000E+00 0.  1.
         21   -1    0    0  501  502 -0.00000000000E+00 -0.00000000000E+00 -0.61111221221E+03  0.61111221221E+03  0.00000000000E+00 0.  1.
         25    1    1    2    0    0 -0.36898828277E+02 -0.10358161129E+03 -0.12668388580E+03  0.20919961914E+03  0.12500000000E+03 0.  0.
         25    1    1    2    0    0  0.13300115016E+03  0.58995164658E+02 -0.22127920911E+03  0.29284675819E+03  0.12500000000E+03 0.  0.
         25    1    1    2    0    0 -0.96102321883E+02  0.44586446630E+02 -0.15004147802E+03  0.22217347416E+03  0.12500000000E+03 0.  0.
</event>
<event>
 5    0  0.5590591E-005  0.4779997E+03  0.7546771E-02  0.1019686E+00
         21   -1    0    0  502  501  0.00000000000E+00  0.00000000000E+00  0.11617209549E+03  0.11617209549E+03  0.00000000000E+00 0. -1.
         21   -1    0    0  501  502 -0.00000000000E+00 -0.00000000000E+00 -0.19667691138E+04  0.19667691138E+04  0.00000000000E+00 0. -1.
         25    1    1    2    0    0  0.36157903038E+03  0.38891989874E+02 -0.10164077819E+04  0.10867206455E+04  0.12500000000E+03 0.  0.
         25    1    1    2    0    0 -0.26634489220E+03  0.74224210853E+01 -0.76262311210E+03  0.81744339563E+03  0.12500000000E+03 0.  0.
         25    1    1    2    0    0 -0.95234138175E+02 -0.46314410959E+02 -0.71566124291E+02  0.17877716824E+03  0.12500000000E+03 0.  0.
</event>
<event>
 5    0  0.5590591E-005  0.2947517E+03  0.7546771E-02  0.1087894E+00
         21   -1    0    0  502  501  0.00000000000E+00  0.00000000000E+00  0.10545873292E+03  0.10545873292E+03  0.00000000000E+00 0. -1.
         21   -1    0    0  501  502 -0.00000000000E+00 -0.00000000000E+00 -0.82381578638E+03  0.82381578638E+03  0.00000000000E+00 0. -1.
         25    1    1    2    0    0  0.70407782591E+02 -0.70606667445E+02 -0.47254596171E+03  0.49886595721E+03  0.12500000000E+03 0.  0.
         25    1    1    2    0    0 -0.10035985531E+03  0.91722774250E+02 -0.23614233970E+03  0.29978887983E+03  0.12500000000E+03 0.  0.
         25    1    1    2    0    0  0.29952072717E+02 -0.21116106805E+02 -0.96687520564E+01  0.13061968226E+03  0.12500000000E+03 0.  0.
</event>
<event>
 5    0  0.5590591E-005  0.2968195E+03  0.7546771E-02  0.1086841E+00
         21   -1    0    0  502  501  0.00000000000E+00  0.00000000000E+00  0.26811485564E+02  0.26811485564E+02  0.00000000000E+00 0. -1.
         21   -1    0    0  501  502 -0.00000000000E+00 -0.00000000000E+00 -0.32859738301E+04  0.32859738301E+04  0.00000000000E+00 0. -1.
         25    1    1    2    0    0 -0.15781057848E+03 -0.43922752186E+02 -0.13504461035E+04  0.13660757905E+04  0.12500000000E+03 0.  0.
         25    1    1    2    0    0  0.12274895853E+02 -0.80183429871E+02 -0.60211585166E+03  0.62028102850E+03  0.12500000000E+03 0.  0.
         25    1    1    2    0    0  0.14553568262E+03  0.12410618206E+03 -0.13066003894E+04  0.13264284967E+04  0.12500000000E+03 0.  0.
</event>
<event>
 5    0  0.5590591E-005  0.3184516E+03  0.7546771E-02  0.1076364E+00
         21   -1    0    0  502  501  0.00000000000E+00  0.00000000000E+00  0.12380402949E+03  0.12380402949E+03  0.00000000000E+00 0. -1.
         21   -1    0    0  501  502 -0.00000000000E+00 -0.00000000000E+00 -0.81912843280E+03  0.81912843280E+03  0.00000000000E+00 0. -1.
         25    1    1    2    0    0 -0.13416190322E+03 -0.47463806412E+02 -0.52223617003E+03  0.55552483877E+03  0.12500000000E+03 0.  0.
         25    1    1    2    0    0 -0.12425397202E+02 -0.21513599105E+02 -0.13989407014E+02  0.12821048690E+03  0.12500000000E+03 0.  0.
         25    1    1    2    0    0  0.14658730042E+03  0.68977405516E+02 -0.15909882626E+03  0.25919713662E+03  0.12500000000E+03 0.  0.
</event>
<event>
 5    0  0.5590591E-005  0.2555550E+03  0.7546771E-02  0.1109844E+00
         21   -1    0    0  502  501  0.00000000000E+00  0.00000000000E+00  0.11434279392E+03  0.11434279392E+03  0.00000000000E+00 0. -1.
         21   -1    0    0  501  502 -0.00000000000E+00 -0.00000000000E+00 -0.57116276688E+03  0.57116276688E+03  0.00000000000E+00 0. -1.
         25    1    1    2    0    0  0.11095492642E+03  0.75678803028E+01 -0.17653064501E+03  0.24322075803E+03  0.12500000000E+03 0.  0.
         25    1    1    2    0    0 -0.66035269563E+02  0.26179576083E+02 -0.16110387539E+02  0.14467401846E+03  0.12500000000E+03 0.  0.
         25    1    1    2    0    0 -0.44919656853E+02 -0.33747456385E+02 -0.26417894041E+03  0.29761078431E+03  0.12500000000E+03 0.  0.
</event>
<event>
 5    0  0.5590591E-005  0.2849299E+03  0.7546771E-02  0.1093026E+00
         21   -1    0    0  502  501  0.00000000000E+00  0.00000000000E+00  0.24892931386E+04  0.24892931386E+04  0.00000000000E+00 0. -1.
         21   -1    0    0  501  502 -0.00000000000E+00 -0.00000000000E+00 -0.32613685072E+02  0.32613685072E+02  0.00000000000E+00 0. -1.
         25    1    1    2    0    0 -0.16910064647E+03 -0.73978894860E+00  0.80371980242E+03  0.83077439581E+03  0.12500000000E+03 0.  0.
         25    1    1    2    0    0  0.95984203316E+02  0.73984321498E+02  0.56741474966E+03  0.59352434259E+03  0.12500000000E+03 0.  0.
         25    1    1    2    0    0  0.73116443154E+02 -0.73244532549E+02  0.10855449014E+04  0.10976080853E+04  0.12500000000E+03 0.  0.
</event>
<event>
 5    0  0.5590591E-005  0.2077433E+03  0.7546771E-02  0.1143366E+00
         21   -1    0    0  502  501  0.00000000000E+00  0.00000000000E+00  0.57281896957E+02  0.57281896957E+02  0.00000000000E+00 0.  1.
         21   -1    0    0  501  502 -0.00000000000E+00 -0.00000000000E+00 -0.75341920904E+03  0.75341920904E+03  0.00000000000E+00 0.  1.
         25    1    1    2    0    0 -0.17906284125E+02  0.14982965680E+02 -0.19612508642E+03  0.23374168177E+03  0.12500000000E+03 0.  0.
         25    1    1    2    0    0 -0.16404259582E+02 -0.51811937898E+02 -0.34842001691E+03  0.37413244289E+03  0.12500000000E+03 0.  0.
         25    1    1    2    0    0  0.34310543707E+02  0.36828972219E+02 -0.15159220875E+03  0.20282698134E+03  0.12500000000E+03 0.  0.
</event>
<event>
 5    0  0.5590591E-005  0.3852643E+03  0.7546771E-02  0.1049005E+00
         21   -1    0    0  502  501  0.00000000000E+00  0.00000000000E+00  0.91079541281E+03  0.91079541281E+03  0.00000000000E+00 0.  1.
         21   -1    0    0  501  502 -0.00000000000E+00 -0.00000000000E+00 -0.16296586064E+03  0.16296586064E+03  0.00000000000E+00 0.  1.
         25    1    1    2    0    0  0.45022494366E+02 -0.54455725439E+02 -0.55828614380E+02  0.15405935614E+03  0.12500000000E+03 0.  0.
         25    1    1    2    0    0  0.10881365643E+03 -0.90562106823E+02  0.46038166518E+03  0.49761248442E+03  0.12500000000E+03 0.  0.
         25    1    1    2    0    0 -0.15383615079E+03  0.14501783226E+03  0.34327650137E+03  0.42208943289E+03  0.12500000000E+03 0.  0.
</event>
<event>
 5    0  0.5590591E-005  0.2502213E+03  0.7546771E-02  0.1113165E+00
         21   -1    0    0  502  501  0.00000000000E+00  0.00000000000E+00  0.23143943401E+03  0.23143943401E+03  0.00000000000E+00 0.  1.
         21   -1    0    0  501  502 -0.00000000000E+00 -0.00000000000E+00 -0.27052734891E+03  0.27052734891E+03  0.00000000000E+00 0.  1.
         25    1    1    2    0    0  0.95332965458E+01 -0.43693483091E+02 -0.11502694508E+03  0.17565933594E+03  0.12500000000E+03 0.  0.
         25    1    1    2    0    0  0.85679492249E+02 -0.76502202860E+01  0.43458129616E+02  0.15783887446E+03  0.12500000000E+03 0.  0.
         25    1    1    2    0    0 -0.95212788795E+02  0.51343703377E+02  0.32480900559E+02  0.16846857252E+03  0.12500000000E+03 0.  0.
</event>
<event>
 5    0  0.5590591E-005  0.2757381E+03  0.7546771E-02  0.1098040E+00
         21   -1    0    0  502  501  0.00000000000E+00  0.00000000000E+00  0.36599775369E+02  0.36599775369E+02  0.00000000000E+00 0.  1.
         21   -1    0    0  501  502 -0.00000000000E+00 -0.00000000000E+00 -0.20773755472E+04  0.20773755472E+04  0.00000000000E+00 0.  1.
         25    1    1    2    0    0 -0.43551447772E+02 -0.10341780296E+03 -0.31955498765E+03  0.36101573470E+03  0.12500000000E+03 0.  0.
         25    1    1    2    0    0  0.73834057157E+02 -0.27811712093E+02 -0.71989286882E+03  0.73491203685E+03  0.12500000000E+03 0.  0.
         25    1    1    2    0    0 -0.30282609385E+02  0.13122951505E+03 -0.10013279153E+04  0.10180475510E+04  0.12500000000E+03 0.  0.
</event>
<event>
 5    0  0.5590591E-005  0.3817562E+03  0.7546771E-02  0.1050287E+00
         21   -1    0    0  502  501  0.00000000000E+00  0.00000000000E+00  0.97752748128E+03  0.97752748128E+03  0.00000000000E+00 0.  1.
         21   -1    0    0  501  502 -0.00000000000E+00 -0.00000000000E+00 -0.14908820924E+03  0.14908820924E+03  0.00000000000E+00 0.  1.
         25    1    1    2    0    0 -0.21581406542E+02 -0.10885381750E+03  0.16535425187E+03  0.23512111624E+03  0.12500000000E+03 0.  0.
         25    1    1    2    0    0  0.36338444925E+02 -0.19724603394E+03  0.14673297968E+03  0.27817628909E+03  0.12500000000E+03 0.  0.
         25    1    1    2    0    0 -0.14757038384E+02  0.30609985144E+03  0.51635204049E+03  0.61331828520E+03  0.12500000000E+03 0.  0.
</event>
<event>
 5    0  0.5590591E-005  0.3149994E+03  0.7546771E-02  0.1077974E+00
         21   -1    0    0  502  501  0.00000000000E+00  0.00000000000E+00  0.24005499340E+03  0.24005499340E+03  0.00000000000E+00 0.  1.
         21   -1    0    0  501  502 -0.00000000000E+00 -0.00000000000E+00 -0.41334116474E+03  0.41334116474E+03  0.00000000000E+00 0.  1.
         25    1    1    2    0    0  0.73633534469E+02  0.41263205388E+02  0.69883388345E+01  0.15099134544E+03  0.12500000000E+03 0.  0.
         25    1    1    2    0    0 -0.21230159428E+03 -0.82366760704E+02 -0.17102960591E+03  0.31101828933E+03  0.12500000000E+03 0.  0.
         25    1    1    2    0    0  0.13866805981E+03  0.41103555316E+02 -0.92449042624E+01  0.19138652337E+03  0.12500000000E+03 0.  0.
</event>
<event>
 5    0  0.5590591E-005  0.3331020E+03  0.7546771E-02  0.1069773E+00
         21   -1    0    0  502  501  0.00000000000E+00  0.00000000000E+00  0.51006494116E+03  0.51006494116E+03  0.00000000000E+00 0.  1.
         21   -1    0    0  501  502 -0.00000000000E+00 -0.00000000000E+00 -0.21753493138E+03  0.21753493138E+03  0.00000000000E+00 0.  1.
         25    1    1    2    0    0 -0.13431799641E+03 -0.11197623048E+03  0.31031543109E+03  0.37749260538E+03  0.12500000000E+03 0.  0.
         25    1    1    2    0    0  0.15945874055E+03  0.61604227781E+02 -0.22284810277E+02  0.21294079832E+03  0.12500000000E+03 0.  0.
         25    1    1    2    0    0 -0.25140744148E+02  0.50372002695E+02  0.44993889792E+01  0.13716646884E+03  0.12500000000E+03 0.  0.
</event>
<event>
 5    0  0.5590591E-005  0.3310765E+03  0.7546771E-02  0.1070662E+00
         21   -1    0    0  502  501  0.00000000000E+00  0.00000000000E+00  0.22398643115E+03  0.22398643115E+03  0.00000000000E+00 0.  1.
         21   -1    0    0  501  502 -0.00000000000E+00 -0.00000000000E+00 -0.48936740426E+03  0.48936740426E+03  0.00000000000E+00 0.  1.
         25    1    1    2    0    0  0.15796209726E+03  0.51203312758E+02 -0.20591115523E+03  0.29257171302E+03  0.12500000000E+03 0.  0.
         25    1    1    2    0    0 -0.41668570000E+02 -0.96166759815E+02 -0.15067443428E+03  0.22206328054E+03  0.12500000000E+03 0.  0.
         25    1    1    2    0    0 -0.11629352726E+03  0.44963447057E+02  0.91204616403E+02  0.19871884185E+03  0.12500000000E+03 0.  0.
</event>
<event>
 5    0  0.5590591E-005  0.2756435E+03  0.7546771E-02  0.1098092E+00
         21   -1    0    0  502  501  0.00000000000E+00  0.00000000000E+00  0.11915564958E+03  0.11915564958E+03  0.00000000000E+00 0.  1.
         21   -1    0    0  501  502 -0.00000000000E+00 -0.00000000000E+00 -0.63764762165E+03  0.63764762165E+03  0.00000000000E+00 0.  1.
         25    1    1    2    0    0 -0.75473836922E+02  0.48169885553E+02 -0.91153959418E+02  0.17874753775E+03  0.12500000000E+03 0.  0.
         25    1    1    2    0    0 -0.18525847544E+02 -0.15462746756E+03 -0.20663857725E+03  0.28736277136E+03  0.12500000000E+03 0.  0.
         25    1    1    2    0    0  0.93999684466E+02  0.10645758201E+03 -0.22069943539E+03  0.29069296213E+03  0.12500000000E+03 0.  0.
</event>
<event>
 5    0  0.5590591E-005  0.2108087E+03  0.7546771E-02  0.1140927E+00
         21   -1    0    0  502  501  0.00000000000E+00  0.00000000000E+00  0.19358621864E+03  0.19358621864E+03  0.00000000000E+00 0. -1.
         21   -1    0    0  501  502 -0.00000000000E+00 -0.00000000000E+00 -0.22956339161E+03  0.22956339161E+03  0.00000000000E+00 0. -1.
         25    1    1    2    0    0  0.36224539535E+02 -0.10569232702E+02  0.20571831605E+01  0.13058774042E+03  0.12500000000E+03 0.  0.
         25    1    1    2    0    0 -0.44218512407E+02  0.55582304338E+02 -0.63298783544E+02  0.15708725408E+03  0.12500000000E+03 0.  0.
         25    1    1    2    0    0  0.79939728720E+01 -0.45013071635E+02  0.25264427415E+02  0.13547461575E+03  0.12500000000E+03 0.  0.
</event>
<event>
 5    0  0.5590591E-005  0.3852013E+03  0.7546771E-02  0.1049028E+00
         21   -1    0    0  502  501  0.00000000000E+00  0.00000000000E+00  0.84841389857E+03  0.84841389857E+03  0.00000000000E+00 0. -1.
         21   -1    0    0  501  502 -0.00000000000E+00 -0.00000000000E+00 -0.17489112317E+03  0.17489112317E+03  0.00000000000E+00 0.  1.
         25    1    1    2    0    0  0.61413980799E+02 -0.11849820423E+02  0.26391571114E+03  0.29864460127E+03  0.12500000000E+03 0.  0.
         25    1    1    2    0    0 -0.68994900427E+02 -0.24004485459E+03  0.32995824784E+03  0.43229535484E+03  0.12500000000E+03 0.  0.
         25    1    1    2    0    0  0.75809196279E+01  0.25189467502E+03  0.79648816424E+02  0.29236506563E+03  0.12500000000E+03 0.  0.
</event>
<event>
 5    0  0.5590591E-005  0.3156020E+03  0.7546771E-02  0.1077691E+00
         21   -1    0    0  502  501  0.00000000000E+00  0.00000000000E+00  0.15550718049E+03  0.15550718049E+03  0.00000000000E+00 0.  1.
         21   -1    0    0  501  502 -0.00000000000E+00 -0.00000000000E+00 -0.64051464302E+03  0.64051464302E+03  0.00000000000E+00 0.  1.
         25    1    1    2    0    0  0.67945088010E+02  0.18320717074E+02 -0.19863401072E+03  0.24501561965E+03  0.12500000000E+03 0.  0.
         25    1    1    2    0    0 -0.16597492796E+03 -0.14727948530E+03 -0.21809435547E+03  0.33530444582E+03  0.12500000000E+03 0.  0.
         25    1    1    2    0    0  0.98029839952E+02  0.12895876822E+03 -0.68279096335E+02  0.21570175803E+03  0.12500000000E+03 0.  0.
</event>
<event>
 5    0  0.5590591E-005  0.3097267E+03  0.7546771E-02  0.1080477E+00
         21   -1    0    0  502  501  0.00000000000E+00  0.00000000000E+00  0.21799240331E+03  0.21799240331E+03  0.00000000000E+00 0.  1.
         21   -1    0    0  501  502 -0.00000000000E+00 -0.00000000000E+00 -0.44006414871E+03  0.44006414871E+03  0.00000000000E+00 0.  1.
         25    1    1    2    0    0 -0.12620987367E+03  0.15356866470E+02  0.17623815075E+02  0.17916574566E+03  0.12500000000E+03 0.  0.
         25    1    1    2    0    0  0.48943860784E+02 -0.86011096419E+01 -0.29301661452E+03  0.32241776778E+03  0.12500000000E+03 0.  0.
         25    1    1    2    0    0  0.77266012885E+02 -0.67557568282E+01  0.53321054044E+02  0.15647303858E+03  0.12500000000E+03 0.  0.
</event>
<event>
 5    0  0.5590591E-005  0.2410987E+03  0.7546771E-02  0.1119063E+00
         21   -1    0    0  502  501  0.00000000000E+00  0.00000000000E+00  0.29991720932E+03  0.29991720932E+03  0.00000000000E+00 0.  1.
         21   -1    0    0  501  502 -0.00000000000E+00 -0.00000000000E+00 -0.19381535295E+03  0.19381535295E+03  0.00000000000E+00 0.  1.
         25    1    1    2    0    0  0.52937149421E+02 -0.16266366300E+02  0.12512149094E+02  0.13728980420E+03  0.12500000000E+03 0.  0.
         25    1    1    2    0    0 -0.69327927247E+02 -0.89716376029E+02  0.90978367925E+02  0.19172233322E+03  0.12500000000E+03 0.  0.
         25    1    1    2    0    0  0.16390777826E+02  0.10598274233E+03  0.26113393469E+01  0.16472042485E+03  0.12500000000E+03 0.  0.
</event>
<event>
 5    0  0.5590591E-005  0.3079910E+03  0.7546771E-02  0.1081313E+00
         21   -1    0    0  502  501  0.00000000000E+00  0.00000000000E+00  0.17249829772E+03  0.17249829772E+03  0.00000000000E+00 0. -1.
         21   -1    0    0  501  502 -0.00000000000E+00 -0.00000000000E+00 -0.54990941268E+03  0.54990941268E+03  0.00000000000E+00 0. -1.
         25    1    1    2    0    0  0.51534051103E+02 -0.73983045966E+02 -0.27731312668E+02  0.15659909072E+03  0.12500000000E+03 0.  0.
         25    1    1    2    0    0 -0.73368715476E+02 -0.12877774636E+03 -0.22172951200E+03  0.29454312563E+03  0.12500000000E+03 0.  0.
         25    1    1    2    0    0  0.21834664373E+02  0.20276079233E+03 -0.12795029029E+03  0.27126549404E+03  0.12500000000E+03 0.  0.
</event>
<event>
 5    0  0.5590591E-005  0.2907551E+03  0.7546771E-02  0.1089956E+00
         21   -1    0    0  502  501  0.00000000000E+00  0.00000000000E+00  0.25595199698E+03  0.25595199698E+03  0.00000000000E+00 0.  1.
         21   -1    0    0  501  502 -0.00000000000E+00 -0.00000000000E+00 -0.33029066065E+03  0.33029066065E+03  0.00000000000E+00 0.  1.
         25    1    1    2    0    0  0.12014876026E+03 -0.40112220170E+02 -0.37890006928E+02  0.18194880440E+03  0.12500000000E+03 0.  0.
         25    1    1    2    0    0 -0.18892911529E+03  0.97817519911E+02 -0.28633956245E+01  0.24677049427E+03  0.12500000000E+03 0.  0.
         25    1    1    2    0    0  0.68780355029E+02 -0.57705299741E+02 -0.33585261115E+02  0.15752335897E+03  0.12500000000E+03 0.  0.
</event>
<event>
 5    0  0.5590591E-005  0.4687555E+03  0.7546771E-02  0.1022272E+00
         21   -1    0    0  502  501  0.00000000000E+00  0.00000000000E+00  0.21247959191E+03  0.21247959191E+03  0.00000000000E+00 0.  1.
         21   -1    0    0  501  502 -0.00000000000E+00 -0.00000000000E+00 -0.10341307940E+04  0.10341307940E+04  0.00000000000E+00 0.  1.
         25    1    1    2    0    0 -0.25614111236E+03 -0.17046307087E+03 -0.29293343192E+03  0.44283283924E+03  0.12500000000E+03 0.  0.
         25    1    1    2    0    0  0.18484243876E+03  0.32369423248E+03 -0.31253612171E+03  0.50224347749E+03  0.12500000000E+03 0.  0.
         25    1    1    2    0    0  0.71298673600E+02 -0.15323116162E+03 -0.21618164847E+03  0.30153406919E+03  0.12500000000E+03 0.  0.
</event>
<event>
 5    0  0.6514604E-005  0.2895993E+03  0.7546771E-02  0.1090559E+00
         21   -1    0    0  502  501  0.00000000000E+00  0.00000000000E+00  0.28730966434E+03  0.28730966434E+03  0.00000000000E+00 0. -1.
         21   -1    0    0  501  502 -0.00000000000E+00 -0.00000000000E+00 -0.29190720726E+03  0.29190720726E+03  0.00000000000E+00 0. -1.
         25    1    1    2    0    0 -0.30964102588E+02  0.52183854829E+02 -0.78133741104E+02  0.15941082728E+03  0.12500000000E+03 0.  0.
         25    1    1    2    0    0  0.23619700859E+02  0.12486536581E+03 -0.27861369230E+02  0.18041758712E+03  0.12500000000E+03 0.  0.
         25    1    1    2    0    0  0.73444017290E+01 -0.17704922064E+03  0.10139756742E+03  0.23938845721E+03  0.12500000000E+03 0.  0.
</event>
<event>
 5    0  0.5590591E-005  0.2603420E+03  0.7546771E-02  0.1106938E+00
         21   -1    0    0  502  501  0.00000000000E+00  0.00000000000E+00  0.91131882836E+03  0.91131882836E+03  0.00000000000E+00 0.  1.
         21   -1    0    0  501  502 -0.00000000000E+00 -0.00000000000E+00 -0.74373472828E+02  0.74373472828E+02  0.00000000000E+00 0.  1.
         25    1    1    2    0    0 -0.60185012104E+02 -0.20723897003E+02  0.17778251908E+03  0.22645825152E+03  0.12500000000E+03 0.  0.
         25    1    1    2    0    0  0.28952878028E+02 -0.10150307907E+03  0.15762872944E+03  0.22718485986E+03  0.12500000000E+03 0.  0.
         25    1    1    2    0    0  0.31232134075E+02  0.12222697607E+03  0.50153410702E+03  0.53204918981E+03  0.12500000000E+03 0.  0.
</event>
<event>
 5    0  0.5590591E-005  0.2617992E+03  0.7546771E-02  0.1106067E+00
         21   -1    0    0  502  501  0.00000000000E+00  0.00000000000E+00  0.95094938934E+02  0.95094938934E+02  0.00000000000E+00 0. -1.
         21   -1    0    0  501  502 -0.00000000000E+00 -0.00000000000E+00 -0.72074073947E+03  0.72074073947E+03  0.00000000000E+00 0. -1.
         25    1    1    2    0    0 -0.86434667672E+02  0.44593926032E+01 -0.32869539348E+03  0.36215535293E+03  0.12500000000E+03 0.  0.
         25    1    1    2    0    0  0.24606266669E+02 -0.60674163245E+02 -0.25537175821E+02  0.14340142884E+03  0.12500000000E+03 0.  0.
         25    1    1    2    0    0  0.61828401003E+02  0.56214770642E+02 -0.27141323124E+03  0.31027889664E+03  0.12500000000E+03 0.  0.
</event>
<event>
 5    0  0.5590591E-005  0.3094137E+03  0.7546771E-02  0.1080627E+00
         21   -1    0    0  502  501  0.00000000000E+00  0.00000000000E+00  0.19738738280E+03  0.19738738280E+03  0.00000000000E+00 0. -1.
         21   -1    0    0  501  502 -0.00000000000E+00 -0.00000000000E+00 -0.48502005337E+03  0.48502005337E+03  0.00000000000E+00 0. -1.
         25    1    1    2    0    0  0.85881687233E+02 -0.13563543648E+03 -0.13744235259E+03  0.24553622160E+03  0.12500000000E+03 0.  0.
         25    1    1    2    0    0 -0.16785560145E+03  0.21440034766E+02 -0.13088767429E+03  0.24777360899E+03  0.12500000000E+03 0.  0.
         25    1    1    2    0    0  0.81973914220E+02  0.11419540171E+03 -0.19302643685E+02  0.18909760558E+03  0.12500000000E+03 0.  0.
</event>
<event>
 5    0  0.5590591E-005  0.2643729E+03  0.7546771E-02  0.1104544E+00
         21   -1    0    0  502  501  0.00000000000E+00  0.00000000000E+00  0.12077195272E+04  0.12077195272E+04  0.00000000000E+00 0. -1.
         21   -1    0    0  501  502 -0.00000000000E+00 -0.00000000000E+00 -0.57871895410E+02  0.57871895410E+02  0.00000000000E+00 0. -1.
         25    1    1    2    0    0 -0.28835150375E+02 -0.55664835678E+01  0.18877643409E+03  0.22830679733E+03  0.12500000000E+03 0.  0.
         25    1    1    2    0    0 -0.99250451907E+02  0.29419453907E+02  0.21331155226E+03  0.26803539841E+03  0.12500000000E+03 0.  0.
         25    1    1    2    0    0  0.12808560228E+03 -0.23852970339E+02  0.74775964541E+03  0.76924922685E+03  0.12500000000E+03 0.  0.
</event>
<event>
 5    0  0.5590591E-005  0.3428305E+03  0.7546771E-02  0.1065597E+00
         21   -1    0    0  502  501  0.00000000000E+00  0.00000000000E+00  0.91938622163E+03  0.91938622163E+03  0.00000000000E+00 0.  1.
         21   -1    0    0  501  502 -0.00000000000E+00 -0.00000000000E+00 -0.12783826284E+03  0.12783826284E+03  0.00000000000E+00 0.  1.
         25    1    1    2    0    0 -0.25007798531E+02  0.18398645268E+02  0.19707007387E+03  0.23542623930E+03  0.12500000000E+03 0.  0.
         25    1    1    2    0    0 -0.17460166916E+01 -0.89845438307E+02 -0.41284119891E+02  0.15938829918E+03  0.12500000000E+03 0.  0.
         25    1    1    2    0    0  0.26753815223E+02  0.71446793039E+02  0.63576200482E+03  0.65240994600E+03  0.12500000000E+03 0.  0.
</event>
<event>
 5    0  0.5590591E-005  0.2356454E+03  0.7546771E-02  0.1122728E+00
         21   -1    0    0  502  501  0.00000000000E+00  0.00000000000E+00  0.30264497298E+03  0.30264497298E+03  0.00000000000E+00 0. -1.
         21   -1    0    0  501  502 -0.00000000000E+00 -0.00000000000E+00 -0.18347823312E+03  0.18347823312E+03  0.00000000000E+00 0. -1.
         25    1    1    2    0    0  0.20846087960E+02  0.42321822744E+02  0.47988796204E+02  0.14196344820E+03  0.12500000000E+03 0.  0.
         25    1    1    2    0    0  0.74978744786E+02 -0.90596848687E+02  0.28365755191E+02  0.17395176696E+03  0.12500000000E+03 0.  0.
         25    1    1    2    0    0 -0.95824832746E+02  0.48275025943E+02  0.42812188463E+02  0.17020799095E+03  0.12500000000E+03 0.  0.
</event>
<event>
 5    0  0.5590591E-005  0.2514317E+03  0.7546771E-02  0.1112403E+00
         21   -1    0    0  502  501  0.00000000000E+00  0.00000000000E+00  0.38083941114E+02  0.38083941114E+02  0.00000000000E+00 0. -1.
         21   -1    0    0  501  502 -0.00000000000E+00 -0.00000000000E+00 -0.16599619032E+04  0.16599619032E+04  0.00000000000E+00 0. -1.
         25    1    1    2    0    0  0.68786682958E+02 -0.10198879705E+03 -0.72030302603E+03  0.74134659356E+03  0.12500000000E+03 0.  0.
         25    1    1    2    0    0  0.10389898852E+02 -0.20200508545E+02 -0.32073820447E+03  0.34498406680E+03  0.12500000000E+03 0.  0.
         25    1    1    2    0    0 -0.79176581810E+02  0.12218930560E+03 -0.58083673157E+03  0.61171518393E+03  0.12500000000E+03 0.  0.
</event>
<event>
 5    0  0.5590591E-005  0.4023979E+03  0.7546771E-02  0.1042953E+00
         21   -1    0    0  502  501  0.00000000000E+00  0.00000000000E+00  0.14153197205E+04  0.14153197205E+04  0.00000000000E+00 0.  1.
         21   -1    0    0  501  502 -0.00000000000E+00 -0.00000000000E+00 -0.11440812207E+03  0.11440812207E+03  0.00000000000E+00 0.  1.
         25    1    1    2    0    0 -0.69831874088E+02  0.32332626027E+03  0.46997559619E+03  0.58814829953E+03  0.12500000000E+03 0.  0.
         25    1    1    2    0    0  0.61416980075E+02 -0.11810408936E+03  0.22562167310E+03  0.29025981592E+03  0.12500000000E+03 0.  0.
         25    1    1    2    0    0  0.84148940135E+01 -0.20522217091E+03  0.60531432913E+03  0.65131972711E+03  0.12500000000E+03 0.  0.
</event>
<event>
 5    0  0.5590591E-005  0.2743320E+03  0.7546771E-02  0.1098826E+00
         21   -1    0    0  502  501  0.00000000000E+00  0.00000000000E+00  0.45486771601E+02  0.45486771601E+02  0.00000000000E+00 0.  1.
         21   -1    0    0  501  502 -0.00000000000E+00 -0.00000000000E+00 -0.16545037104E+04  0.16545037104E+04  0.00000000000E+00 0.  1.
         25    1    1    2    0    0  0.35775452239E+02 -0.28527247565E+02 -0.47999504357E+03  0.49811035794E+03  0.12500000000E+03 0.  0.
         25    1    1    2    0    0  0.10975469613E+03  0.10329092605E+03 -0.41695243487E+03  0.46064025190E+03  0.12500000000E+03 0.  0.
         25    1    1    2    0    0 -0.14553014837E+03 -0.74763678486E+02 -0.71206946039E+03  0.74123987219E+03  0.12500000000E+03 0.  0.
</event>
<event>
 5    0  0.5590591E-005  0.2852274E+03  0.7546771E-02  0.1092868E+00
         21   -1    0    0  502  501  0.00000000000E+00  0.00000000000E+00  0.39917909414E+03  0.39917909414E+03  0.00000000000E+00 0.  1.
         21   -1    0    0  501  502 -0.00000000000E+00 -0.00000000000E+00 -0.20380491803E+03  0.20380491803E+03  0.00000000000E+00 0.  1.
         25    1    1    2    0    0  0.64205983485E+02 -0.52450588454E+01  0.51871277928E+02  0.14988511744E+03  0.12500000000E+03 0.  0.
         25    1    1    2    0    0  0.21731655604E+02 -0.25223891103E+02 -0.10075128956E+03  0.16396442262E+03  0.12500000000E+03 0.  0.
         25    1    1    2    0    0 -0.85937639088E+02  0.30468949949E+02  0.24425418775E+03  0.28913447210E+03  0.12500000000E+03 0.  0.
</event>
<event>
 5    0  0.5590591E-005  0.2910264E+03  0.7546771E-02  0.1089814E+00
         21   -1    0    0  502  501  0.00000000000E+00  0.00000000000E+00  0.72119409557E+03  0.72119409557E+03  0.00000000000E+00 0.  1.
         21   -1    0    0  501  502 -0.00000000000E+00 -0.00000000000E+00 -0.11743904248E+03  0.11743904248E+03  0.00000000000E+00 0.  1.
         25    1    1    2    0    0  0.95335349612E+02 -0.13062214758E+03  0.24889954678E+03  0.32206669916E+03  0.12500000000E+03 0.  0.
         25    1    1    2    0    0  0.24222269548E+02  0.15428037159E+03  0.17289340776E+03  0.26439796112E+03  0.12500000000E+03 0.  0.
         25    1    1    2    0    0 -0.11955761916E+03 -0.23658224014E+02  0.18196209856E+03  0.25216847776E+03  0.12500000000E+03 0.  0.
</event>
<event>
 5    0  0.5590591E-005  0.2992606E+03  0.7546771E-02  0.1085611E+00
         21   -1    0    0  502  501  0.00000000000E+00  0.00000000000E+00  0.13305658226E+03  0.13305658226E+03  0.00000000000E+00 0.  1.
         21   -1    0    0  501  502 -0.00000000000E+00 -0.00000000000E+00 -0.67307392174E+03  0.67307392174E+03  0.00000000000E+00 0.  1.
         25    1    1    2    0    0 -0.12237624651E+03 -0.15157071290E+02 -0.18659117626E+03  0.25621660676E+03  0.12500000000E+03 0.  0.
         25    1    1    2    0    0  0.11059125713E+03  0.14499655681E+03 -0.27540256173E+03  0.35316568158E+03  0.12500000000E+03 0.  0.
         25    1    1    2    0    0  0.11784989379E+02 -0.12983948552E+03 -0.78023601504E+02  0.19674821567E+03  0.12500000000E+03 0.  0.
</event>
<event>
 5    0  0.5590591E-005  0.7905039E+03  0.7546771E-02  0.9573865E-01
         21   -1    0    0  502  501  0.00000000000E+00  0.00000000000E+00  0.18931250264E+04  0.18931250264E+04  0.00000000000E+00 0. -1.
         21   -1    0    0  501  502 -0.00000000000E+00 -0.00000000000E+00 -0.33008726762E+03  0.33008726762E+03  0.00000000000E+00 0.  1.
         25    1    1    2    0    0 -0.73417925313E+02  0.72784191360E+03  0.10761122455E+04  0.13072056486E+04  0.12500000000E+03 0.  0.
         25    1    1    2    0    0  0.92661786399E+01 -0.31416595997E+03  0.23233038610E+03  0.41035170376E+03  0.12500000000E+03 0.  0.
         25    1    1    2    0    0  0.64151746674E+02 -0.41367595363E+03  0.25459512724E+03  0.50565494166E+03  0.12500000000E+03 0.  0.
</event>
<event>
 5    0  0.5590591E-005  0.3124287E+03  0.7546771E-02  0.1079188E+00
         21   -1    0    0  502  501  0.00000000000E+00  0.00000000000E+00  0.15211251744E+03  0.15211251744E+03  0.00000000000E+00 0. -1.
         21   -1    0    0  501  502 -0.00000000000E+00 -0.00000000000E+00 -0.64170719294E+03  0.64170719294E+03  0.00000000000E+00 0. -1.
         25    1    1    2    0    0  0.35230676341E+02 -0.99152843860E+01 -0.38284178748E+02  0.13575784236E+03  0.12500000000E+03 0.  0.
         25    1    1    2    0    0 -0.62174999436E+01 -0.12145862532E+03 -0.39192015949E+01  0.17444545025E+03  0.12500000000E+03 0.  0.
         25    1    1    2    0    0 -0.29013176397E+02  0.13137390971E+03 -0.44739129515E+03  0.48361641777E+03  0.12500000000E+03 0.  0.
</event>
<event>
 5    0  0.5590591E-005  0.3104854E+03  0.7546771E-02  0.1080113E+00
         21   -1    0    0  502  501  0.00000000000E+00  0.00000000000E+00  0.72085536473E+03  0.72085536473E+03  0.00000000000E+00 0.  1.
         21   -1    0    0  501  502 -0.00000000000E+00 -0.00000000000E+00 -0.13373169542E+03  0.13373169542E+03  0.00000000000E+00 0.  1.
         25    1    1    2    0    0 -0.11083062222E+02 -0.27732278235E+02  0.19288886027E+03  0.23178228133E+03  0.12500000000E+03 0.  0.
         25    1    1    2    0    0  0.12855612777E+03 -0.11205308101E+03  0.56197482139E+02  0.21878237577E+03  0.12500000000E+03 0.  0.
         25    1    1    2    0    0 -0.11747306555E+03  0.13978535924E+03  0.33803732690E+03  0.40402240305E+03  0.12500000000E+03 0.  0.
</event>
<event>
 5    0  0.5590591E-005  0.2955218E+03  0.7546771E-02  0.1087501E+00
         21   -1    0    0  502  501  0.00000000000E+00  0.00000000000E+00  0.11604244886E+03  0.11604244886E+03  0.00000000000E+00 0. -1.
         21   -1    0    0  501  502 -0.00000000000E+00 -0.00000000000E+00 -0.75259634026E+03  0.75259634026E+03  0.00000000000E+00 0. -1.
         25    1    1    2    0    0  0.10053274455E+03  0.76986868935E+02 -0.17554669423E+03  0.24995090032E+03  0.12500000000E+03 0.  0.
         25    1    1    2    0    0 -0.16845382505E+03  0.35354655391E+02 -0.15568076958E+03  0.26360604099E+03  0.12500000000E+03 0.  0.
         25    1    1    2    0    0  0.67921080495E+02 -0.11234152433E+03 -0.30532642759E+03  0.35508184781E+03  0.12500000000E+03 0.  0.
</event>
