<event>
 5    0  0.5572507E-005  0.2730864E+03  0.7546771E-02  0.1099526E+00
         21   -1    0    0  502  501  0.00000000000E+00  0.00000000000E+00  0.21148485711E+04  0.21148485711E+04  0.00000000000E+00 0. -1.
         21   -1    0    0  501  502 -0.00000000000E+00 -0.00000000000E+00 -0.35263131284E+02  0.35263131284E+02  0.00000000000E+00 0. -1.
         25    1    1    2    0    0  0.43920633882E+02  0.35054411505E+02  0.21884547409E+03  0.25821730263E+03  0.12500000000E+03 0.  0.
         25    1    1    2    0    0 -0.11078167840E+03 -0.89806796852E+02  0.99214784510E+03  0.10101089979E+04  0.12500000000E+03 0.  0.
         25    1    1    2    0    0  0.66861044523E+02  0.54752385347E+02  0.86859212063E+03  0.88178540190E+03  0.12500000000E+03 0.  0.
</event>
<event>
 5    0  0.5572507E-005  0.3620800E+03  0.7546771E-02  0.1057763E+00
         21   -1    0    0  502  501  0.00000000000E+00  0.00000000000E+00  0.15991787730E+04  0.15991787730E+04  0.00000000000E+00 0. -1.
         21   -1    0    0  501  502 -0.00000000000E+00 -0.00000000000E+00 -0.81980791386E+02  0.81980791386E+02  0.00000000000E+00 0. -1.
         25    1    1    2    0    0 -0.13118664102E+03  0.13045456300E+02  0.20737387764E+03  0.27569737728E+03  0.12500000000E+03 0.  0.
         25    1    1    2    0    0  0.21886671830E+03  0.86090498451E+02  0.10795478797E+04  0.11119185397E+04  0.12500000000E+03 0.  0.
         25    1    1    2    0    0 -0.87680077276E+02 -0.99135954752E+02  0.23027622421E+03  0.29354364737E+03  0.12500000000E+03 0.  0.
</event>
<event>
 5    0  0.5572507E-005  0.2788592E+03  0.7546771E-02  0.1096314E+00
         21   -1    0    0  502  501  0.00000000000E+00  0.00000000000E+00  0.18844927357E+04  0.18844927357E+04  0.00000000000E+00 0.  1.
         21   -1    0    0  501  502 -0.00000000000E+00 -0.00000000000E+00 -0.41264392984E+02  0.41264392984E+02  0.00000000000E+00 0.  1.
         25    1    1    2    0    0 -0.10639835505E+02 -0.72765271518E+02  0.27002420192E+03  0.30650621603E+03  0.12500000000E+03 0.  0.
         25    1    1    2    0    0 -0.57424555593E+02 -0.26950209860E+02  0.26720980700E+03  0.30174488289E+03  0.12500000000E+03 0.  0.
         25    1    1    2    0    0  0.68064391098E+02  0.99715481378E+02  0.13059943338E+04  0.13175060298E+04  0.12500000000E+03 0.  0.
</event>
<event>
 5    0  0.5572507E-005  0.2690477E+03  0.7546771E-02  0.1101826E+00
         21   -1    0    0  502  501  0.00000000000E+00  0.00000000000E+00  0.12510170439E+04  0.12510170439E+04  0.00000000000E+00 0. -1.
         21   -1    0    0  501  502 -0.00000000000E+00 -0.00000000000E+00 -0.57862250587E+02  0.57862250587E+02  0.00000000000E+00 0. -1.
         25    1    1    2    0    0  0.30478451587E+02  0.35218843557E+02  0.62105557790E+03  0.63521990979E+03  0.12500000000E+03 0.  0.
         25    1    1    2    0    0 -0.89941982132E+02 -0.10915934073E+03  0.23192665641E+03  0.29903226543E+03  0.12500000000E+03 0.  0.
         25    1    1    2    0    0  0.59463530545E+02  0.73940497170E+02  0.34017255898E+03  0.37462711924E+03  0.12500000000E+03 0.  0.
</event>
<event>
 5    0  0.6160412E-005  0.3391202E+03  0.7546771E-02  0.1067171E+00
         21   -1    0    0  502  501  0.00000000000E+00  0.00000000000E+00  0.20739136171E+03  0.20739136171E+03  0.00000000000E+00 0.  1.
         21   -1    0    0  501  502 -0.00000000000E+00 -0.00000000000E+00 -0.55451923753E+03  0.55451923753E+03  0.00000000000E+00 0.  1.
         25    1    1    2    0    0 -0.46067266210E+01  0.36436368625E+02 -0.44315742182E+03  0.46191160561E+03  0.12500000000E+03 0.  0.
         25    1    1    2    0    0  0.25437312908E+02 -0.79271906189E+02  0.57185838619E+02  0.16070566928E+03  0.12500000000E+03 0.  0.
         25    1    1    2    0    0 -0.20830586287E+02  0.42835537564E+02  0.38843707380E+02  0.13929332434E+03  0.12500000000E+03 0.  0.
</event>
<event>
 5    0  0.5572507E-005  0.4815200E+03  0.7546771E-02  0.1018718E+00
         21   -1    0    0  502  501  0.00000000000E+00  0.00000000000E+00  0.16924224150E+03  0.16924224150E+03  0.00000000000E+00 0. -1.
         21   -1    0    0  501  502 -0.00000000000E+00 -0.00000000000E+00 -0.13699980460E+04  0.13699980460E+04  0.00000000000E+00 0. -1.
         25    1    1    2    0    0  0.25524091355E+03  0.16355917849E+01 -0.64095539740E+03  0.70114151251E+03  0.12500000000E+03 0.  0.
         25    1    1    2    0    0 -0.26022769427E+03  0.18364489284E+02 -0.27102124830E+02  0.29054299596E+03  0.12500000000E+03 0.  0.
         25    1    1    2    0    0  0.49867807231E+01 -0.20000081069E+02 -0.53269828228E+03  0.54755577905E+03  0.12500000000E+03 0.  0.
</event>
<event>
 5    0  0.5572507E-005  0.4009223E+03  0.7546771E-02  0.1043461E+00
         21   -1    0    0  502  501  0.00000000000E+00  0.00000000000E+00  0.33952709193E+03  0.33952709193E+03  0.00000000000E+00 0. -1.
         21   -1    0    0  501  502 -0.00000000000E+00 -0.00000000000E+00 -0.47341925433E+03  0.47341925433E+03  0.00000000000E+00 0. -1.
         25    1    1    2    0    0  0.26311071714E+03 -0.19013351445E+01 -0.27100381558E+03  0.39786798389E+03  0.12500000000E+03 0.  0.
         25    1    1    2    0    0 -0.10837471935E+03  0.92930421769E+01 -0.12346941723E+02  0.16615922302E+03  0.12500000000E+03 0.  0.
         25    1    1    2    0    0 -0.15473599779E+03 -0.73917070324E+01  0.14945859490E+03  0.24891913935E+03  0.12500000000E+03 0.  0.
</event>
<event>
 5    0  0.5572507E-005  0.2816851E+03  0.7546771E-02  0.1094772E+00
         21   -1    0    0  502  501  0.00000000000E+00  0.00000000000E+00  0.75803206314E+03  0.75803206314E+03  0.00000000000E+00 0.  1.
         21   -1    0    0  501  502 -0.00000000000E+00 -0.00000000000E+00 -0.10467429642E+03  0.10467429642E+03  0.00000000000E+00 0.  1.
         25    1    1    2    0    0  0.65550039873E+01 -0.11587031309E+03  0.44927285489E+03  0.48056216629E+03  0.12500000000E+03 0.  0.
         25    1    1    2    0    0 -0.62372702873E+01  0.14653589135E+03  0.14116249266E+03  0.23887971937E+03  0.12500000000E+03 0.  0.
         25    1    1    2    0    0 -0.31773370008E+00 -0.30665578261E+02  0.62922419179E+02  0.14326447389E+03  0.12500000000E+03 0.  0.
</event>
<event>
 5    0  0.5572507E-005  0.2588031E+03  0.7546771E-02  0.1107864E+00
         21   -1    0    0  502  501  0.00000000000E+00  0.00000000000E+00  0.12802452330E+03  0.12802452330E+03  0.00000000000E+00 0.  1.
         21   -1    0    0  501  502 -0.00000000000E+00 -0.00000000000E+00 -0.52317369201E+03  0.52317369201E+03  0.00000000000E+00 0.  1.
         25    1    1    2    0    0  0.46083721355E+02  0.12944472245E+03 -0.19123586350E+03  0.26660045205E+03  0.12500000000E+03 0.  0.
         25    1    1    2    0    0  0.39403502149E+02 -0.10509070334E+03 -0.13900742232E+03  0.21804759886E+03  0.12500000000E+03 0.  0.
         25    1    1    2    0    0 -0.85487223504E+02 -0.24354019106E+02 -0.64905882895E+02  0.16655016441E+03  0.12500000000E+03 0.  0.
</event>
<event>
 5    0  0.5572507E-005  0.2643956E+03  0.7546771E-02  0.1104531E+00
         21   -1    0    0  502  501  0.00000000000E+00  0.00000000000E+00  0.12255742037E+03  0.12255742037E+03  0.00000000000E+00 0.  1.
         21   -1    0    0  501  502 -0.00000000000E+00 -0.00000000000E+00 -0.57038583305E+03  0.57038583305E+03  0.00000000000E+00 0.  1.
         25    1    1    2    0    0  0.15048704721E+02 -0.10207664339E+03 -0.30031127121E+03  0.34125937974E+03  0.12500000000E+03 0.  0.
         25    1    1    2    0    0 -0.89426662380E+02  0.41952248387E+02 -0.96339196998E+02  0.18618098713E+03  0.12500000000E+03 0.  0.
         25    1    1    2    0    0  0.74377957659E+02  0.60124395007E+02 -0.51177944463E+02  0.16550288656E+03  0.12500000000E+03 0.  0.
</event>
<event>
 5    0  0.5572507E-005  0.2604494E+03  0.7546771E-02  0.1106874E+00
         21   -1    0    0  502  501  0.00000000000E+00  0.00000000000E+00  0.47057914553E+03  0.47057914553E+03  0.00000000000E+00 0.  1.
         21   -1    0    0  501  502 -0.00000000000E+00 -0.00000000000E+00 -0.14414982666E+03  0.14414982666E+03  0.00000000000E+00 0.  1.
         25    1    1    2    0    0 -0.13465909472E+03  0.61411126635E+02  0.16159863666E+03  0.25227666883E+03  0.12500000000E+03 0.  0.
         25    1    1    2    0    0  0.89539603089E+02 -0.41268177089E+02  0.16325719094E+03  0.22803138678E+03  0.12500000000E+03 0.  0.
         25    1    1    2    0    0  0.45119491632E+02 -0.20142949547E+02  0.15734912665E+01  0.13442091659E+03  0.12500000000E+03 0.  0.
</event>
<event>
 5    0  0.5572507E-005  0.2754758E+03  0.7546771E-02  0.1098186E+00
         21   -1    0    0  502  501  0.00000000000E+00  0.00000000000E+00  0.28291186623E+03  0.28291186623E+03  0.00000000000E+00 0. -1.
         21   -1    0    0  501  502 -0.00000000000E+00 -0.00000000000E+00 -0.26823525663E+03  0.26823525663E+03  0.00000000000E+00 0. -1.
         25    1    1    2    0    0 -0.10056527100E+03 -0.67921951639E+02 -0.53824443946E+02  0.18234263356E+03  0.12500000000E+03 0.  0.
         25    1    1    2    0    0  0.68913555063E+02 -0.80368981834E+02  0.50760859846E+02  0.17149319580E+03  0.12500000000E+03 0.  0.
         25    1    1    2    0    0  0.31651715940E+02  0.14829093347E+03  0.17740193707E+02  0.19731129351E+03  0.12500000000E+03 0.  0.
</event>
<event>
 5    0  0.6243069E-005  0.3902750E+03  0.7546771E-02  0.1047200E+00
         21   -1    0    0  502  501  0.00000000000E+00  0.00000000000E+00  0.58312345433E+03  0.58312345433E+03  0.00000000000E+00 0.  1.
         21   -1    0    0  501  502 -0.00000000000E+00 -0.00000000000E+00 -0.26120468633E+03  0.26120468633E+03  0.00000000000E+00 0.  1.
         25    1    1    2    0    0 -0.74585910481E+02  0.10613049390E+03 -0.21399152073E+02  0.18141020778E+03  0.12500000000E+03 0.  0.
         25    1    1    2    0    0 -0.29154676831E+02  0.88032305259E+02  0.37668693864E+03  0.40757543068E+03  0.12500000000E+03 0.  0.
         25    1    1    2    0    0  0.10374058731E+03 -0.19416279916E+03 -0.33369018568E+02  0.25534250221E+03  0.12500000000E+03 0.  0.
</event>
<event>
 5    0  0.5572507E-005  0.2545685E+03  0.7546771E-02  0.1110451E+00
         21   -1    0    0  502  501  0.00000000000E+00  0.00000000000E+00  0.75201926875E+03  0.75201926875E+03  0.00000000000E+00 0. -1.
         21   -1    0    0  501  502 -0.00000000000E+00 -0.00000000000E+00 -0.86174842420E+02  0.86174842420E+02  0.00000000000E+00 0. -1.
         25    1    1    2    0    0  0.96470309184E+02 -0.89116019518E+02  0.30403355086E+03  0.35399093991E+03  0.12500000000E+03 0.  0.
         25    1    1    2    0    0 -0.13763435366E+02  0.43396704590E+02  0.63879729826E+02  0.14757481494E+03  0.12500000000E+03 0.  0.
         25    1    1    2    0    0 -0.82706873818E+02  0.45719314928E+02  0.29793114564E+03  0.33662835632E+03  0.12500000000E+03 0.  0.
</event>
<event>
 5    0  0.5572507E-005  0.2633154E+03  0.7546771E-02  0.1105167E+00
         21   -1    0    0  502  501  0.00000000000E+00  0.00000000000E+00  0.45724776414E+03  0.45724776414E+03  0.00000000000E+00 0.  1.
         21   -1    0    0  501  502 -0.00000000000E+00 -0.00000000000E+00 -0.15163551042E+03  0.15163551042E+03  0.00000000000E+00 0.  1.
         25    1    1    2    0    0  0.26412909672E+01 -0.14042287394E+03  0.91371024117E+02  0.20904359352E+03  0.12500000000E+03 0.  0.
         25    1    1    2    0    0 -0.82525316030E+02  0.10248438752E+03  0.89595309679E+02  0.20240009137E+03  0.12500000000E+03 0.  0.
         25    1    1    2    0    0  0.79884025063E+02  0.37938486418E+02  0.12464591993E+03  0.19743958967E+03  0.12500000000E+03 0.  0.
</event>
<event>
 5    0  0.5572507E-005  0.5359428E+03  0.7546771E-02  0.1004801E+00
         21   -1    0    0  502  501  0.00000000000E+00  0.00000000000E+00  0.50198649952E+03  0.50198649952E+03  0.00000000000E+00 0. -1.
         21   -1    0    0  501  502 -0.00000000000E+00 -0.00000000000E+00 -0.57219600853E+03  0.57219600853E+03  0.00000000000E+00 0. -1.
         25    1    1    2    0    0  0.30878011896E+03  0.79196736628E+02 -0.13545371864E+02  0.34267442574E+03  0.12500000000E+03 0.  0.
         25    1    1    2    0    0  0.15681626744E+03  0.86235189122E+02 -0.37316991541E+02  0.22146197740E+03  0.12500000000E+03 0.  0.
         25    1    1    2    0    0 -0.46559638640E+03 -0.16543192575E+03 -0.19347145601E+02  0.51004610491E+03  0.12500000000E+03 0.  0.
</event>
<event>
 5    0  0.5572507E-005  0.2424554E+03  0.7546771E-02  0.1118168E+00
         21   -1    0    0  502  501  0.00000000000E+00  0.00000000000E+00  0.72260740751E+02  0.72260740751E+02  0.00000000000E+00 0. -1.
         21   -1    0    0  501  502 -0.00000000000E+00 -0.00000000000E+00 -0.81350694904E+03  0.81350694904E+03  0.00000000000E+00 0. -1.
         25    1    1    2    0    0  0.37360018936E+02  0.38772450978E+01 -0.36695817971E+03  0.38947928020E+03  0.12500000000E+03 0.  0.
         25    1    1    2    0    0 -0.11462087688E+03 -0.39279909463E+02 -0.21602850243E+03  0.27744219320E+03  0.12500000000E+03 0.  0.
         25    1    1    2    0    0  0.77260857948E+02  0.35402664365E+02 -0.15825952615E+03  0.21884621640E+03  0.12500000000E+03 0.  0.
</event>
<event>
 5    0  0.5572507E-005  0.2977761E+03  0.7546771E-02  0.1086358E+00
         21   -1    0    0  502  501  0.00000000000E+00  0.00000000000E+00  0.21010025916E+03  0.21010025916E+03  0.00000000000E+00 0.  1.
         21   -1    0    0  501  502 -0.00000000000E+00 -0.00000000000E+00 -0.42203941206E+03  0.42203941206E+03  0.00000000000E+00 0.  1.
         25    1    1    2    0    0  0.24317047565E+02 -0.39030574924E+02  0.91784829425E+02  0.16175339098E+03  0.12500000000E+03 0.  0.
         25    1    1    2    0    0  0.59024197845E+02 -0.59328463397E+02 -0.47978109992E+02  0.15789433663E+03  0.12500000000E+03 0.  0.
         25    1    1    2    0    0 -0.83341245410E+02  0.98359038321E+02 -0.25574587233E+03  0.31249194361E+03  0.12500000000E+03 0.  0.
</event>
<event>
 5    0  0.5572507E-005  0.2095073E+03  0.7546771E-02  0.1141957E+00
         21   -1    0    0  502  501  0.00000000000E+00  0.00000000000E+00  0.61163564269E+03  0.61163564269E+03  0.00000000000E+00 0.  1.
         21   -1    0    0  501  502 -0.00000000000E+00 -0.00000000000E+00 -0.71763835365E+02  0.71763835365E+02  0.00000000000E+00 0.  1.
         25    1    1    2    0    0 -0.38761122298E+02  0.17179103431E+02  0.22935317736E+03  0.26462317768E+03  0.12500000000E+03 0.  0.
         25    1    1    2    0    0 -0.38705437536E+02 -0.26895737612E+02  0.14554478886E+03  0.19755955345E+03  0.12500000000E+03 0.  0.
         25    1    1    2    0    0  0.77466559835E+02  0.97166341807E+01  0.16497384110E+03  0.22121674693E+03  0.12500000000E+03 0.  0.
</event>
<event>
 5    0  0.5572507E-005  0.3068676E+03  0.7546771E-02  0.1081857E+00
         21   -1    0    0  502  501  0.00000000000E+00  0.00000000000E+00  0.69148900011E+03  0.69148900011E+03  0.00000000000E+00 0.  1.
         21   -1    0    0  501  502 -0.00000000000E+00 -0.00000000000E+00 -0.13618108088E+03  0.13618108088E+03  0.00000000000E+00 0.  1.
         25    1    1    2    0    0  0.71352114513E+02  0.63043548189E+02  0.50645677545E+02  0.16509269477E+03  0.12500000000E+03 0.  0.
         25    1    1    2    0    0  0.97629486245E+02  0.63265801956E+02  0.29065276480E+03  0.33710251848E+03  0.12500000000E+03 0.  0.
         25    1    1    2    0    0 -0.16898160076E+03 -0.12630935014E+03  0.21400947689E+03  0.32547486773E+03  0.12500000000E+03 0.  0.
</event>
<event>
 5    0  0.5572507E-005  0.3888662E+03  0.7546771E-02  0.1047705E+00
         21   -1    0    0  502  501  0.00000000000E+00  0.00000000000E+00  0.62747775845E+03  0.62747775845E+03  0.00000000000E+00 0. -1.
         21   -1    0    0  501  502 -0.00000000000E+00 -0.00000000000E+00 -0.24099168300E+03  0.24099168300E+03  0.00000000000E+00 0. -1.
         25    1    1    2    0    0 -0.62896688963E+01  0.30609316784E+02  0.29325713772E+02  0.13214192256E+03  0.12500000000E+03 0.  0.
         25    1    1    2    0    0  0.13960261270E+03  0.29031706364E+02 -0.11828431009E+03  0.22349028494E+03  0.12500000000E+03 0.  0.
         25    1    1    2    0    0 -0.13331294380E+03 -0.59641023148E+02  0.47544467177E+03  0.51283723396E+03  0.12500000000E+03 0.  0.
</event>
<event>
 5    0  0.5572507E-005  0.2690769E+03  0.7546771E-02  0.1101809E+00
         21   -1    0    0  502  501  0.00000000000E+00  0.00000000000E+00  0.72481097469E+03  0.72481097469E+03  0.00000000000E+00 0.  1.
         21   -1    0    0  501  502 -0.00000000000E+00 -0.00000000000E+00 -0.99891407331E+02  0.99891407331E+02  0.00000000000E+00 0.  1.
         25    1    1    2    0    0  0.99923183540E+02  0.72845140576E+02  0.23098586017E+03  0.29029385924E+03  0.12500000000E+03 0.  0.
         25    1    1    2    0    0 -0.43158947393E+02 -0.11133403711E+03  0.81781915332E+02  0.19123609553E+03  0.12500000000E+03 0.  0.
         25    1    1    2    0    0 -0.56764236147E+02  0.38488896536E+02  0.31215179186E+03  0.34317242725E+03  0.12500000000E+03 0.  0.
</event>
<event>
 5    0  0.6810405E-005  0.2783179E+03  0.7546771E-02  0.1096611E+00
         21   -1    0    0  502  501  0.00000000000E+00  0.00000000000E+00  0.21028570779E+03  0.21028570779E+03  0.00000000000E+00 0.  1.
         21   -1    0    0  501  502 -0.00000000000E+00 -0.00000000000E+00 -0.36835992026E+03  0.36835992026E+03  0.00000000000E+00 0.  1.
         25    1    1    2    0    0 -0.57430149088E+02 -0.82243642791E+02 -0.45615101129E+02  0.16663725950E+03  0.12500000000E+03 0.  0.
         25    1    1    2    0    0 -0.10757635859E+03 -0.18314514826E+02 -0.39312634965E+02  0.17052441951E+03  0.12500000000E+03 0.  0.
         25    1    1    2    0    0  0.16500650768E+03  0.10055815762E+03 -0.73146476371E+02  0.24148394904E+03  0.12500000000E+03 0.  0.
</event>
<event>
 5    0  0.5572507E-005  0.7716500E+03  0.7546771E-02  0.9601984E-01
         21   -1    0    0  502  501  0.00000000000E+00  0.00000000000E+00  0.89198403293E+03  0.89198403293E+03  0.00000000000E+00 0. -1.
         21   -1    0    0  501  502 -0.00000000000E+00 -0.00000000000E+00 -0.66754968874E+03  0.66754968874E+03  0.00000000000E+00 0. -1.
         25    1    1    2    0    0  0.20660954302E+03 -0.16753827222E+03  0.22938751083E+02  0.29480122494E+03  0.12500000000E+03 0.  0.
         25    1    1    2    0    0  0.29539630966E+03  0.35325334824E+03  0.45510449599E+03  0.65938760230E+03  0.12500000000E+03 0.  0.
         25    1    1    2    0    0 -0.50200585268E+03 -0.18571507602E+03 -0.25360890288E+03  0.60534489442E+03  0.12500000000E+03 0.  0.
</event>
<event>
 5    0  0.5572507E-005  0.3086030E+03  0.7546771E-02  0.1081017E+00
         21   -1    0    0  502  501  0.00000000000E+00  0.00000000000E+00  0.15104366747E+03  0.15104366747E+03  0.00000000000E+00 0. -1.
         21   -1    0    0  501  502 -0.00000000000E+00 -0.00000000000E+00 -0.63051855373E+03  0.63051855373E+03  0.00000000000E+00 0. -1.
         25    1    1    2    0    0 -0.57254057828E+02  0.13001811487E+03 -0.25934577780E+03  0.32104200628E+03  0.12500000000E+03 0.  0.
         25    1    1    2    0    0 -0.26951942068E+02  0.12642605643E+02  0.33516168461E+02  0.13279524166E+03  0.12500000000E+03 0.  0.
         25    1    1    2    0    0  0.84205999897E+02 -0.14266072051E+03 -0.25364527691E+03  0.32772497326E+03  0.12500000000E+03 0.  0.
</event>
<event>
 5    0  0.5572507E-005  0.2803912E+03  0.7546771E-02  0.1095475E+00
         21   -1    0    0  502  501  0.00000000000E+00  0.00000000000E+00  0.88307739199E+02  0.88307739199E+02  0.00000000000E+00 0. -1.
         21   -1    0    0  501  502 -0.00000000000E+00 -0.00000000000E+00 -0.89028674524E+03  0.89028674524E+03  0.00000000000E+00 0. -1.
         25    1    1    2    0    0  0.59213852324E+02  0.58541762399E+02 -0.83252694637E+02  0.17172486546E+03  0.12500000000E+03 0.  0.
         25    1    1    2    0    0  0.34769400890E+02 -0.11039806936E+03 -0.52814697846E+03  0.55494222746E+03  0.12500000000E+03 0.  0.
         25    1    1    2    0    0 -0.93983253214E+02  0.51856306960E+02 -0.19057933294E+03  0.25192739153E+03  0.12500000000E+03 0.  0.
</event>
<event>
 5    0  0.5572507E-005  0.3619329E+03  0.7546771E-02  0.1057821E+00
         21   -1    0    0  502  501  0.00000000000E+00  0.00000000000E+00  0.47161109551E+02  0.47161109551E+02  0.00000000000E+00 0. -1.
         21   -1    0    0  501  502 -0.00000000000E+00 -0.00000000000E+00 -0.27776154468E+04  0.27776154468E+04  0.00000000000E+00 0. -1.
         25    1    1    2    0    0 -0.87445066117E+02 -0.20046511608E+02 -0.17775944539E+03  0.23509981421E+03  0.12500000000E+03 0.  0.
         25    1    1    2    0    0  0.84428491217E+01  0.17493188891E+03 -0.15067778223E+04  0.15220633539E+04  0.12500000000E+03 0.  0.
         25    1    1    2    0    0  0.79002216995E+02 -0.15488537731E+03 -0.10459170695E+04  0.10676133882E+04  0.12500000000E+03 0.  0.
</event>
<event>
 5    0  0.6146202E-005  0.7030719E+03  0.7546771E-02  0.9711993E-01
         21   -1    0    0  502  501  0.00000000000E+00  0.00000000000E+00  0.68943654680E+03  0.68943654680E+03  0.00000000000E+00 0.  1.
         21   -1    0    0  501  502 -0.00000000000E+00 -0.00000000000E+00 -0.71697696165E+03  0.71697696165E+03  0.00000000000E+00 0.  1.
         25    1    1    2    0    0  0.39086942174E+03 -0.29416485287E+03 -0.20261420514E+03  0.54404906180E+03  0.12500000000E+03 0.  0.
         25    1    1    2    0    0 -0.15003627778E+03  0.23239501761E+03  0.40168775199E+03  0.50348423904E+03  0.12500000000E+03 0.  0.
         25    1    1    2    0    0 -0.24083314396E+03  0.61769835262E+02 -0.22661396170E+03  0.35888020761E+03  0.12500000000E+03 0.  0.
</event>
<event>
 5    0  0.5572507E-005  0.2577128E+03  0.7546771E-02  0.1108525E+00
         21   -1    0    0  502  501  0.00000000000E+00  0.00000000000E+00  0.13948443532E+03  0.13948443532E+03  0.00000000000E+00 0. -1.
         21   -1    0    0  501  502 -0.00000000000E+00 -0.00000000000E+00 -0.47615250350E+03  0.47615250350E+03  0.00000000000E+00 0. -1.
         25    1    1    2    0    0 -0.60374711946E+02 -0.41179561201E+01 -0.63153829308E+02  0.15256300194E+03  0.12500000000E+03 0.  0.
         25    1    1    2    0    0 -0.69534242650E+02 -0.88171769685E+02 -0.15390025784E+03  0.22785864309E+03  0.12500000000E+03 0.  0.
         25    1    1    2    0    0  0.12990895460E+03  0.92289725805E+02 -0.11961398104E+03  0.23521529379E+03  0.12500000000E+03 0.  0.
</event>
<event>
 5    0  0.5572507E-005  0.2309032E+03  0.7546771E-02  0.1126006E+00
         21   -1    0    0  502  501  0.00000000000E+00  0.00000000000E+00  0.12485832404E+03  0.12485832404E+03  0.00000000000E+00 0.  1.
         21   -1    0    0  501  502 -0.00000000000E+00 -0.00000000000E+00 -0.42701438888E+03  0.42701438888E+03  0.00000000000E+00 0.  1.
         25    1    1    2    0    0  0.30447584713E+02  0.20656126557E+02  0.11054477359E+02  0.13077053357E+03  0.12500000000E+03 0.  0.
         25    1    1    2    0    0  0.13995841723E+02  0.15942558368E+02 -0.22308210444E+03  0.25659437655E+03  0.12500000000E+03 0.  0.
         25    1    1    2    0    0 -0.44443426436E+02 -0.36598684925E+02 -0.90128437760E+02  0.16450780281E+03  0.12500000000E+03 0.  0.
</event>
<event>
 5    0  0.5572507E-005  0.2354005E+03  0.7546771E-02  0.1122895E+00
         21   -1    0    0  502  501  0.00000000000E+00  0.00000000000E+00  0.90203210987E+02  0.90203210987E+02  0.00000000000E+00 0. -1.
         21   -1    0    0  501  502 -0.00000000000E+00 -0.00000000000E+00 -0.61431736523E+03  0.61431736523E+03  0.00000000000E+00 0. -1.
         25    1    1    2    0    0 -0.67911822126E+02  0.46477978332E+00 -0.12861872194E+03  0.19178114412E+03  0.12500000000E+03 0.  0.
         25    1    1    2    0    0 -0.34190467373E+02  0.61430167400E+02 -0.24331640409E+03  0.28243676465E+03  0.12500000000E+03 0.  0.
         25    1    1    2    0    0  0.10210228950E+03 -0.61894947184E+02 -0.15217902821E+03  0.23030266745E+03  0.12500000000E+03 0.  0.
</event>
<event>
 5    0  0.5572507E-005  0.3072726E+03  0.7546771E-02  0.1081661E+00
         21   -1    0    0  502  501  0.00000000000E+00  0.00000000000E+00  0.76917944027E+03  0.76917944027E+03  0.00000000000E+00 0. -1.
         21   -1    0    0  501  502 -0.00000000000E+00 -0.00000000000E+00 -0.12274956528E+03  0.12274956528E+03  0.00000000000E+00 0. -1.
         25    1    1    2    0    0  0.35181661936E+02  0.50716460659E+02  0.13367644119E+03  0.19314321020E+03  0.12500000000E+03 0.  0.
         25    1    1    2    0    0  0.87802401180E+02  0.13657470341E+03  0.14771081682E+03  0.25259730139E+03  0.12500000000E+03 0.  0.
         25    1    1    2    0    0 -0.12298406312E+03 -0.18729116407E+03  0.36504261699E+03  0.44618849396E+03  0.12500000000E+03 0.  0.
</event>
<event>
 5    0  0.5572507E-005  0.2546013E+03  0.7546771E-02  0.1110431E+00
         21   -1    0    0  502  501  0.00000000000E+00  0.00000000000E+00  0.16015955323E+04  0.16015955323E+04  0.00000000000E+00 0.  1.
         21   -1    0    0  501  502 -0.00000000000E+00 -0.00000000000E+00 -0.40473274091E+02  0.40473274091E+02  0.00000000000E+00 0.  1.
         25    1    1    2    0    0  0.65604255637E+02 -0.64435804287E+02  0.26233775366E+03  0.30479827464E+03  0.12500000000E+03 0.  0.
         25    1    1    2    0    0 -0.23504436728E+02 -0.51805163665E+02  0.45093497560E+03  0.47138475341E+03  0.12500000000E+03 0.  0.
         25    1    1    2    0    0 -0.42099818909E+02  0.11624096795E+03  0.84784952894E+03  0.86588577833E+03  0.12500000000E+03 0.  0.
</event>
<event>
 5    0  0.5572507E-005  0.3183012E+03  0.7546771E-02  0.1076434E+00
         21   -1    0    0  502  501  0.00000000000E+00  0.00000000000E+00  0.54127956306E+03  0.54127956306E+03  0.00000000000E+00 0. -1.
         21   -1    0    0  501  502 -0.00000000000E+00 -0.00000000000E+00 -0.18717807454E+03  0.18717807454E+03  0.00000000000E+00 0. -1.
         25    1    1    2    0    0  0.17698472358E+03  0.14954875773E+03  0.21648528068E+03  0.34085084725E+03  0.12500000000E+03 0.  0.
         25    1    1    2    0    0 -0.15457583275E+03 -0.69141126156E+02  0.97969631939E+02  0.23215777432E+03  0.12500000000E+03 0.  0.
         25    1    1    2    0    0 -0.22408890823E+02 -0.80407631571E+02  0.39646575894E+02  0.15544901602E+03  0.12500000000E+03 0.  0.
</event>
<event>
 5    0  0.5572507E-005  0.4746186E+03  0.7546771E-02  0.1020625E+00
         21   -1    0    0  502  501  0.00000000000E+00  0.00000000000E+00  0.10528523375E+04  0.10528523375E+04  0.00000000000E+00 0.  1.
         21   -1    0    0  501  502 -0.00000000000E+00 -0.00000000000E+00 -0.21395483263E+03  0.21395483263E+03  0.00000000000E+00 0.  1.
         25    1    1    2    0    0 -0.10129210124E+03  0.14871351244E+03  0.43520002050E+03  0.48723696124E+03  0.12500000000E+03 0.  0.
         25    1    1    2    0    0  0.12165269199E+03  0.15669770530E+03  0.38201072964E+03  0.44823068377E+03  0.12500000000E+03 0.  0.
         25    1    1    2    0    0 -0.20360590749E+02 -0.30541121774E+03  0.21686754728E+02  0.33133952512E+03  0.12500000000E+03 0.  0.
</event>
<event>
 5    0  0.5572507E-005  0.2351998E+03  0.7546771E-02  0.1123033E+00
         21   -1    0    0  502  501  0.00000000000E+00  0.00000000000E+00  0.14232655621E+04  0.14232655621E+04  0.00000000000E+00 0. -1.
         21   -1    0    0  501  502 -0.00000000000E+00 -0.00000000000E+00 -0.38867619744E+02  0.38867619744E+02  0.00000000000E+00 0. -1.
         25    1    1    2    0    0  0.83026552470E+02  0.61385319354E+02  0.63489115970E+03  0.65526586247E+03  0.12500000000E+03 0.  0.
         25    1    1    2    0    0  0.15958215819E+02  0.36340959329E+01  0.29331269729E+03  0.31925727823E+03  0.12500000000E+03 0.  0.
         25    1    1    2    0    0 -0.98984768290E+02 -0.65019415287E+02  0.45619408541E+03  0.48761004120E+03  0.12500000000E+03 0.  0.
</event>
<event>
 5    0  0.5572507E-005  0.2315867E+03  0.7546771E-02  0.1125528E+00
         21   -1    0    0  502  501  0.00000000000E+00  0.00000000000E+00  0.18477336735E+03  0.18477336735E+03  0.00000000000E+00 0.  1.
         21   -1    0    0  501  502 -0.00000000000E+00 -0.00000000000E+00 -0.29026046052E+03  0.29026046052E+03  0.00000000000E+00 0.  1.
         25    1    1    2    0    0  0.15934765703E+02  0.11321073017E+02  0.19194032278E+02  0.12796677040E+03  0.12500000000E+03 0.  0.
         25    1    1    2    0    0 -0.42119739146E+02  0.64417815769E+02  0.92767740464E+01  0.14708768117E+03  0.12500000000E+03 0.  0.
         25    1    1    2    0    0  0.26184973443E+02 -0.75738888786E+02 -0.13395789949E+03  0.19997937630E+03  0.12500000000E+03 0.  0.
</event>
<event>
 5    0  0.5572507E-005  0.2543953E+03  0.7546771E-02  0.1110558E+00
         21   -1    0    0  502  501  0.00000000000E+00  0.00000000000E+00  0.70864902877E+03  0.70864902877E+03  0.00000000000E+00 0.  1.
         21   -1    0    0  501  502 -0.00000000000E+00 -0.00000000000E+00 -0.91324397470E+02  0.91324397470E+02  0.00000000000E+00 0.  1.
         25    1    1    2    0    0 -0.21876467356E+02  0.13573550291E+02  0.44365013888E+02  0.13511504560E+03  0.12500000000E+03 0.  0.
         25    1    1    2    0    0  0.97802207140E+02 -0.58618498927E+02  0.39767419051E+03  0.43217029275E+03  0.12500000000E+03 0.  0.
         25    1    1    2    0    0 -0.75925739784E+02  0.45044948637E+02  0.17528542690E+03  0.23268808788E+03  0.12500000000E+03 0.  0.
</event>
<event>
 5    0  0.5572507E-005  0.3515091E+03  0.7546771E-02  0.1061997E+00
         21   -1    0    0  502  501  0.00000000000E+00  0.00000000000E+00  0.12833730673E+04  0.12833730673E+04  0.00000000000E+00 0.  1.
         21   -1    0    0  501  502 -0.00000000000E+00 -0.00000000000E+00 -0.96276460334E+02  0.96276460334E+02  0.00000000000E+00 0.  1.
         25    1    1    2    0    0  0.21023267273E+03 -0.51589267702E+02  0.72634957704E+03  0.76815879692E+03  0.12500000000E+03 0.  0.
         25    1    1    2    0    0 -0.21450627191E+03 -0.45556006468E+01  0.20784113222E+03  0.32381573530E+03  0.12500000000E+03 0.  0.
         25    1    1    2    0    0  0.42735991812E+01  0.56144868349E+02  0.25290589774E+03  0.28767499544E+03  0.12500000000E+03 0.  0.
</event>
<event>
 5    0  0.5572507E-005  0.4039397E+03  0.7546771E-02  0.1042424E+00
         21   -1    0    0  502  501  0.00000000000E+00  0.00000000000E+00  0.84339074001E+02  0.84339074001E+02  0.00000000000E+00 0. -1.
         21   -1    0    0  501  502 -0.00000000000E+00 -0.00000000000E+00 -0.19346586502E+04  0.19346586502E+04  0.00000000000E+00 0. -1.
         25    1    1    2    0    0 -0.12943738800E+03 -0.43062038908E+02 -0.58037140063E+03  0.60915050626E+03  0.12500000000E+03 0.  0.
         25    1    1    2    0    0  0.38199046664E+02  0.28879758056E+03 -0.57352958401E+03  0.65530480956E+03  0.12500000000E+03 0.  0.
         25    1    1    2    0    0  0.91238341334E+02 -0.24573554166E+03 -0.69641859153E+03  0.75454240835E+03  0.12500000000E+03 0.  0.
</event>
<event>
 5    0  0.5572507E-005  0.2211994E+03  0.7546771E-02  0.1132992E+00
         21   -1    0    0  502  501  0.00000000000E+00  0.00000000000E+00  0.17794323622E+03  0.17794323622E+03  0.00000000000E+00 0. -1.
         21   -1    0    0  501  502 -0.00000000000E+00 -0.00000000000E+00 -0.27497061902E+03  0.27497061902E+03  0.00000000000E+00 0. -1.
         25    1    1    2    0    0 -0.17095385185E+02  0.16842631430E+02 -0.97776237292E+02  0.16050270716E+03  0.12500000000E+03 0.  0.
         25    1    1    2    0    0 -0.53211055324E+02  0.32799287178E+02  0.11738344461E+02  0.14024977140E+03  0.12500000000E+03 0.  0.
         25    1    1    2    0    0  0.70306440509E+02 -0.49641918607E+02 -0.10989489971E+02  0.15216137667E+03  0.12500000000E+03 0.  0.
</event>
<event>
 5    0  0.5572507E-005  0.2484186E+03  0.7546771E-02  0.1114308E+00
         21   -1    0    0  502  501  0.00000000000E+00  0.00000000000E+00  0.25263463411E+03  0.25263463411E+03  0.00000000000E+00 0.  1.
         21   -1    0    0  501  502 -0.00000000000E+00 -0.00000000000E+00 -0.24427292229E+03  0.24427292229E+03  0.00000000000E+00 0.  1.
         25    1    1    2    0    0 -0.29126005974E+02  0.29151853654E+01  0.25843914544E+02  0.13095697938E+03  0.12500000000E+03 0.  0.
         25    1    1    2    0    0  0.76033459848E+02  0.61500021246E+02 -0.10826851634E+03  0.19212082464E+03  0.12500000000E+03 0.  0.
         25    1    1    2    0    0 -0.46907453874E+02 -0.64415206611E+02  0.90786313611E+02  0.17382975238E+03  0.12500000000E+03 0.  0.
</event>
<event>
 5    0  0.5572507E-005  0.7763660E+03  0.7546771E-02  0.9594871E-01
         21   -1    0    0  502  501  0.00000000000E+00  0.00000000000E+00  0.10688583226E+04  0.10688583226E+04  0.00000000000E+00 0. -1.
         21   -1    0    0  501  502 -0.00000000000E+00 -0.00000000000E+00 -0.56391405889E+03  0.56391405889E+03  0.00000000000E+00 0. -1.
         25    1    1    2    0    0 -0.23279535758E+03  0.39785960992E+02  0.49895537082E+02  0.27182929537E+03  0.12500000000E+03 0.  0.
         25    1    1    2    0    0  0.45849732382E+03  0.48818132392E+03  0.14510591268E+03  0.69657844272E+03  0.12500000000E+03 0.  0.
         25    1    1    2    0    0 -0.22570196624E+03 -0.52796728491E+03  0.30994281396E+03  0.66436464342E+03  0.12500000000E+03 0.  0.
</event>
<event>
 5    0  0.5572507E-005  0.3317471E+03  0.7546771E-02  0.1070366E+00
         21   -1    0    0  502  501  0.00000000000E+00  0.00000000000E+00  0.17123408525E+03  0.17123408525E+03  0.00000000000E+00 0.  1.
         21   -1    0    0  501  502 -0.00000000000E+00 -0.00000000000E+00 -0.64272326290E+03  0.64272326290E+03  0.00000000000E+00 0.  1.
         25    1    1    2    0    0  0.18094846560E+03  0.47719335951E+02 -0.11004490818E+03  0.25050821153E+03  0.12500000000E+03 0.  0.
         25    1    1    2    0    0 -0.18109491091E+03  0.33515363235E+02 -0.34888832671E+03  0.41384382422E+03  0.12500000000E+03 0.  0.
         25    1    1    2    0    0  0.14644530307E+00 -0.81234699185E+02 -0.12555942750E+02  0.14960531239E+03  0.12500000000E+03 0.  0.
</event>
<event>
 5    0  0.6278883E-005  0.4590677E+03  0.7546771E-02  0.1025052E+00
         21   -1    0    0  502  501  0.00000000000E+00  0.00000000000E+00  0.27215811920E+03  0.27215811920E+03  0.00000000000E+00 0.  1.
         21   -1    0    0  501  502 -0.00000000000E+00 -0.00000000000E+00 -0.77434071274E+03  0.77434071274E+03  0.00000000000E+00 0.  1.
         25    1    1    2    0    0  0.85635450181E+02  0.19237314621E+02  0.16170184327E+03  0.22243199122E+03  0.12500000000E+03 0.  0.
         25    1    1    2    0    0 -0.24049881518E+03 -0.54284638765E+02 -0.46225799976E+03  0.53860371374E+03  0.12500000000E+03 0.  0.
         25    1    1    2    0    0  0.15486336500E+03  0.35047324144E+02 -0.20162643705E+03  0.28546312698E+03  0.12500000000E+03 0.  0.
</event>
<event>
 5    0  0.5572507E-005  0.3181458E+03  0.7546771E-02  0.1076506E+00
         21   -1    0    0  502  501  0.00000000000E+00  0.00000000000E+00  0.57476665560E+03  0.57476665560E+03  0.00000000000E+00 0. -1.
         21   -1    0    0  501  502 -0.00000000000E+00 -0.00000000000E+00 -0.17610057801E+03  0.17610057801E+03  0.00000000000E+00 0. -1.
         25    1    1    2    0    0 -0.91398845822E+02  0.11796749425E+02  0.12488128491E+03  0.19928182967E+03  0.12500000000E+03 0.  0.
         25    1    1    2    0    0 -0.13861771051E+03 -0.33181419775E+02  0.20674145677E+03  0.28050473477E+03  0.12500000000E+03 0.  0.
         25    1    1    2    0    0  0.23001655633E+03  0.21384670350E+02  0.67043335915E+02  0.27108066918E+03  0.12500000000E+03 0.  0.
</event>
<event>
 5    0  0.5585323E-005  0.3121819E+03  0.7546771E-02  0.1079305E+00
         21   -1    0    0  502  501  0.00000000000E+00  0.00000000000E+00  0.67070309947E+03  0.67070309947E+03  0.00000000000E+00 0. -1.
         21   -1    0    0  501  502 -0.00000000000E+00 -0.00000000000E+00 -0.14530651418E+03  0.14530651418E+03  0.00000000000E+00 0. -1.
         25    1    1    2    0    0 -0.57022801894E+02  0.10651693647E+03  0.15866784663E+03  0.23536767672E+03  0.12500000000E+03 0.  0.
         25    1    1    2    0    0 -0.54182471564E+02 -0.28218878248E+02  0.37062522158E+03  0.39587889586E+03  0.12500000000E+03 0.  0.
         25    1    1    2    0    0  0.11120527346E+03 -0.78298058224E+02 -0.38964829163E+01  0.18476304107E+03  0.12500000000E+03 0.  0.
</event>
<event>
 5    0  0.5572507E-005  0.2593850E+03  0.7546771E-02  0.1107513E+00
         21   -1    0    0  502  501  0.00000000000E+00  0.00000000000E+00  0.35233547362E+02  0.35233547362E+02  0.00000000000E+00 0.  1.
         21   -1    0    0  501  502 -0.00000000000E+00 -0.00000000000E+00 -0.19095597237E+04  0.19095597237E+04  0.00000000000E+00 0.  1.
         25    1    1    2    0    0 -0.35557163821E+02  0.37194631575E+02 -0.67367792809E+03  0.68710603498E+03  0.12500000000E+03 0.  0.
         25    1    1    2    0    0 -0.30125066712E+02  0.98823652011E+02 -0.73072450942E+03  0.74850313460E+03  0.12500000000E+03 0.  0.
         25    1    1    2    0    0  0.65682230534E+02 -0.13601828359E+03 -0.46992373879E+03  0.50918410144E+03  0.12500000000E+03 0.  0.
</event>
<event>
 5    0  0.5572507E-005  0.3131540E+03  0.7546771E-02  0.1078844E+00
         21   -1    0    0  502  501  0.00000000000E+00  0.00000000000E+00  0.16971053029E+04  0.16971053029E+04  0.00000000000E+00 0. -1.
         21   -1    0    0  501  502 -0.00000000000E+00 -0.00000000000E+00 -0.57783955574E+02  0.57783955574E+02  0.00000000000E+00 0. -1.
         25    1    1    2    0    0  0.24927761730E+02  0.87557278479E+02  0.66996981328E+03  0.68758433739E+03  0.12500000000E+03 0.  0.
         25    1    1    2    0    0 -0.17797416034E+03 -0.10741029154E+03  0.44880499702E+03  0.51015948274E+03  0.12500000000E+03 0.  0.
         25    1    1    2    0    0  0.15304639861E+03  0.19853013062E+02  0.52054653704E+03  0.55714543835E+03  0.12500000000E+03 0.  0.
</event>
<event>
 5    0  0.5572507E-005  0.3422490E+03  0.7546771E-02  0.1065842E+00
         21   -1    0    0  502  501  0.00000000000E+00  0.00000000000E+00  0.50029974787E+03  0.50029974787E+03  0.00000000000E+00 0. -1.
         21   -1    0    0  501  502 -0.00000000000E+00 -0.00000000000E+00 -0.23412842890E+03  0.23412842890E+03  0.00000000000E+00 0. -1.
         25    1    1    2    0    0 -0.12078198136E+03  0.42103973295E+02  0.34903298124E+03  0.39218624859E+03  0.12500000000E+03 0.  0.
         25    1    1    2    0    0  0.10527803061E+03 -0.10181148693E+03 -0.43511637593E+02  0.19740138096E+03  0.12500000000E+03 0.  0.
         25    1    1    2    0    0  0.15503950754E+02  0.59707513639E+02 -0.39350024677E+02  0.14484054721E+03  0.12500000000E+03 0.  0.
</event>
<event>
 5    0  0.5572507E-005  0.3339406E+03  0.7546771E-02  0.1069406E+00
         21   -1    0    0  502  501  0.00000000000E+00  0.00000000000E+00  0.14201224018E+03  0.14201224018E+03  0.00000000000E+00 0. -1.
         21   -1    0    0  501  502 -0.00000000000E+00 -0.00000000000E+00 -0.78525876847E+03  0.78525876847E+03  0.00000000000E+00 0. -1.
         25    1    1    2    0    0  0.10680548078E+03 -0.93735056358E+02 -0.30657784013E+03  0.36028966621E+03  0.12500000000E+03 0.  0.
         25    1    1    2    0    0 -0.27172898103E+01 -0.12226156823E+03 -0.19426425435E+03  0.26137879647E+03  0.12500000000E+03 0.  0.
         25    1    1    2    0    0 -0.10408819097E+03  0.21599662459E+03 -0.14240443381E+03  0.30560254597E+03  0.12500000000E+03 0.  0.
</event>
<event>
 5    0  0.5572507E-005  0.4466542E+03  0.7546771E-02  0.1028725E+00
         21   -1    0    0  502  501  0.00000000000E+00  0.00000000000E+00  0.21955922345E+03  0.21955922345E+03  0.00000000000E+00 0.  1.
         21   -1    0    0  501  502 -0.00000000000E+00 -0.00000000000E+00 -0.90863864410E+03  0.90863864410E+03  0.00000000000E+00 0.  1.
         25    1    1    2    0    0 -0.13958813056E+03 -0.10767790836E+03 -0.73146723303E+02  0.22815525695E+03  0.12500000000E+03 0.  0.
         25    1    1    2    0    0  0.15877272747E+03  0.33652652102E+03 -0.40596994473E+03  0.56470830910E+03  0.12500000000E+03 0.  0.
         25    1    1    2    0    0 -0.19184596905E+02 -0.22884861267E+03 -0.20996275262E+03  0.33533430150E+03  0.12500000000E+03 0.  0.
</event>
<event>
 5    0  0.5572507E-005  0.3032312E+03  0.7546771E-02  0.1083636E+00
         21   -1    0    0  502  501  0.00000000000E+00  0.00000000000E+00  0.76591356635E+03  0.76591356635E+03  0.00000000000E+00 0.  1.
         21   -1    0    0  501  502 -0.00000000000E+00 -0.00000000000E+00 -0.12005164377E+03  0.12005164377E+03  0.00000000000E+00 0.  1.
         25    1    1    2    0    0  0.69197478421E+02  0.84886983301E+02  0.91349899483E+02  0.18964149095E+03  0.12500000000E+03 0.  0.
         25    1    1    2    0    0 -0.18410394257E+03 -0.11149900446E+03  0.34295035202E+03  0.42375256178E+03  0.12500000000E+03 0.  0.
         25    1    1    2    0    0  0.11490646415E+03  0.26612021156E+02  0.21156167107E+03  0.27257115739E+03  0.12500000000E+03 0.  0.
</event>
<event>
 5    0  0.5572507E-005  0.2548021E+03  0.7546771E-02  0.1110307E+00
         21   -1    0    0  502  501  0.00000000000E+00  0.00000000000E+00  0.60038435044E+03  0.60038435044E+03  0.00000000000E+00 0.  1.
         21   -1    0    0  501  502 -0.00000000000E+00 -0.00000000000E+00 -0.10813761350E+03  0.10813761350E+03  0.00000000000E+00 0.  1.
         25    1    1    2    0    0  0.56999505774E+02  0.13842095249E+02  0.98770767985E+02  0.16976811205E+03  0.12500000000E+03 0.  0.
         25    1    1    2    0    0 -0.57231880285E+01 -0.13276377466E+01  0.38270017521E+03  0.40263996524E+03  0.12500000000E+03 0.  0.
         25    1    1    2    0    0 -0.51276317745E+02 -0.12514457503E+02  0.10775793740E+02  0.13611388665E+03  0.12500000000E+03 0.  0.
</event>
<event>
 5    0  0.5572507E-005  0.4514411E+03  0.7546771E-02  0.1027293E+00
         21   -1    0    0  502  501  0.00000000000E+00  0.00000000000E+00  0.16418099648E+03  0.16418099648E+03  0.00000000000E+00 0. -1.
         21   -1    0    0  501  502 -0.00000000000E+00 -0.00000000000E+00 -0.12413072268E+04  0.12413072268E+04  0.00000000000E+00 0. -1.
         25    1    1    2    0    0  0.19163547567E+03 -0.28076094616E+03 -0.25693612602E+03  0.44406310056E+03  0.12500000000E+03 0.  0.
         25    1    1    2    0    0  0.17565909819E+02  0.96720326928E+02 -0.12552115728E+03  0.20259304962E+03  0.12500000000E+03 0.  0.
         25    1    1    2    0    0 -0.20920138549E+03  0.18404061923E+03 -0.69466894699E+03  0.75883207308E+03  0.12500000000E+03 0.  0.
</event>
<event>
 5    0  0.5572507E-005  0.2936773E+03  0.7546771E-02  0.1088445E+00
         21   -1    0    0  502  501  0.00000000000E+00  0.00000000000E+00  0.82331397388E+02  0.82331397388E+02  0.00000000000E+00 0.  1.
         21   -1    0    0  501  502 -0.00000000000E+00 -0.00000000000E+00 -0.10475512837E+04  0.10475512837E+04  0.00000000000E+00 0.  1.
         25    1    1    2    0    0 -0.63483072940E+02  0.13904741345E+03 -0.14544244943E+03  0.24524026960E+03  0.12500000000E+03 0.  0.
         25    1    1    2    0    0  0.10669750785E+03 -0.49313203554E+02 -0.38857149892E+03  0.42476930209E+03  0.12500000000E+03 0.  0.
         25    1    1    2    0    0 -0.43214434913E+02 -0.89734209895E+02 -0.43120593793E+03  0.45987310936E+03  0.12500000000E+03 0.  0.
</event>
<event>
 5    0  0.5572507E-005  0.2889829E+03  0.7546771E-02  0.1090881E+00
         21   -1    0    0  502  501  0.00000000000E+00  0.00000000000E+00  0.16555664630E+03  0.16555664630E+03  0.00000000000E+00 0. -1.
         21   -1    0    0  501  502 -0.00000000000E+00 -0.00000000000E+00 -0.50442618708E+03  0.50442618708E+03  0.00000000000E+00 0. -1.
         25    1    1    2    0    0 -0.57894359308E+02  0.70379120799E+02 -0.45119478222E+02  0.16113889909E+03  0.12500000000E+03 0.  0.
         25    1    1    2    0    0  0.13858610901E+03  0.61233828372E+02 -0.22492759412E+03  0.29861867648E+03  0.12500000000E+03 0.  0.
         25    1    1    2    0    0 -0.80691749704E+02 -0.13161294917E+03 -0.68822468442E+02  0.21022525781E+03  0.12500000000E+03 0.  0.
</event>
<event>
 5    0  0.5572507E-005  0.2308018E+03  0.7546771E-02  0.1126077E+00
         21   -1    0    0  502  501  0.00000000000E+00  0.00000000000E+00  0.30439450857E+02  0.30439450857E+02  0.00000000000E+00 0. -1.
         21   -1    0    0  501  502 -0.00000000000E+00 -0.00000000000E+00 -0.17500146513E+04  0.17500146513E+04  0.00000000000E+00 0. -1.
         25    1    1    2    0    0 -0.67668338936E+02  0.76490067638E+02 -0.41003150912E+03  0.44065924819E+03  0.12500000000E+03 0.  0.
         25    1    1    2    0    0  0.11386098919E+01 -0.53096340527E+02 -0.74601745269E+03  0.75827934003E+03  0.12500000000E+03 0.  0.
         25    1    1    2    0    0  0.66529729044E+02 -0.23393727111E+02 -0.56352623862E+03  0.58151551392E+03  0.12500000000E+03 0.  0.
</event>
<event>
 5    0  0.5572507E-005  0.2383940E+03  0.7546771E-02  0.1120867E+00
         21   -1    0    0  502  501  0.00000000000E+00  0.00000000000E+00  0.24107370560E+04  0.24107370560E+04  0.00000000000E+00 0.  1.
         21   -1    0    0  501  502 -0.00000000000E+00 -0.00000000000E+00 -0.23574417445E+02  0.23574417445E+02  0.00000000000E+00 0.  1.
         25    1    1    2    0    0  0.28319093016E+02 -0.38475998981E+02  0.14943246654E+04  0.15003044955E+04  0.12500000000E+03 0.  0.
         25    1    1    2    0    0  0.20015455197E+02  0.82391124592E+01  0.55474339227E+03  0.56906390915E+03  0.12500000000E+03 0.  0.
         25    1    1    2    0    0 -0.48334548213E+02  0.30236886522E+02  0.33809458082E+03  0.36494306876E+03  0.12500000000E+03 0.  0.
</event>
<event>
 5    0  0.5672856E-005  0.2786333E+03  0.7546771E-02  0.1096438E+00
         21   -1    0    0  502  501  0.00000000000E+00  0.00000000000E+00  0.63710069811E+03  0.63710069811E+03  0.00000000000E+00 0.  1.
         21   -1    0    0  501  502 -0.00000000000E+00 -0.00000000000E+00 -0.12185914044E+03  0.12185914044E+03  0.00000000000E+00 0.  1.
         25    1    1    2    0    0 -0.52880716519E+01 -0.61864656788E+02 -0.22912577671E+02  0.14143968919E+03  0.12500000000E+03 0.  0.
         25    1    1    2    0    0 -0.46312735018E+02  0.89936961860E+02  0.23950715354E+03  0.28848258723E+03  0.12500000000E+03 0.  0.
         25    1    1    2    0    0  0.51600806670E+02 -0.28072305071E+02  0.29864698180E+03  0.32903756214E+03  0.12500000000E+03 0.  0.
</event>
<event>
 5    0  0.5572507E-005  0.2236822E+03  0.7546771E-02  0.1131167E+00
         21   -1    0    0  502  501  0.00000000000E+00  0.00000000000E+00  0.59642545365E+03  0.59642545365E+03  0.00000000000E+00 0.  1.
         21   -1    0    0  501  502 -0.00000000000E+00 -0.00000000000E+00 -0.83889344157E+02  0.83889344157E+02  0.00000000000E+00 0.  1.
         25    1    1    2    0    0  0.80360246167E+02  0.10588655266E+02  0.24052048724E+03  0.28292223944E+03  0.12500000000E+03 0.  0.
         25    1    1    2    0    0 -0.31508277547E+02  0.38521703497E+02  0.75098545794E+02  0.15408272056E+03  0.12500000000E+03 0.  0.
         25    1    1    2    0    0 -0.48851968620E+02 -0.49110358763E+02  0.19691707646E+03  0.24330983781E+03  0.12500000000E+03 0.  0.
</event>
<event>
 5    0  0.5572507E-005  0.4256853E+03  0.7546771E-02  0.1035232E+00
         21   -1    0    0  502  501  0.00000000000E+00  0.00000000000E+00  0.39361416105E+03  0.39361416105E+03  0.00000000000E+00 0.  1.
         21   -1    0    0  501  502 -0.00000000000E+00 -0.00000000000E+00 -0.46036947633E+03  0.46036947633E+03  0.00000000000E+00 0.  1.
         25    1    1    2    0    0  0.33999377846E+03 -0.97390699857E+01  0.95667424704E+02  0.37479044148E+03  0.12500000000E+03 0.  0.
         25    1    1    2    0    0 -0.72735759638E+02 -0.13945004505E+02 -0.10084681919E+03  0.17686162620E+03  0.12500000000E+03 0.  0.
         25    1    1    2    0    0 -0.26725801882E+03  0.23684074491E+02 -0.61575920789E+02  0.30233156969E+03  0.12500000000E+03 0.  0.
</event>
<event>
 5    0  0.5572507E-005  0.4196772E+03  0.7546771E-02  0.1037171E+00
         21   -1    0    0  502  501  0.00000000000E+00  0.00000000000E+00  0.15023229395E+03  0.15023229395E+03  0.00000000000E+00 0. -1.
         21   -1    0    0  501  502 -0.00000000000E+00 -0.00000000000E+00 -0.11723775246E+04  0.11723775246E+04  0.00000000000E+00 0. -1.
         25    1    1    2    0    0 -0.76427660985E+02  0.20362010799E+03 -0.69529301895E+03  0.73916149652E+03  0.12500000000E+03 0.  0.
         25    1    1    2    0    0  0.14936552573E+03  0.38569883039E+02 -0.10547806471E+03  0.22482953162E+03  0.12500000000E+03 0.  0.
         25    1    1    2    0    0 -0.72937864748E+02 -0.24218999103E+03 -0.22137414694E+03  0.35861879036E+03  0.12500000000E+03 0.  0.
</event>
<event>
 5    0  0.5572507E-005  0.2739297E+03  0.7546771E-02  0.1099051E+00
         21   -1    0    0  502  501  0.00000000000E+00  0.00000000000E+00  0.23299328374E+03  0.23299328374E+03  0.00000000000E+00 0.  1.
         21   -1    0    0  501  502 -0.00000000000E+00 -0.00000000000E+00 -0.32205844646E+03  0.32205844646E+03  0.00000000000E+00 0.  1.
         25    1    1    2    0    0  0.56814903614E+02  0.46138323952E+02 -0.43135119788E+02  0.15113674857E+03  0.12500000000E+03 0.  0.
         25    1    1    2    0    0 -0.35038699149E+02 -0.12662874113E+03 -0.13782823891E+03  0.22778097366E+03  0.12500000000E+03 0.  0.
         25    1    1    2    0    0 -0.21776204466E+02  0.80490417181E+02  0.91898195981E+02  0.17613400797E+03  0.12500000000E+03 0.  0.
</event>
<event>
 5    0  0.5572507E-005  0.4703387E+03  0.7546771E-02  0.1021825E+00
         21   -1    0    0  502  501  0.00000000000E+00  0.00000000000E+00  0.27655525350E+03  0.27655525350E+03  0.00000000000E+00 0. -1.
         21   -1    0    0  501  502 -0.00000000000E+00 -0.00000000000E+00 -0.79990698665E+03  0.79990698665E+03  0.00000000000E+00 0. -1.
         25    1    1    2    0    0  0.35499851556E+03 -0.16936283312E+03 -0.30750096974E+03  0.51467422870E+03  0.12500000000E+03 0.  0.
         25    1    1    2    0    0 -0.26205553372E+03  0.24438169485E+01 -0.11968838939E+03  0.31405315720E+03  0.12500000000E+03 0.  0.
         25    1    1    2    0    0 -0.92942981841E+02  0.16691901617E+03 -0.96162374023E+02  0.24773485425E+03  0.12500000000E+03 0.  0.
</event>
<event>
 5    0  0.5572507E-005  0.2207987E+03  0.7546771E-02  0.1133289E+00
         21   -1    0    0  502  501  0.00000000000E+00  0.00000000000E+00  0.39287601891E+02  0.39287601891E+02  0.00000000000E+00 0.  1.
         21   -1    0    0  501  502 -0.00000000000E+00 -0.00000000000E+00 -0.12409019536E+04  0.12409019536E+04  0.00000000000E+00 0.  1.
         25    1    1    2    0    0  0.50995250840E+02  0.15456961541E+02 -0.57500984125E+03  0.59084748523E+03  0.12500000000E+03 0.  0.
         25    1    1    2    0    0 -0.24594256852E+01 -0.67975010061E+02 -0.34037010464E+03  0.36892202279E+03  0.12500000000E+03 0.  0.
         25    1    1    2    0    0 -0.48535825155E+02  0.52518048520E+02 -0.28623440578E+03  0.32042004743E+03  0.12500000000E+03 0.  0.
</event>
<event>
 5    0  0.5572507E-005  0.3091047E+03  0.7546771E-02  0.1080776E+00
         21   -1    0    0  502  501  0.00000000000E+00  0.00000000000E+00  0.94818259063E+02  0.94818259063E+02  0.00000000000E+00 0.  1.
         21   -1    0    0  501  502 -0.00000000000E+00 -0.00000000000E+00 -0.10076721993E+04  0.10076721993E+04  0.00000000000E+00 0.  1.
         25    1    1    2    0    0 -0.69907566818E+02  0.13895120208E+03 -0.28892551293E+03  0.35113737551E+03  0.12500000000E+03 0.  0.
         25    1    1    2    0    0  0.14069852860E+03 -0.38408789764E+02 -0.50279499267E+03  0.53823704418E+03  0.12500000000E+03 0.  0.
         25    1    1    2    0    0 -0.70790961785E+02 -0.10054241232E+03 -0.12113343462E+03  0.21311603864E+03  0.12500000000E+03 0.  0.
</event>
<event>
 5    0  0.5572507E-005  0.5365355E+03  0.7546771E-02  0.1004659E+00
         21   -1    0    0  502  501  0.00000000000E+00  0.00000000000E+00  0.12320185542E+03  0.12320185542E+03  0.00000000000E+00 0.  1.
         21   -1    0    0  501  502 -0.00000000000E+00 -0.00000000000E+00 -0.23365749424E+04  0.23365749424E+04  0.00000000000E+00 0.  1.
         25    1    1    2    0    0 -0.16342905898E+03 -0.89459532789E+02 -0.43441794005E+03  0.48893354555E+03  0.12500000000E+03 0.  0.
         25    1    1    2    0    0 -0.13464589614E+03  0.47391845956E+02 -0.15749018365E+04  0.15862901055E+04  0.12500000000E+03 0.  0.
         25    1    1    2    0    0  0.29807495512E+03  0.42067686833E+02 -0.20405331044E+03  0.38455314671E+03  0.12500000000E+03 0.  0.
</event>
<event>
 5    0  0.5572507E-005  0.3233224E+03  0.7546771E-02  0.1074130E+00
         21   -1    0    0  502  501  0.00000000000E+00  0.00000000000E+00  0.14281412715E+03  0.14281412715E+03  0.00000000000E+00 0.  1.
         21   -1    0    0  501  502 -0.00000000000E+00 -0.00000000000E+00 -0.73198195476E+03  0.73198195476E+03  0.00000000000E+00 0.  1.
         25    1    1    2    0    0  0.14518631466E+02  0.13534511143E+03 -0.13248743964E+03  0.22739175779E+03  0.12500000000E+03 0.  0.
         25    1    1    2    0    0  0.53979121687E+02 -0.21838603837E+03 -0.14661565938E+03  0.29618804653E+03  0.12500000000E+03 0.  0.
         25    1    1    2    0    0 -0.68497753153E+02  0.83040926938E+02 -0.31006472859E+03  0.35121627759E+03  0.12500000000E+03 0.  0.
</event>
<event>
 5    0  0.5572507E-005  0.3327293E+03  0.7546771E-02  0.1069936E+00
         21   -1    0    0  502  501  0.00000000000E+00  0.00000000000E+00  0.15863942766E+04  0.15863942766E+04  0.00000000000E+00 0. -1.
         21   -1    0    0  501  502 -0.00000000000E+00 -0.00000000000E+00 -0.69786426545E+02  0.69786426545E+02  0.00000000000E+00 0. -1.
         25    1    1    2    0    0 -0.14666223260E+03  0.49919171613E+02  0.11557279917E+04  0.11727463173E+04  0.12500000000E+03 0.  0.
         25    1    1    2    0    0  0.19905648751E+01 -0.43859844297E+01  0.13658944946E+03  0.18521575773E+03  0.12500000000E+03 0.  0.
         25    1    1    2    0    0  0.14467166772E+03 -0.45533187183E+02  0.22429040891E+03  0.29821862803E+03  0.12500000000E+03 0.  0.
</event>
<event>
 5    0  0.6394490E-005  0.2460609E+03  0.7546771E-02  0.1115820E+00
         21   -1    0    0  502  501  0.00000000000E+00  0.00000000000E+00  0.15971534854E+03  0.15971534854E+03  0.00000000000E+00 0. -1.
         21   -1    0    0  501  502 -0.00000000000E+00 -0.00000000000E+00 -0.37908673630E+03  0.37908673630E+03  0.00000000000E+00 0. -1.
         25    1    1    2    0    0  0.13917208251E+03 -0.42750423078E+02 -0.98158643820E+02  0.21553790056E+03  0.12500000000E+03 0.  0.
         25    1    1    2    0    0 -0.53312002590E+02  0.15291113865E+02 -0.18352863680E+02  0.13797759017E+03  0.12500000000E+03 0.  0.
         25    1    1    2    0    0 -0.85860079919E+02  0.27459309213E+02 -0.10285988027E+03  0.18528659410E+03  0.12500000000E+03 0.  0.
</event>
<event>
 5    0  0.5572507E-005  0.3599505E+03  0.7546771E-02  0.1058603E+00
         21   -1    0    0  502  501  0.00000000000E+00  0.00000000000E+00  0.33846453942E+03  0.33846453942E+03  0.00000000000E+00 0.  1.
         21   -1    0    0  501  502 -0.00000000000E+00 -0.00000000000E+00 -0.38280043988E+03  0.38280043988E+03  0.00000000000E+00 0.  1.
         25    1    1    2    0    0  0.10399111309E+03 -0.12800034928E+03  0.17269177236E+03  0.26952864274E+03  0.12500000000E+03 0.  0.
         25    1    1    2    0    0 -0.62468930741E+01  0.14520034714E+03 -0.12225125560E+02  0.19208492439E+03  0.12500000000E+03 0.  0.
         25    1    1    2    0    0 -0.97744220021E+02 -0.17199997857E+02 -0.20480254726E+03  0.25965141216E+03  0.12500000000E+03 0.  0.
</event>
<event>
 5    0  0.5572507E-005  0.3257385E+03  0.7546771E-02  0.1073038E+00
         21   -1    0    0  502  501  0.00000000000E+00  0.00000000000E+00  0.19278228611E+03  0.19278228611E+03  0.00000000000E+00 0. -1.
         21   -1    0    0  501  502 -0.00000000000E+00 -0.00000000000E+00 -0.55039073407E+03  0.55039073407E+03  0.00000000000E+00 0. -1.
         25    1    1    2    0    0 -0.70008599821E+02  0.61177089374E+02  0.10439105908E+03  0.18752688748E+03  0.12500000000E+03 0.  0.
         25    1    1    2    0    0  0.49335629379E+02  0.33316254331E+02 -0.29408170506E+03  0.32504311465E+03  0.12500000000E+03 0.  0.
         25    1    1    2    0    0  0.20672970443E+02 -0.94493343705E+02 -0.16791780198E+03  0.23060301805E+03  0.12500000000E+03 0.  0.
</event>
<event>
 5    0  0.5572507E-005  0.3819012E+03  0.7546771E-02  0.1050233E+00
         21   -1    0    0  502  501  0.00000000000E+00  0.00000000000E+00  0.37707217266E+03  0.37707217266E+03  0.00000000000E+00 0.  1.
         21   -1    0    0  501  502 -0.00000000000E+00 -0.00000000000E+00 -0.38679199263E+03  0.38679199263E+03  0.00000000000E+00 0.  1.
         25    1    1    2    0    0 -0.19011002512E+03 -0.19703551004E+03 -0.83550114804E+02  0.31236266671E+03  0.12500000000E+03 0.  0.
         25    1    1    2    0    0  0.13633618277E+03  0.11996158712E+03  0.16050635432E+03  0.27270061770E+03  0.12500000000E+03 0.  0.
         25    1    1    2    0    0  0.53773842350E+02  0.77073922925E+02 -0.86676059487E+02  0.17880088088E+03  0.12500000000E+03 0.  0.
</event>
<event>
 5    0  0.5572507E-005  0.2549025E+03  0.7546771E-02  0.1110245E+00
         21   -1    0    0  502  501  0.00000000000E+00  0.00000000000E+00  0.63955028983E+03  0.63955028983E+03  0.00000000000E+00 0.  1.
         21   -1    0    0  501  502 -0.00000000000E+00 -0.00000000000E+00 -0.10159529458E+03  0.10159529458E+03  0.00000000000E+00 0.  1.
         25    1    1    2    0    0 -0.74523514638E-01  0.35807515685E+02  0.13418221246E+03  0.18684766489E+03  0.12500000000E+03 0.  0.
         25    1    1    2    0    0 -0.28762982888E+00 -0.54099963741E+02  0.53327899703E+01  0.13630967485E+03  0.12500000000E+03 0.  0.
         25    1    1    2    0    0  0.36215334352E+00  0.18292448055E+02  0.39843999282E+03  0.41798824467E+03  0.12500000000E+03 0.  0.
</event>
<event>
 5    0  0.5572507E-005  0.4038280E+03  0.7546771E-02  0.1042462E+00
         21   -1    0    0  502  501  0.00000000000E+00  0.00000000000E+00  0.59558802013E+02  0.59558802013E+02  0.00000000000E+00 0.  1.
         21   -1    0    0  501  502 -0.00000000000E+00 -0.00000000000E+00 -0.27380853215E+04  0.27380853215E+04  0.00000000000E+00 0.  1.
         25    1    1    2    0    0 -0.31019677748E+03  0.83703384681E+02 -0.15068367646E+04  0.15457717596E+04  0.12500000000E+03 0.  0.
         25    1    1    2    0    0  0.13782159034E+03 -0.11707742273E+03 -0.49324820985E+03  0.54001917576E+03  0.12500000000E+03 0.  0.
         25    1    1    2    0    0  0.17237518715E+03  0.33374038048E+02 -0.67844154502E+03  0.71185318821E+03  0.12500000000E+03 0.  0.
</event>
<event>
 5    0  0.5572507E-005  0.4474328E+03  0.7546771E-02  0.1028490E+00
         21   -1    0    0  502  501  0.00000000000E+00  0.00000000000E+00  0.91081446647E+02  0.91081446647E+02  0.00000000000E+00 0. -1.
         21   -1    0    0  501  502 -0.00000000000E+00 -0.00000000000E+00 -0.21979900156E+04  0.21979900156E+04  0.00000000000E+00 0. -1.
         25    1    1    2    0    0 -0.11964928582E+03 -0.12555778692E+03 -0.99057537528E+03  0.10133830883E+04  0.12500000000E+03 0.  0.
         25    1    1    2    0    0 -0.12246541381E+03  0.43158498642E+02 -0.73410266063E+02  0.19461372189E+03  0.12500000000E+03 0.  0.
         25    1    1    2    0    0  0.24211469963E+03  0.82399288280E+02 -0.10429229276E+04  0.10810746521E+04  0.12500000000E+03 0.  0.
</event>
<event>
 5    0  0.6826521E-005  0.6503568E+03  0.7546771E-02  0.9806110E-01
         21   -1    0    0  502  501  0.00000000000E+00  0.00000000000E+00  0.32459995475E+03  0.32459995475E+03  0.00000000000E+00 0.  1.
         21   -1    0    0  501  502 -0.00000000000E+00 -0.00000000000E+00 -0.13030314524E+04  0.13030314524E+04  0.00000000000E+00 0.  1.
         25    1    1    2    0    0  0.79057970537E+02 -0.34495527879E+03 -0.23920497111E+03  0.44507114631E+03  0.12500000000E+03 0.  0.
         25    1    1    2    0    0 -0.10227174178E+03  0.11451123460E+03 -0.86747946544E+03  0.88978534208E+03  0.12500000000E+03 0.  0.
         25    1    1    2    0    0  0.23213771244E+02  0.23044404419E+03  0.12825293895E+03  0.29277491871E+03  0.12500000000E+03 0.  0.
</event>
<event>
 5    0  0.5572507E-005  0.4033899E+03  0.7546771E-02  0.1042612E+00
         21   -1    0    0  502  501  0.00000000000E+00  0.00000000000E+00  0.11958840635E+04  0.11958840635E+04  0.00000000000E+00 0.  1.
         21   -1    0    0  501  502 -0.00000000000E+00 -0.00000000000E+00 -0.13606952307E+03  0.13606952307E+03  0.00000000000E+00 0.  1.
         25    1    1    2    0    0 -0.11801334938E+03  0.25961869820E+02  0.11809656790E+03  0.21017366311E+03  0.12500000000E+03 0.  0.
         25    1    1    2    0    0  0.12736217462E+03  0.22853917340E+03  0.28577556907E+03  0.40711663338E+03  0.12500000000E+03 0.  0.
         25    1    1    2    0    0 -0.93488252363E+01 -0.25450104322E+03  0.65594240347E+03  0.71466329009E+03  0.12500000000E+03 0.  0.
</event>
<event>
 5    0  0.5907559E-005  0.2776814E+03  0.7546771E-02  0.1096962E+00
         21   -1    0    0  502  501  0.00000000000E+00  0.00000000000E+00  0.76905633731E+02  0.76905633731E+02  0.00000000000E+00 0.  1.
         21   -1    0    0  501  502 -0.00000000000E+00 -0.00000000000E+00 -0.10026181438E+04  0.10026181438E+04  0.00000000000E+00 0.  1.
         25    1    1    2    0    0  0.26843613770E+02  0.10202864276E+03 -0.17205977024E+03  0.23740258651E+03  0.12500000000E+03 0.  0.
         25    1    1    2    0    0 -0.64849353896E+02 -0.12338202712E+03 -0.64262169233E+03  0.66934012487E+03  0.12500000000E+03 0.  0.
         25    1    1    2    0    0  0.38005740126E+02  0.21353384350E+02 -0.11103104746E+03  0.17278106611E+03  0.12500000000E+03 0.  0.
</event>
<event>
 5    0  0.5572507E-005  0.2653979E+03  0.7546771E-02  0.1103943E+00
         21   -1    0    0  502  501  0.00000000000E+00  0.00000000000E+00  0.45169677046E+03  0.45169677046E+03  0.00000000000E+00 0.  1.
         21   -1    0    0  501  502 -0.00000000000E+00 -0.00000000000E+00 -0.15593651602E+03  0.15593651602E+03  0.00000000000E+00 0.  1.
         25    1    1    2    0    0  0.97257608592E+01  0.28343188964E+02 -0.67370947101E+01  0.12871796778E+03  0.12500000000E+03 0.  0.
         25    1    1    2    0    0 -0.46160448119E+02 -0.14320983736E+03  0.13509453519E+03  0.23772963199E+03  0.12500000000E+03 0.  0.
         25    1    1    2    0    0  0.36434687260E+02  0.11486664840E+03  0.16740281397E+03  0.24118568671E+03  0.12500000000E+03 0.  0.
</event>
<event>
 5    0  0.6795126E-005  0.3510812E+03  0.7546771E-02  0.1062172E+00
         21   -1    0    0  502  501  0.00000000000E+00  0.00000000000E+00  0.68355419613E+03  0.68355419613E+03  0.00000000000E+00 0. -1.
         21   -1    0    0  501  502 -0.00000000000E+00 -0.00000000000E+00 -0.18031925825E+03  0.18031925825E+03  0.00000000000E+00 0. -1.
         25    1    1    2    0    0  0.10185466508E+03  0.22158163191E+02  0.33406400294E+03  0.37160343789E+03  0.12500000000E+03 0.  0.
         25    1    1    2    0    0 -0.14378564647E+02  0.90165043832E+02 -0.83954362423E+02  0.17609603408E+03  0.12500000000E+03 0.  0.
         25    1    1    2    0    0 -0.87476100436E+02 -0.11232320702E+03  0.25312529737E+03  0.31617398241E+03  0.12500000000E+03 0.  0.
</event>
<event>
 5    0  0.6456117E-005  0.2716947E+03  0.7546771E-02  0.1100314E+00
         21   -1    0    0  502  501  0.00000000000E+00  0.00000000000E+00  0.54410410440E+02  0.54410410440E+02  0.00000000000E+00 0. -1.
         21   -1    0    0  501  502 -0.00000000000E+00 -0.00000000000E+00 -0.13566889209E+04  0.13566889209E+04  0.00000000000E+00 0. -1.
         25    1    1    2    0    0 -0.73037288935E+01  0.13955148106E+03 -0.25956108305E+03  0.32019512200E+03  0.12500000000E+03 0.  0.
         25    1    1    2    0    0  0.75099204121E+02 -0.61379285632E+02 -0.49776118281E+03  0.52230116052E+03  0.12500000000E+03 0.  0.
         25    1    1    2    0    0 -0.67795475227E+02 -0.78172195425E+02 -0.54495624462E+03  0.56860304883E+03  0.12500000000E+03 0.  0.
</event>
<event>
 5    0  0.5572507E-005  0.3356137E+03  0.7546771E-02  0.1068680E+00
         21   -1    0    0  502  501  0.00000000000E+00  0.00000000000E+00  0.12601007406E+03  0.12601007406E+03  0.00000000000E+00 0. -1.
         21   -1    0    0  501  502 -0.00000000000E+00 -0.00000000000E+00 -0.89386962873E+03  0.89386962873E+03  0.00000000000E+00 0. -1.
         25    1    1    2    0    0  0.10188648076E+03  0.13078024966E+03 -0.20905130635E+03  0.29463838404E+03  0.12500000000E+03 0.  0.
         25    1    1    2    0    0 -0.20101876861E+02 -0.65873318197E+02 -0.54318794593E+03  0.56162400599E+03  0.12500000000E+03 0.  0.
         25    1    1    2    0    0 -0.81784603904E+02 -0.64906931462E+02 -0.15620302384E+02  0.16361731276E+03  0.12500000000E+03 0.  0.
</event>
<event>
 5    0  0.5572507E-005  0.4070041E+03  0.7546771E-02  0.1041381E+00
         21   -1    0    0  502  501  0.00000000000E+00  0.00000000000E+00  0.20032860924E+04  0.20032860924E+04  0.00000000000E+00 0. -1.
         21   -1    0    0  501  502 -0.00000000000E+00 -0.00000000000E+00 -0.82690285138E+02  0.82690285138E+02  0.00000000000E+00 0. -1.
         25    1    1    2    0    0  0.18734806550E+02  0.45028516265E+02  0.11482410421E+04  0.11560540865E+04  0.12500000000E+03 0.  0.
         25    1    1    2    0    0  0.45871938661E+02 -0.14875807320E+03  0.72040276078E+03  0.74755490556E+03  0.12500000000E+03 0.  0.
         25    1    1    2    0    0 -0.64606745211E+02  0.10372955694E+03  0.51952004387E+02  0.18236738543E+03  0.12500000000E+03 0.  0.
</event>
<event>
 5    0  0.5572507E-005  0.2856312E+03  0.7546771E-02  0.1092652E+00
         21   -1    0    0  502  501  0.00000000000E+00  0.00000000000E+00  0.49053184280E+03  0.49053184280E+03  0.00000000000E+00 0.  1.
         21   -1    0    0  501  502 -0.00000000000E+00 -0.00000000000E+00 -0.16631980724E+03  0.16631980724E+03  0.00000000000E+00 0.  1.
         25    1    1    2    0    0 -0.62914692064E+02 -0.31043524913E+02  0.13122719360E+03  0.19433871271E+03  0.12500000000E+03 0.  0.
         25    1    1    2    0    0  0.80492371645E+01  0.14024086433E+03  0.21578807440E+03  0.28621981640E+03  0.12500000000E+03 0.  0.
         25    1    1    2    0    0  0.54865454900E+02 -0.10919733942E+03 -0.22803232435E+02  0.17629312093E+03  0.12500000000E+03 0.  0.
</event>
<event>
 5    0  0.5572507E-005  0.2465105E+03  0.7546771E-02  0.1115530E+00
         21   -1    0    0  502  501  0.00000000000E+00  0.00000000000E+00  0.65624391638E+02  0.65624391638E+02  0.00000000000E+00 0. -1.
         21   -1    0    0  501  502 -0.00000000000E+00 -0.00000000000E+00 -0.92598853822E+03  0.92598853822E+03  0.00000000000E+00 0. -1.
         25    1    1    2    0    0  0.68467658169E+02 -0.50963257020E+01 -0.29766961536E+03  0.33006967849E+03  0.12500000000E+03 0.  0.
         25    1    1    2    0    0  0.52557395835E+02  0.64595638199E+02 -0.16340952710E+03  0.22195168366E+03  0.12500000000E+03 0.  0.
         25    1    1    2    0    0 -0.12102505400E+03 -0.59499312497E+02 -0.39928500411E+03  0.43959156770E+03  0.12500000000E+03 0.  0.
</event>
<event>
 5    0  0.6382543E-005  0.6263253E+03  0.7546771E-02  0.9852246E-01
         21   -1    0    0  502  501  0.00000000000E+00  0.00000000000E+00  0.86738100849E+03  0.86738100849E+03  0.00000000000E+00 0. -1.
         21   -1    0    0  501  502 -0.00000000000E+00 -0.00000000000E+00 -0.45226194866E+03  0.45226194866E+03  0.00000000000E+00 0. -1.
         25    1    1    2    0    0  0.33543203395E+03 -0.33193177249E+03  0.10747535231E+03  0.49986928526E+03  0.12500000000E+03 0.  0.
         25    1    1    2    0    0 -0.30334764631E+03  0.16725721505E+02 -0.42547542722E+02  0.33126249059E+03  0.12500000000E+03 0.  0.
         25    1    1    2    0    0 -0.32084387640E+02  0.31520605099E+03  0.35019125024E+03  0.48851118130E+03  0.12500000000E+03 0.  0.
</event>
<event>
 5    0  0.5572507E-005  0.2169349E+03  0.7546771E-02  0.1136189E+00
         21   -1    0    0  502  501  0.00000000000E+00  0.00000000000E+00  0.95487952889E+03  0.95487952889E+03  0.00000000000E+00 0. -1.
         21   -1    0    0  501  502 -0.00000000000E+00 -0.00000000000E+00 -0.49284492550E+02  0.49284492550E+02  0.00000000000E+00 0. -1.
         25    1    1    2    0    0  0.82929296632E+01  0.41101854159E+02  0.13234183594E+03  0.18680871671E+03  0.12500000000E+03 0.  0.
         25    1    1    2    0    0  0.18078631632E+02 -0.17291980516E+02  0.47921383011E+03  0.49587976817E+03  0.12500000000E+03 0.  0.
         25    1    1    2    0    0 -0.26371561295E+02 -0.23809873642E+02  0.29403937028E+03  0.32147553656E+03  0.12500000000E+03 0.  0.
</event>
<event>
 5    0  0.5572507E-005  0.2081964E+03  0.7546771E-02  0.1143002E+00
         21   -1    0    0  502  501  0.00000000000E+00  0.00000000000E+00  0.25764175487E+02  0.25764175487E+02  0.00000000000E+00 0. -1.
         21   -1    0    0  501  502 -0.00000000000E+00 -0.00000000000E+00 -0.16824043574E+04  0.16824043574E+04  0.00000000000E+00 0. -1.
         25    1    1    2    0    0  0.75014616241E+02 -0.28982221614E+01 -0.69869893367E+03  0.71375121174E+03  0.12500000000E+03 0.  0.
         25    1    1    2    0    0 -0.17169495556E+02 -0.17661568755E+02 -0.43872078254E+03  0.45684532133E+03  0.12500000000E+03 0.  0.
         25    1    1    2    0    0 -0.57845120685E+02  0.20559790916E+02 -0.51922046573E+03  0.53757199985E+03  0.12500000000E+03 0.  0.
</event>
<event>
 5    0  0.5575683E-005  0.2742839E+03  0.7546771E-02  0.1098853E+00
         21   -1    0    0  502  501  0.00000000000E+00  0.00000000000E+00  0.59676985398E+03  0.59676985398E+03  0.00000000000E+00 0. -1.
         21   -1    0    0  501  502 -0.00000000000E+00 -0.00000000000E+00 -0.12606476451E+03  0.12606476451E+03  0.00000000000E+00 0. -1.
         25    1    1    2    0    0  0.10365735290E+02  0.18764208941E+02 -0.37905561432E+02  0.13236833304E+03  0.12500000000E+03 0.  0.
         25    1    1    2    0    0 -0.19237164491E+02 -0.86518598065E+02  0.31280816541E+03  0.34832382154E+03  0.12500000000E+03 0.  0.
         25    1    1    2    0    0  0.88714292017E+01  0.67754389124E+02  0.19580248549E+03  0.24214246391E+03  0.12500000000E+03 0.  0.
</event>
<event>
 5    0  0.5572507E-005  0.4216972E+03  0.7546771E-02  0.1036515E+00
         21   -1    0    0  502  501  0.00000000000E+00  0.00000000000E+00  0.32670236140E+03  0.32670236140E+03  0.00000000000E+00 0. -1.
         21   -1    0    0  501  502 -0.00000000000E+00 -0.00000000000E+00 -0.54431358437E+03  0.54431358437E+03  0.00000000000E+00 0. -1.
         25    1    1    2    0    0  0.19967606749E+03 -0.11461985460E+03  0.17093493959E+03  0.31281303772E+03  0.12500000000E+03 0.  0.
         25    1    1    2    0    0 -0.70537872605E+02 -0.54862358912E+02 -0.15464218775E+03  0.21800155075E+03  0.12500000000E+03 0.  0.
         25    1    1    2    0    0 -0.12913819489E+03  0.16948221351E+03 -0.23390397482E+03  0.34020135730E+03  0.12500000000E+03 0.  0.
</event>
<event>
 5    0  0.5572507E-005  0.3014079E+03  0.7546771E-02  0.1084539E+00
         21   -1    0    0  502  501  0.00000000000E+00  0.00000000000E+00  0.35012929315E+03  0.35012929315E+03  0.00000000000E+00 0.  1.
         21   -1    0    0  501  502 -0.00000000000E+00 -0.00000000000E+00 -0.25946613157E+03  0.25946613157E+03  0.00000000000E+00 0.  1.
         25    1    1    2    0    0  0.16031666614E+03 -0.11937169883E+03 -0.34059999909E+02  0.23819344978E+03  0.12500000000E+03 0.  0.
         25    1    1    2    0    0 -0.61119218025E+01  0.45222391077E+02  0.78566180983E+02  0.15453176061E+03  0.12500000000E+03 0.  0.
         25    1    1    2    0    0 -0.15420474433E+03  0.74149307751E+02  0.46156980507E+02  0.21687021433E+03  0.12500000000E+03 0.  0.
</event>
<event>
 5    0  0.5572507E-005  0.3214994E+03  0.7546771E-02  0.1074961E+00
         21   -1    0    0  502  501  0.00000000000E+00  0.00000000000E+00  0.12492845256E+04  0.12492845256E+04  0.00000000000E+00 0. -1.
         21   -1    0    0  501  502 -0.00000000000E+00 -0.00000000000E+00 -0.82736831882E+02  0.82736831882E+02  0.00000000000E+00 0. -1.
         25    1    1    2    0    0  0.71064422949E+02 -0.20096060545E+02  0.17328722059E+03  0.22606960140E+03  0.12500000000E+03 0.  0.
         25    1    1    2    0    0  0.73173084998E+02  0.59812798132E+01  0.86146104029E+03  0.87357323678E+03  0.12500000000E+03 0.  0.
         25    1    1    2    0    0 -0.14423750795E+03  0.14114780732E+02  0.13179943283E+03  0.23237851929E+03  0.12500000000E+03 0.  0.
</event>
<event>
 5    0  0.5572507E-005  0.3781370E+03  0.7546771E-02  0.1051624E+00
         21   -1    0    0  502  501  0.00000000000E+00  0.00000000000E+00  0.18969594468E+03  0.18969594468E+03  0.00000000000E+00 0.  1.
         21   -1    0    0  501  502 -0.00000000000E+00 -0.00000000000E+00 -0.75377270500E+03  0.75377270500E+03  0.00000000000E+00 0.  1.
         25    1    1    2    0    0  0.17914106560E+03  0.24037478487E+03 -0.35418408012E+03  0.48056521014E+03  0.12500000000E+03 0.  0.
         25    1    1    2    0    0 -0.15239528693E+03 -0.12051928964E+03 -0.15891953580E+03  0.28040977428E+03  0.12500000000E+03 0.  0.
         25    1    1    2    0    0 -0.26745778677E+02 -0.11985549523E+03 -0.50973144394E+02  0.18249366527E+03  0.12500000000E+03 0.  0.
</event>
<event>
 5    0  0.5572507E-005  0.2658401E+03  0.7546771E-02  0.1103684E+00
         21   -1    0    0  502  501  0.00000000000E+00  0.00000000000E+00  0.72895680341E+02  0.72895680341E+02  0.00000000000E+00 0.  1.
         21   -1    0    0  501  502 -0.00000000000E+00 -0.00000000000E+00 -0.96948098196E+03  0.96948098196E+03  0.00000000000E+00 0.  1.
         25    1    1    2    0    0  0.38130644323E+02 -0.14146812027E+03 -0.33626457566E+03  0.38751263196E+03  0.12500000000E+03 0.  0.
         25    1    1    2    0    0  0.61431541548E+02  0.94562248337E+02 -0.33213675653E+03  0.37236497975E+03  0.12500000000E+03 0.  0.
         25    1    1    2    0    0 -0.99562185870E+02  0.46905871929E+02 -0.22818396944E+03  0.28249905059E+03  0.12500000000E+03 0.  0.
</event>
<event>
 5    0  0.5572507E-005  0.2611829E+03  0.7546771E-02  0.1106435E+00
         21   -1    0    0  502  501  0.00000000000E+00  0.00000000000E+00  0.67972371873E+02  0.67972371873E+02  0.00000000000E+00 0.  1.
         21   -1    0    0  501  502 -0.00000000000E+00 -0.00000000000E+00 -0.10035913575E+04  0.10035913575E+04  0.00000000000E+00 0.  1.
         25    1    1    2    0    0 -0.13789535587E+03  0.37601042084E+02 -0.23711775009E+03  0.30377424997E+03  0.12500000000E+03 0.  0.
         25    1    1    2    0    0  0.86192683584E+02  0.11420548218E+02 -0.49971109771E+03  0.52239428481E+03  0.12500000000E+03 0.  0.
         25    1    1    2    0    0  0.51702672289E+02 -0.49021590302E+02 -0.19879013788E+03  0.24539519465E+03  0.12500000000E+03 0.  0.
</event>
<event>
 5    0  0.5572507E-005  0.3410665E+03  0.7546771E-02  0.1066343E+00
         21   -1    0    0  502  501  0.00000000000E+00  0.00000000000E+00  0.70573812587E+03  0.70573812587E+03  0.00000000000E+00 0.  1.
         21   -1    0    0  501  502 -0.00000000000E+00 -0.00000000000E+00 -0.16482931767E+03  0.16482931767E+03  0.00000000000E+00 0.  1.
         25    1    1    2    0    0 -0.20648175147E+03 -0.37356698172E+01  0.20441118524E+03  0.31631882899E+03  0.12500000000E+03 0.  0.
         25    1    1    2    0    0  0.87233003231E+01  0.11621695971E+03  0.19242300202E+03  0.25735984419E+03  0.12500000000E+03 0.  0.
         25    1    1    2    0    0  0.19775845115E+03 -0.11248128989E+03  0.14407462094E+03  0.29688877037E+03  0.12500000000E+03 0.  0.
</event>
<event>
 5    0  0.6063639E-005  0.3699584E+03  0.7546771E-02  0.1054709E+00
         21   -1    0    0  502  501  0.00000000000E+00  0.00000000000E+00  0.21104284551E+03  0.21104284551E+03  0.00000000000E+00 0. -1.
         21   -1    0    0  501  502 -0.00000000000E+00 -0.00000000000E+00 -0.64853750289E+03  0.64853750289E+03  0.00000000000E+00 0. -1.
         25    1    1    2    0    0  0.18847527658E+03 -0.13495721804E+02  0.33333704063E+01  0.22658591251E+03  0.12500000000E+03 0.  0.
         25    1    1    2    0    0 -0.11743549473E+03 -0.47590387236E+02 -0.14073562052E+02  0.17854692808E+03  0.12500000000E+03 0.  0.
         25    1    1    2    0    0 -0.71039781852E+02  0.61086109040E+02 -0.42675446574E+03  0.45444750780E+03  0.12500000000E+03 0.  0.
</event>
<event>
 5    0  0.5572507E-005  0.5808493E+03  0.7546771E-02  0.9945954E-01
         21   -1    0    0  502  501  0.00000000000E+00  0.00000000000E+00  0.39456010823E+03  0.39456010823E+03  0.00000000000E+00 0. -1.
         21   -1    0    0  501  502 -0.00000000000E+00 -0.00000000000E+00 -0.85509383113E+03  0.85509383113E+03  0.00000000000E+00 0. -1.
         25    1    1    2    0    0  0.16527462546E+01 -0.70386460723E+02 -0.38810666330E+01  0.14351671715E+03  0.12500000000E+03 0.  0.
         25    1    1    2    0    0  0.35832281993E+03 -0.53700078464E+02  0.12202739750E+03  0.40223702894E+03  0.12500000000E+03 0.  0.
         25    1    1    2    0    0 -0.35997556619E+03  0.12408653919E+03 -0.57868005377E+03  0.70390019327E+03  0.12500000000E+03 0.  0.
</event>
<event>
 5    0  0.5572507E-005  0.3224764E+03  0.7546771E-02  0.1074515E+00
         21   -1    0    0  502  501  0.00000000000E+00  0.00000000000E+00  0.80398590623E+03  0.80398590623E+03  0.00000000000E+00 0. -1.
         21   -1    0    0  501  502 -0.00000000000E+00 -0.00000000000E+00 -0.12934432958E+03  0.12934432958E+03  0.00000000000E+00 0. -1.
         25    1    1    2    0    0  0.32056744120E+02 -0.82657058505E+02  0.18132067493E+03  0.23740684768E+03  0.12500000000E+03 0.  0.
         25    1    1    2    0    0 -0.16871378692E+03  0.17109357492E+03  0.19468426267E+03  0.33356306062E+03  0.12500000000E+03 0.  0.
         25    1    1    2    0    0  0.13665704280E+03 -0.88436516417E+02  0.29863663904E+03  0.36236032752E+03  0.12500000000E+03 0.  0.
</event>
<event>
 5    0  0.5572507E-005  0.3626921E+03  0.7546771E-02  0.1057523E+00
         21   -1    0    0  502  501  0.00000000000E+00  0.00000000000E+00  0.69438486986E+02  0.69438486986E+02  0.00000000000E+00 0. -1.
         21   -1    0    0  501  502 -0.00000000000E+00 -0.00000000000E+00 -0.18944186244E+04  0.18944186244E+04  0.00000000000E+00 0. -1.
         25    1    1    2    0    0 -0.19361632630E+03 -0.49203447846E+02 -0.11005630163E+04  0.11255097574E+04  0.12500000000E+03 0.  0.
         25    1    1    2    0    0  0.16394886117E+03 -0.36228124296E+01 -0.17134515562E+03  0.26809796009E+03  0.12500000000E+03 0.  0.
         25    1    1    2    0    0  0.29667465127E+02  0.52826260275E+02 -0.55307196553E+03  0.57024939397E+03  0.12500000000E+03 0.  0.
</event>
<event>
 5    0  0.5572507E-005  0.2357094E+03  0.7546771E-02  0.1122685E+00
         21   -1    0    0  502  501  0.00000000000E+00  0.00000000000E+00  0.31794670187E+03  0.31794670187E+03  0.00000000000E+00 0. -1.
         21   -1    0    0  501  502 -0.00000000000E+00 -0.00000000000E+00 -0.17474284041E+03  0.17474284041E+03  0.00000000000E+00 0. -1.
         25    1    1    2    0    0 -0.86958559084E+01 -0.10224996486E+03  0.34167398137E+02  0.16529695798E+03  0.12500000000E+03 0.  0.
         25    1    1    2    0    0 -0.50601053233E+02  0.98370439633E+02  0.35457295221E+02  0.17064416124E+03  0.12500000000E+03 0.  0.
         25    1    1    2    0    0  0.59296909141E+02  0.38795252264E+01  0.73579168104E+02  0.15674842305E+03  0.12500000000E+03 0.  0.
</event>
<event>
 5    0  0.5572507E-005  0.3716402E+03  0.7546771E-02  0.1054068E+00
         21   -1    0    0  502  501  0.00000000000E+00  0.00000000000E+00  0.10779028021E+03  0.10779028021E+03  0.00000000000E+00 0. -1.
         21   -1    0    0  501  502 -0.00000000000E+00 -0.00000000000E+00 -0.12813439483E+04  0.12813439483E+04  0.00000000000E+00 0. -1.
         25    1    1    2    0    0 -0.43368237097E+02  0.10377835115E+03 -0.13067299583E+02  0.16866091567E+03  0.12500000000E+03 0.  0.
         25    1    1    2    0    0  0.10893171652E+03 -0.15465703557E+03 -0.74413452764E+03  0.77791137847E+03  0.12500000000E+03 0.  0.
         25    1    1    2    0    0 -0.65563479427E+02  0.50878684421E+02 -0.41635184087E+03  0.44256193438E+03  0.12500000000E+03 0.  0.
</event>
<event>
 5    0  0.5572507E-005  0.3269340E+03  0.7546771E-02  0.1072502E+00
         21   -1    0    0  502  501  0.00000000000E+00  0.00000000000E+00  0.93761756888E+02  0.93761756888E+02  0.00000000000E+00 0.  1.
         21   -1    0    0  501  502 -0.00000000000E+00 -0.00000000000E+00 -0.11399729362E+04  0.11399729362E+04  0.00000000000E+00 0.  1.
         25    1    1    2    0    0  0.97933513785E+02  0.18606466511E+03 -0.43196234297E+03  0.49641464369E+03  0.12500000000E+03 0.  0.
         25    1    1    2    0    0 -0.83068514050E+02 -0.14358377779E+02 -0.43032076739E+03  0.45596875319E+03  0.12500000000E+03 0.  0.
         25    1    1    2    0    0 -0.14864999735E+02 -0.17170628733E+03 -0.18392806894E+03  0.28135129619E+03  0.12500000000E+03 0.  0.
</event>
<event>
 5    0  0.5572507E-005  0.4318720E+03  0.7546771E-02  0.1033270E+00
         21   -1    0    0  502  501  0.00000000000E+00  0.00000000000E+00  0.25020271295E+03  0.25020271295E+03  0.00000000000E+00 0.  1.
         21   -1    0    0  501  502 -0.00000000000E+00 -0.00000000000E+00 -0.74544912459E+03  0.74544912459E+03  0.00000000000E+00 0.  1.
         25    1    1    2    0    0 -0.63436556227E+02  0.54644552138E+02  0.17493326548E+03  0.23073116633E+03  0.12500000000E+03 0.  0.
         25    1    1    2    0    0  0.11067737934E+03 -0.74475734442E+02 -0.18034415546E+03  0.25679784214E+03  0.12500000000E+03 0.  0.
         25    1    1    2    0    0 -0.47240823109E+02  0.19831182303E+02 -0.48983552165E+03  0.50812282908E+03  0.12500000000E+03 0.  0.
</event>
<event>
 5    0  0.5572507E-005  0.3477720E+03  0.7546771E-02  0.1063533E+00
         21   -1    0    0  502  501  0.00000000000E+00  0.00000000000E+00  0.22678098442E+04  0.22678098442E+04  0.00000000000E+00 0. -1.
         21   -1    0    0  501  502 -0.00000000000E+00 -0.00000000000E+00 -0.53331347726E+02  0.53331347726E+02  0.00000000000E+00 0. -1.
         25    1    1    2    0    0 -0.10752151522E+03 -0.11842386888E+01  0.50173027004E+03  0.52812928581E+03  0.12500000000E+03 0.  0.
         25    1    1    2    0    0  0.12512664711E+03 -0.18753286495E+03  0.12648938748E+04  0.12908937864E+04  0.12500000000E+03 0.  0.
         25    1    1    2    0    0 -0.17605131888E+02  0.18871710363E+03  0.44785435165E+03  0.50211811974E+03  0.12500000000E+03 0.  0.
</event>
<event>
 5    0  0.5572507E-005  0.3103307E+03  0.7546771E-02  0.1080187E+00
         21   -1    0    0  502  501  0.00000000000E+00  0.00000000000E+00  0.49733274577E+02  0.49733274577E+02  0.00000000000E+00 0. -1.
         21   -1    0    0  501  502 -0.00000000000E+00 -0.00000000000E+00 -0.19364324532E+04  0.19364324532E+04  0.00000000000E+00 0. -1.
         25    1    1    2    0    0  0.37769769539E+02  0.14356800963E+03 -0.34500184869E+03  0.39584037753E+03  0.12500000000E+03 0.  0.
         25    1    1    2    0    0  0.71184934090E+02 -0.15156308148E+01 -0.92491223195E+03  0.93603270711E+03  0.12500000000E+03 0.  0.
         25    1    1    2    0    0 -0.10895470363E+03 -0.14205237882E+03 -0.61678509803E+03  0.65429264319E+03  0.12500000000E+03 0.  0.
</event>
<event>
 5    0  0.5572507E-005  0.5093168E+03  0.7546771E-02  0.1011375E+00
         21   -1    0    0  502  501  0.00000000000E+00  0.00000000000E+00  0.46000661602E+03  0.46000661602E+03  0.00000000000E+00 0. -1.
         21   -1    0    0  501  502 -0.00000000000E+00 -0.00000000000E+00 -0.56391276725E+03  0.56391276725E+03  0.00000000000E+00 0. -1.
         25    1    1    2    0    0 -0.15523002924E+01  0.21664313542E+03 -0.81930211247E+02  0.26319995683E+03  0.12500000000E+03 0.  0.
         25    1    1    2    0    0 -0.33146883923E+03 -0.19295470436E+03 -0.25573354162E+02  0.40420552416E+03  0.12500000000E+03 0.  0.
         25    1    1    2    0    0  0.33302113952E+03 -0.23688431062E+02  0.35974141759E+01  0.35651390229E+03  0.12500000000E+03 0.  0.
</event>
<event>
 5    0  0.5572507E-005  0.2576759E+03  0.7546771E-02  0.1108548E+00
         21   -1    0    0  502  501  0.00000000000E+00  0.00000000000E+00  0.37798084365E+03  0.37798084365E+03  0.00000000000E+00 0. -1.
         21   -1    0    0  501  502 -0.00000000000E+00 -0.00000000000E+00 -0.17566196792E+03  0.17566196792E+03  0.00000000000E+00 0. -1.
         25    1    1    2    0    0  0.94194929922E+02  0.58637137219E+02  0.16257877554E+03  0.23316915950E+03  0.12500000000E+03 0.  0.
         25    1    1    2    0    0 -0.11458108549E+02  0.22705822482E+02 -0.37916030275E+02  0.13307692504E+03  0.12500000000E+03 0.  0.
         25    1    1    2    0    0 -0.82736821374E+02 -0.81342959701E+02  0.77656130471E+02  0.18739672704E+03  0.12500000000E+03 0.  0.
</event>
<event>
 5    0  0.5572507E-005  0.3094632E+03  0.7546771E-02  0.1080603E+00
         21   -1    0    0  502  501  0.00000000000E+00  0.00000000000E+00  0.27470924759E+03  0.27470924759E+03  0.00000000000E+00 0. -1.
         21   -1    0    0  501  502 -0.00000000000E+00 -0.00000000000E+00 -0.34861385148E+03  0.34861385148E+03  0.00000000000E+00 0. -1.
         25    1    1    2    0    0 -0.22427748338E+02  0.69698824153E+02 -0.14094007777E+02  0.14554920487E+03  0.12500000000E+03 0.  0.
         25    1    1    2    0    0  0.87091825849E+02  0.11306560478E+03  0.82342030324E+02  0.20681882669E+03  0.12500000000E+03 0.  0.
         25    1    1    2    0    0 -0.64664077511E+02 -0.18276442894E+03 -0.14215262643E+03  0.27095506750E+03  0.12500000000E+03 0.  0.
</event>
<event>
 5    0  0.5572507E-005  0.3444492E+03  0.7546771E-02  0.1064917E+00
         21   -1    0    0  502  501  0.00000000000E+00  0.00000000000E+00  0.11390960173E+03  0.11390960173E+03  0.00000000000E+00 0.  1.
         21   -1    0    0  501  502 -0.00000000000E+00 -0.00000000000E+00 -0.10415740452E+04  0.10415740452E+04  0.00000000000E+00 0.  1.
         25    1    1    2    0    0 -0.15096283003E+03  0.13929960538E+03 -0.13581813964E+03  0.27616249413E+03  0.12500000000E+03 0.  0.
         25    1    1    2    0    0  0.10603848597E+03 -0.15111249042E+02 -0.19397716883E+03  0.25441040148E+03  0.12500000000E+03 0.  0.
         25    1    1    2    0    0  0.44924344057E+02 -0.12418835634E+03 -0.59786913503E+03  0.62491075136E+03  0.12500000000E+03 0.  0.
</event>
<event>
 5    0  0.5572507E-005  0.4122779E+03  0.7546771E-02  0.1039609E+00
         21   -1    0    0  502  501  0.00000000000E+00  0.00000000000E+00  0.26028044919E+03  0.26028044919E+03  0.00000000000E+00 0.  1.
         21   -1    0    0  501  502 -0.00000000000E+00 -0.00000000000E+00 -0.65303827785E+03  0.65303827785E+03  0.00000000000E+00 0.  1.
         25    1    1    2    0    0 -0.71077804101E+02  0.15027786832E+03 -0.99797891139E+02  0.23069484393E+03  0.12500000000E+03 0.  0.
         25    1    1    2    0    0  0.29141408115E+03 -0.15532570554E+03 -0.23049019547E+03  0.42166215351E+03  0.12500000000E+03 0.  0.
         25    1    1    2    0    0 -0.22033627705E+03  0.50478372222E+01 -0.62469742047E+02  0.26096172960E+03  0.12500000000E+03 0.  0.
</event>
<event>
 5    0  0.5572507E-005  0.2731186E+03  0.7546771E-02  0.1099508E+00
         21   -1    0    0  502  501  0.00000000000E+00  0.00000000000E+00  0.80326918122E+02  0.80326918122E+02  0.00000000000E+00 0.  1.
         21   -1    0    0  501  502 -0.00000000000E+00 -0.00000000000E+00 -0.92862732831E+03  0.92862732831E+03  0.00000000000E+00 0.  1.
         25    1    1    2    0    0  0.54084262207E+02 -0.10074384557E+03 -0.52313650198E+03  0.54988292348E+03  0.12500000000E+03 0.  0.
         25    1    1    2    0    0 -0.93817151788E+02  0.21122335067E+02 -0.10050167298E+03  0.18701175706E+03  0.12500000000E+03 0.  0.
         25    1    1    2    0    0  0.39732889581E+02  0.79621510502E+02 -0.22466223523E+03  0.27205956589E+03  0.12500000000E+03 0.  0.
</event>
<event>
 5    0  0.5572507E-005  0.3794375E+03  0.7546771E-02  0.1051142E+00
         21   -1    0    0  502  501  0.00000000000E+00  0.00000000000E+00  0.49123948866E+03  0.49123948866E+03  0.00000000000E+00 0. -1.
         21   -1    0    0  501  502 -0.00000000000E+00 -0.00000000000E+00 -0.29308070018E+03  0.29308070018E+03  0.00000000000E+00 0. -1.
         25    1    1    2    0    0  0.43998355179E+02  0.25578179935E+03  0.15070799446E+03  0.32511241707E+03  0.12500000000E+03 0.  0.
         25    1    1    2    0    0  0.35351044492E+02 -0.12851256532E+03  0.15204670513E+03  0.23771490557E+03  0.12500000000E+03 0.  0.
         25    1    1    2    0    0 -0.79349399671E+02 -0.12726923403E+03 -0.10459591111E+03  0.22149286621E+03  0.12500000000E+03 0.  0.
</event>
<event>
 5    0  0.5572507E-005  0.3269787E+03  0.7546771E-02  0.1072482E+00
         21   -1    0    0  502  501  0.00000000000E+00  0.00000000000E+00  0.19092791264E+03  0.19092791264E+03  0.00000000000E+00 0. -1.
         21   -1    0    0  501  502 -0.00000000000E+00 -0.00000000000E+00 -0.55997598172E+03  0.55997598172E+03  0.00000000000E+00 0. -1.
         25    1    1    2    0    0 -0.35432647339E+02  0.53504667250E+02 -0.16647818403E+03  0.21784904791E+03  0.12500000000E+03 0.  0.
         25    1    1    2    0    0 -0.14590023770E+03  0.23771848269E+02  0.38636957766E+02  0.19740768637E+03  0.12500000000E+03 0.  0.
         25    1    1    2    0    0  0.18133288504E+03 -0.77276515518E+02 -0.24120684281E+03  0.33564716008E+03  0.12500000000E+03 0.  0.
</event>
<event>
 5    0  0.5572507E-005  0.2355090E+03  0.7546771E-02  0.1122821E+00
         21   -1    0    0  502  501  0.00000000000E+00  0.00000000000E+00  0.33900545854E+03  0.33900545854E+03  0.00000000000E+00 0.  1.
         21   -1    0    0  501  502 -0.00000000000E+00 -0.00000000000E+00 -0.16360936759E+03  0.16360936759E+03  0.00000000000E+00 0.  1.
         25    1    1    2    0    0  0.58207297940E+02  0.57457659448E+02  0.10124615974E+03  0.18045846344E+03  0.12500000000E+03 0.  0.
         25    1    1    2    0    0 -0.10163711145E+03 -0.38457676433E+02 -0.69773480263E+01  0.16577930717E+03  0.12500000000E+03 0.  0.
         25    1    1    2    0    0  0.43429813512E+02 -0.18999983015E+02  0.81127279231E+02  0.15637705552E+03  0.12500000000E+03 0.  0.
</event>
<event>
 5    0  0.5572507E-005  0.2955727E+03  0.7546771E-02  0.1087475E+00
         21   -1    0    0  502  501  0.00000000000E+00  0.00000000000E+00  0.18301368878E+03  0.18301368878E+03  0.00000000000E+00 0.  1.
         21   -1    0    0  501  502 -0.00000000000E+00 -0.00000000000E+00 -0.47735896236E+03  0.47735896236E+03  0.00000000000E+00 0.  1.
         25    1    1    2    0    0 -0.53528808458E+02 -0.36890596226E+02 -0.79913495519E+01  0.14112090948E+03  0.12500000000E+03 0.  0.
         25    1    1    2    0    0 -0.14387908267E+03 -0.22868918555E+02 -0.12924802180E+03  0.23141786665E+03  0.12500000000E+03 0.  0.
         25    1    1    2    0    0  0.19740789113E+03  0.59759514781E+02 -0.15710590223E+03  0.28783387501E+03  0.12500000000E+03 0.  0.
</event>
<event>
 5    0  0.5572507E-005  0.4521267E+03  0.7546771E-02  0.1027090E+00
         21   -1    0    0  502  501  0.00000000000E+00  0.00000000000E+00  0.16387514232E+03  0.16387514232E+03  0.00000000000E+00 0.  1.
         21   -1    0    0  501  502 -0.00000000000E+00 -0.00000000000E+00 -0.12474044114E+04  0.12474044114E+04  0.00000000000E+00 0.  1.
         25    1    1    2    0    0 -0.15755147001E+03 -0.17966994182E+03 -0.72265490190E+03  0.77133576407E+03  0.12500000000E+03 0.  0.
         25    1    1    2    0    0  0.24121040047E+03  0.34862488797E+02 -0.71449324024E+02  0.28306864243E+03  0.12500000000E+03 0.  0.
         25    1    1    2    0    0 -0.83658930467E+02  0.14480745302E+03 -0.28942504311E+03  0.35687514718E+03  0.12500000000E+03 0.  0.
</event>
<event>
 5    0  0.5572507E-005  0.3162057E+03  0.7546771E-02  0.1077409E+00
         21   -1    0    0  502  501  0.00000000000E+00  0.00000000000E+00  0.13099403200E+03  0.13099403200E+03  0.00000000000E+00 0. -1.
         21   -1    0    0  501  502 -0.00000000000E+00 -0.00000000000E+00 -0.76328691318E+03  0.76328691318E+03  0.00000000000E+00 0. -1.
         25    1    1    2    0    0  0.11805904938E+03 -0.74956626989E+02 -0.14637614810E+03  0.23792312163E+03  0.12500000000E+03 0.  0.
         25    1    1    2    0    0 -0.19334090272E+03  0.90075589181E+01 -0.42799770198E+03  0.48607496714E+03  0.12500000000E+03 0.  0.
         25    1    1    2    0    0  0.75281853337E+02  0.65949068071E+02 -0.57919031092E+02  0.17028285640E+03  0.12500000000E+03 0.  0.
</event>
<event>
 5    0  0.5572507E-005  0.2934438E+03  0.7546771E-02  0.1088565E+00
         21   -1    0    0  502  501  0.00000000000E+00  0.00000000000E+00  0.68010516823E+02  0.68010516823E+02  0.00000000000E+00 0. -1.
         21   -1    0    0  501  502 -0.00000000000E+00 -0.00000000000E+00 -0.12661169084E+04  0.12661169084E+04  0.00000000000E+00 0. -1.
         25    1    1    2    0    0 -0.26150226493E+02  0.13210137809E+03 -0.29176919573E+03  0.34480265662E+03  0.12500000000E+03 0.  0.
         25    1    1    2    0    0 -0.98493954066E+02 -0.12591226286E+03 -0.33868135804E+03  0.39482276936E+03  0.12500000000E+03 0.  0.
         25    1    1    2    0    0  0.12464418056E+03 -0.61891152273E+01 -0.56765583781E+03  0.59450199924E+03  0.12500000000E+03 0.  0.
</event>
<event>
 5    0  0.5572507E-005  0.3843990E+03  0.7546771E-02  0.1049320E+00
         21   -1    0    0  502  501  0.00000000000E+00  0.00000000000E+00  0.19319271275E+03  0.19319271275E+03  0.00000000000E+00 0.  1.
         21   -1    0    0  501  502 -0.00000000000E+00 -0.00000000000E+00 -0.76484551208E+03  0.76484551208E+03  0.00000000000E+00 0.  1.
         25    1    1    2    0    0  0.18240378542E+02 -0.50989896244E+02 -0.13449575660E+03  0.19143351189E+03  0.12500000000E+03 0.  0.
         25    1    1    2    0    0  0.37030752959E+02 -0.17855042310E+03 -0.44763192148E+03  0.49925030534E+03  0.12500000000E+03 0.  0.
         25    1    1    2    0    0 -0.55271131501E+02  0.22954031935E+03  0.10474878759E+02  0.26735440761E+03  0.12500000000E+03 0.  0.
</event>
<event>
 5    0  0.5572507E-005  0.2804338E+03  0.7546771E-02  0.1095452E+00
         21   -1    0    0  502  501  0.00000000000E+00  0.00000000000E+00  0.18396604609E+03  0.18396604609E+03  0.00000000000E+00 0. -1.
         21   -1    0    0  501  502 -0.00000000000E+00 -0.00000000000E+00 -0.42748719200E+03  0.42748719200E+03  0.00000000000E+00 0. -1.
         25    1    1    2    0    0 -0.95783227997E+01  0.33468525298E+02 -0.25287474642E+03  0.28422266594E+03  0.12500000000E+03 0.  0.
         25    1    1    2    0    0 -0.63893672274E+02 -0.23417800734E+01 -0.72316326694E+02  0.15793206260E+03  0.12500000000E+03 0.  0.
         25    1    1    2    0    0  0.73471995074E+02 -0.31126745225E+02  0.81669927206E+02  0.16929850956E+03  0.12500000000E+03 0.  0.
</event>
<event>
 5    0  0.5572507E-005  0.2993196E+03  0.7546771E-02  0.1085581E+00
         21   -1    0    0  502  501  0.00000000000E+00  0.00000000000E+00  0.59858082403E+03  0.59858082403E+03  0.00000000000E+00 0. -1.
         21   -1    0    0  501  502 -0.00000000000E+00 -0.00000000000E+00 -0.14967442620E+03  0.14967442620E+03  0.00000000000E+00 0. -1.
         25    1    1    2    0    0 -0.11236941950E+02  0.13515000647E+03  0.30503062082E+03  0.35645542884E+03  0.12500000000E+03 0.  0.
         25    1    1    2    0    0  0.19171727100E+02 -0.15332715717E+03  0.17120144322E+03  0.26231985515E+03  0.12500000000E+03 0.  0.
         25    1    1    2    0    0 -0.79347851494E+01  0.18177150697E+02 -0.27325666206E+02  0.12947996624E+03  0.12500000000E+03 0.  0.
</event>
<event>
 5    0  0.5572507E-005  0.3187255E+03  0.7546771E-02  0.1076237E+00
         21   -1    0    0  502  501  0.00000000000E+00  0.00000000000E+00  0.13545318352E+04  0.13545318352E+04  0.00000000000E+00 0. -1.
         21   -1    0    0  501  502 -0.00000000000E+00 -0.00000000000E+00 -0.74997075468E+02  0.74997075468E+02  0.00000000000E+00 0. -1.
         25    1    1    2    0    0  0.24219471298E+03 -0.16092228117E+02  0.59190717294E+03  0.65184073222E+03  0.12500000000E+03 0.  0.
         25    1    1    2    0    0 -0.16511333264E+03  0.41812975929E+02  0.35379589687E+03  0.41207678194E+03  0.12500000000E+03 0.  0.
         25    1    1    2    0    0 -0.77081380331E+02 -0.25720747813E+02  0.33383168991E+03  0.36561139650E+03  0.12500000000E+03 0.  0.
</event>
<event>
 5    0  0.5572507E-005  0.2851172E+03  0.7546771E-02  0.1092926E+00
         21   -1    0    0  502  501  0.00000000000E+00  0.00000000000E+00  0.77133909531E+02  0.77133909531E+02  0.00000000000E+00 0. -1.
         21   -1    0    0  501  502 -0.00000000000E+00 -0.00000000000E+00 -0.10539052447E+04  0.10539052447E+04  0.00000000000E+00 0. -1.
         25    1    1    2    0    0  0.50240063424E+02 -0.35423485361E+02 -0.77242965481E+02  0.15928076784E+03  0.12500000000E+03 0.  0.
         25    1    1    2    0    0 -0.14521974610E+03 -0.35839953821E+02 -0.45752719392E+03  0.49732223973E+03  0.12500000000E+03 0.  0.
         25    1    1    2    0    0  0.94979682677E+02  0.71263439182E+02 -0.44200117581E+03  0.47443614671E+03  0.12500000000E+03 0.  0.
</event>
<event>
 5    0  0.5572507E-005  0.2721018E+03  0.7546771E-02  0.1100083E+00
         21   -1    0    0  502  501  0.00000000000E+00  0.00000000000E+00  0.77958246015E+03  0.77958246015E+03  0.00000000000E+00 0. -1.
         21   -1    0    0  501  502 -0.00000000000E+00 -0.00000000000E+00 -0.94973108258E+02  0.94973108258E+02  0.00000000000E+00 0. -1.
         25    1    1    2    0    0 -0.29439776913E+02  0.11242766099E+03  0.67632023040E+02  0.18359131232E+03  0.12500000000E+03 0.  0.
         25    1    1    2    0    0  0.27899749272E+02 -0.24763133492E+02  0.14566524003E+03  0.19553764584E+03  0.12500000000E+03 0.  0.
         25    1    1    2    0    0  0.15400276408E+01 -0.87664527493E+02  0.47131208882E+03  0.49542661024E+03  0.12500000000E+03 0.  0.
</event>
<event>
 5    0  0.5773362E-005  0.3189101E+03  0.7546771E-02  0.1076152E+00
         21   -1    0    0  502  501  0.00000000000E+00  0.00000000000E+00  0.62316940631E+03  0.62316940631E+03  0.00000000000E+00 0.  1.
         21   -1    0    0  501  502 -0.00000000000E+00 -0.00000000000E+00 -0.16320381943E+03  0.16320381943E+03  0.00000000000E+00 0.  1.
         25    1    1    2    0    0  0.12772071129E+03 -0.35746612949E+02  0.10622671587E+03  0.21094908294E+03  0.12500000000E+03 0.  0.
         25    1    1    2    0    0 -0.15995128922E+03 -0.11495314873E+03  0.10130064708E+03  0.25433336868E+03  0.12500000000E+03 0.  0.
         25    1    1    2    0    0  0.32230577925E+02  0.15069976168E+03  0.25243822393E+03  0.32109077412E+03  0.12500000000E+03 0.  0.
</event>
<event>
 5    0  0.5572507E-005  0.3119727E+03  0.7546771E-02  0.1079404E+00
         21   -1    0    0  502  501  0.00000000000E+00  0.00000000000E+00  0.23438387391E+03  0.23438387391E+03  0.00000000000E+00 0. -1.
         21   -1    0    0  501  502 -0.00000000000E+00 -0.00000000000E+00 -0.41524588223E+03  0.41524588223E+03  0.00000000000E+00 0. -1.
         25    1    1    2    0    0  0.95818431543E+02 -0.13673590732E+03 -0.12541891621E+03  0.24337786407E+03  0.12500000000E+03 0.  0.
         25    1    1    2    0    0  0.25423918808E+02  0.17932748959E+03 -0.54342431646E+01  0.22013462965E+03  0.12500000000E+03 0.  0.
         25    1    1    2    0    0 -0.12124235035E+03 -0.42591582270E+02 -0.50008848951E+02  0.18611726242E+03  0.12500000000E+03 0.  0.
</event>
<event>
 5    0  0.5572507E-005  0.3928774E+03  0.7546771E-02  0.1046274E+00
         21   -1    0    0  502  501  0.00000000000E+00  0.00000000000E+00  0.12559028002E+03  0.12559028002E+03  0.00000000000E+00 0. -1.
         21   -1    0    0  501  502 -0.00000000000E+00 -0.00000000000E+00 -0.12290175093E+04  0.12290175093E+04  0.00000000000E+00 0. -1.
         25    1    1    2    0    0  0.25612929891E+03  0.71395350350E+02 -0.19906531870E+03  0.35489648480E+03  0.12500000000E+03 0.  0.
         25    1    1    2    0    0 -0.20477676526E+03 -0.40788167081E+02 -0.76668793977E+03  0.80438336330E+03  0.12500000000E+03 0.  0.
         25    1    1    2    0    0 -0.51352533655E+02 -0.30607183269E+02 -0.13767397076E+03  0.19532794118E+03  0.12500000000E+03 0.  0.
</event>
<event>
 5    0  0.5572507E-005  0.2719302E+03  0.7546771E-02  0.1100180E+00
         21   -1    0    0  502  501  0.00000000000E+00  0.00000000000E+00  0.10292155176E+04  0.10292155176E+04  0.00000000000E+00 0.  1.
         21   -1    0    0  501  502 -0.00000000000E+00 -0.00000000000E+00 -0.71846968258E+02  0.71846968258E+02  0.00000000000E+00 0.  1.
         25    1    1    2    0    0 -0.58301114137E+02 -0.13134230870E+03  0.50599172546E+03  0.54065002377E+03  0.12500000000E+03 0.  0.
         25    1    1    2    0    0  0.11076190406E+03  0.64066773771E+02  0.27434682097E+03  0.32751172356E+03  0.12500000000E+03 0.  0.
         25    1    1    2    0    0 -0.52460789926E+02  0.67275534930E+02  0.17703000293E+03  0.23290073855E+03  0.12500000000E+03 0.  0.
</event>
<event>
 5    0  0.5572507E-005  0.3100197E+03  0.7546771E-02  0.1080336E+00
         21   -1    0    0  502  501  0.00000000000E+00  0.00000000000E+00  0.16277561212E+03  0.16277561212E+03  0.00000000000E+00 0.  1.
         21   -1    0    0  501  502 -0.00000000000E+00 -0.00000000000E+00 -0.59045841051E+03  0.59045841051E+03  0.00000000000E+00 0.  1.
         25    1    1    2    0    0  0.73019773209E+02  0.35528383901E+01  0.69912220758E+02  0.16080183006E+03  0.12500000000E+03 0.  0.
         25    1    1    2    0    0 -0.10645246292E+03 -0.33817016264E+02 -0.37861334681E+03  0.41406374369E+03  0.12500000000E+03 0.  0.
         25    1    1    2    0    0  0.33432689713E+02  0.30264177874E+02 -0.11898167234E+03  0.17836844888E+03  0.12500000000E+03 0.  0.
</event>
<event>
 5    0  0.5572507E-005  0.4299925E+03  0.7546771E-02  0.1033862E+00
         21   -1    0    0  502  501  0.00000000000E+00  0.00000000000E+00  0.95775234374E+02  0.95775234374E+02  0.00000000000E+00 0. -1.
         21   -1    0    0  501  502 -0.00000000000E+00 -0.00000000000E+00 -0.19304945024E+04  0.19304945024E+04  0.00000000000E+00 0. -1.
         25    1    1    2    0    0  0.16639774670E+03  0.14997843959E+02 -0.31662100872E+03  0.37919257455E+03  0.12500000000E+03 0.  0.
         25    1    1    2    0    0 -0.27959662678E+03  0.97396338489E+01 -0.14151744960E+04  0.14479685730E+04  0.12500000000E+03 0.  0.
         25    1    1    2    0    0  0.11319888008E+03 -0.24737477808E+02 -0.10292376329E+03  0.19910858924E+03  0.12500000000E+03 0.  0.
</event>
<event>
 5    0  0.5572507E-005  0.3117156E+03  0.7546771E-02  0.1079526E+00
         21   -1    0    0  502  501  0.00000000000E+00  0.00000000000E+00  0.93475049985E+02  0.93475049985E+02  0.00000000000E+00 0.  1.
         21   -1    0    0  501  502 -0.00000000000E+00 -0.00000000000E+00 -0.10394924816E+04  0.10394924816E+04  0.00000000000E+00 0.  1.
         25    1    1    2    0    0 -0.28570090700E+02 -0.75604820427E+02 -0.39650495812E+03  0.42352511232E+03  0.12500000000E+03 0.  0.
         25    1    1    2    0    0  0.13562858377E+03 -0.52671814276E+02 -0.42542162544E+03  0.46666689635E+03  0.12500000000E+03 0.  0.
         25    1    1    2    0    0 -0.10705849307E+03  0.12827663470E+03 -0.12409084803E+03  0.24277552289E+03  0.12500000000E+03 0.  0.
</event>
<event>
 5    0  0.5572507E-005  0.2418983E+03  0.7546771E-02  0.1118535E+00
         21   -1    0    0  502  501  0.00000000000E+00  0.00000000000E+00  0.94998057588E+02  0.94998057588E+02  0.00000000000E+00 0. -1.
         21   -1    0    0  501  502 -0.00000000000E+00 -0.00000000000E+00 -0.61595760013E+03  0.61595760013E+03  0.00000000000E+00 0. -1.
         25    1    1    2    0    0 -0.14474330575E+02 -0.38429141418E+02 -0.29231159863E+03  0.32055791341E+03  0.12500000000E+03 0.  0.
         25    1    1    2    0    0  0.46178540316E+02 -0.60966147517E+02 -0.67582518000E+02  0.16137448828E+03  0.12500000000E+03 0.  0.
         25    1    1    2    0    0 -0.31704209741E+02  0.99395288935E+02 -0.16106542591E+03  0.22902325603E+03  0.12500000000E+03 0.  0.
</event>
<event>
 5    0  0.6527863E-005  0.3551293E+03  0.7546771E-02  0.1060529E+00
         21   -1    0    0  502  501  0.00000000000E+00  0.00000000000E+00  0.27613693069E+03  0.27613693069E+03  0.00000000000E+00 0.  1.
         21   -1    0    0  501  502 -0.00000000000E+00 -0.00000000000E+00 -0.45671848870E+03  0.45671848870E+03  0.00000000000E+00 0.  1.
         25    1    1    2    0    0 -0.23211938834E+03 -0.12995564796E+02 -0.23329102762E+02  0.26498592827E+03  0.12500000000E+03 0.  0.
         25    1    1    2    0    0  0.10186984873E+03 -0.22351082105E+02 -0.21984473715E+03  0.27355757238E+03  0.12500000000E+03 0.  0.
         25    1    1    2    0    0  0.13024953960E+03  0.35346646901E+02  0.62592281896E+02  0.19431191875E+03  0.12500000000E+03 0.  0.
</event>
<event>
 5    0  0.5572507E-005  0.3017111E+03  0.7546771E-02  0.1084388E+00
         21   -1    0    0  502  501  0.00000000000E+00  0.00000000000E+00  0.29250524782E+03  0.29250524782E+03  0.00000000000E+00 0. -1.
         21   -1    0    0  501  502 -0.00000000000E+00 -0.00000000000E+00 -0.31120668850E+03  0.31120668850E+03  0.00000000000E+00 0. -1.
         25    1    1    2    0    0 -0.95226659998E+01 -0.79331797666E+02  0.20093874164E+03  0.24977108155E+03  0.12500000000E+03 0.  0.
         25    1    1    2    0    0  0.20430860091E+02  0.83394937426E+02 -0.12908371241E+03  0.19914753436E+03  0.12500000000E+03 0.  0.
         25    1    1    2    0    0 -0.10908194091E+02 -0.40631397607E+01 -0.90556469905E+02  0.15479332041E+03  0.12500000000E+03 0.  0.
</event>
<event>
 5    0  0.5572507E-005  0.2721006E+03  0.7546771E-02  0.1100083E+00
         21   -1    0    0  502  501  0.00000000000E+00  0.00000000000E+00  0.11942670179E+04  0.11942670179E+04  0.00000000000E+00 0.  1.
         21   -1    0    0  501  502 -0.00000000000E+00 -0.00000000000E+00 -0.61995141768E+02  0.61995141768E+02  0.00000000000E+00 0.  1.
         25    1    1    2    0    0 -0.13719154953E+03 -0.46061938404E+02  0.25093230134E+03  0.31549206533E+03  0.12500000000E+03 0.  0.
         25    1    1    2    0    0  0.45727932964E+02  0.74010217257E+02  0.27519298147E+03  0.31452302486E+03  0.12500000000E+03 0.  0.
         25    1    1    2    0    0  0.91463616562E+02 -0.27948278853E+02  0.60614659335E+03  0.62624706952E+03  0.12500000000E+03 0.  0.
</event>
<event>
 5    0  0.5572507E-005  0.3475488E+03  0.7546771E-02  0.1063626E+00
         21   -1    0    0  502  501  0.00000000000E+00  0.00000000000E+00  0.26433699125E+03  0.26433699125E+03  0.00000000000E+00 0. -1.
         21   -1    0    0  501  502 -0.00000000000E+00 -0.00000000000E+00 -0.45695513152E+03  0.45695513152E+03  0.00000000000E+00 0. -1.
         25    1    1    2    0    0  0.74286627382E+02 -0.24610439190E+03 -0.79790903971E+02  0.29677847475E+03  0.12500000000E+03 0.  0.
         25    1    1    2    0    0 -0.67727215813E+02  0.14038452558E+03  0.36176926025E+02  0.20304817350E+03  0.12500000000E+03 0.  0.
         25    1    1    2    0    0 -0.65594115684E+01  0.10571986632E+03 -0.14900416232E+03  0.22146547452E+03  0.12500000000E+03 0.  0.
</event>
<event>
 5    0  0.5572507E-005  0.2807406E+03  0.7546771E-02  0.1095285E+00
         21   -1    0    0  502  501  0.00000000000E+00  0.00000000000E+00  0.36923020350E+03  0.36923020350E+03  0.00000000000E+00 0.  1.
         21   -1    0    0  501  502 -0.00000000000E+00 -0.00000000000E+00 -0.21345840466E+03  0.21345840466E+03  0.00000000000E+00 0.  1.
         25    1    1    2    0    0 -0.35577353489E+02 -0.52393702932E+02 -0.81555654343E+02  0.16213319507E+03  0.12500000000E+03 0.  0.
         25    1    1    2    0    0  0.82345406336E+02  0.76124948724E+02  0.23002595358E+03  0.28480293728E+03  0.12500000000E+03 0.  0.
         25    1    1    2    0    0 -0.46768052847E+02 -0.23731245792E+02  0.73014996045E+01  0.13575247582E+03  0.12500000000E+03 0.  0.
</event>
<event>
 5    0  0.5572507E-005  0.3138164E+03  0.7546771E-02  0.1078531E+00
         21   -1    0    0  502  501  0.00000000000E+00  0.00000000000E+00  0.17584641542E+03  0.17584641542E+03  0.00000000000E+00 0.  1.
         21   -1    0    0  501  502 -0.00000000000E+00 -0.00000000000E+00 -0.56003833536E+03  0.56003833536E+03  0.00000000000E+00 0.  1.
         25    1    1    2    0    0  0.11294181906E+03  0.54491036351E+02 -0.40162262526E+02  0.18155752495E+03  0.12500000000E+03 0.  0.
         25    1    1    2    0    0 -0.98246654134E+02  0.74332673585E+02 -0.32989060098E+03  0.37367172762E+03  0.12500000000E+03 0.  0.
         25    1    1    2    0    0 -0.14695164924E+02 -0.12882370994E+03 -0.14139056439E+02  0.18065549820E+03  0.12500000000E+03 0.  0.
</event>
<event>
 5    0  0.5572507E-005  0.4911252E+03  0.7546771E-02  0.1016122E+00
         21   -1    0    0  502  501  0.00000000000E+00  0.00000000000E+00  0.40779314603E+03  0.40779314603E+03  0.00000000000E+00 0. -1.
         21   -1    0    0  501  502 -0.00000000000E+00 -0.00000000000E+00 -0.59148614659E+03  0.59148614659E+03  0.00000000000E+00 0. -1.
         25    1    1    2    0    0  0.16116782814E+03 -0.53660922782E+02 -0.32437389766E+02  0.21338169490E+03  0.12500000000E+03 0.  0.
         25    1    1    2    0    0 -0.60711130774E+02 -0.30881612085E+03 -0.18887098985E+03  0.38775054958E+03  0.12500000000E+03 0.  0.
         25    1    1    2    0    0 -0.10045669737E+03  0.36247704363E+03  0.37615379055E+02  0.39814704814E+03  0.12500000000E+03 0.  0.
</event>
<event>
 5    0  0.5572507E-005  0.2737560E+03  0.7546771E-02  0.1099149E+00
         21   -1    0    0  502  501  0.00000000000E+00  0.00000000000E+00  0.58108548128E+02  0.58108548128E+02  0.00000000000E+00 0.  1.
         21   -1    0    0  501  502 -0.00000000000E+00 -0.00000000000E+00 -0.12896954522E+04  0.12896954522E+04  0.00000000000E+00 0.  1.
         25    1    1    2    0    0 -0.89282178840E+02 -0.59648529145E+02 -0.27403580568E+03  0.31976534722E+03  0.12500000000E+03 0.  0.
         25    1    1    2    0    0 -0.77632099499E+02  0.27943823444E+02 -0.53786652264E+03  0.55833054396E+03  0.12500000000E+03 0.  0.
         25    1    1    2    0    0  0.16691427834E+03  0.31704705701E+02 -0.41968457575E+03  0.46970810915E+03  0.12500000000E+03 0.  0.
</event>
<event>
 5    0  0.5572507E-005  0.2450878E+03  0.7546771E-02  0.1116449E+00
         21   -1    0    0  502  501  0.00000000000E+00  0.00000000000E+00  0.55194166449E+02  0.55194166449E+02  0.00000000000E+00 0. -1.
         21   -1    0    0  501  502 -0.00000000000E+00 -0.00000000000E+00 -0.10883039828E+04  0.10883039828E+04  0.00000000000E+00 0. -1.
         25    1    1    2    0    0  0.67282531963E+01 -0.94592068645E+02 -0.45129668356E+03  0.47779349664E+03  0.12500000000E+03 0.  0.
         25    1    1    2    0    0  0.53327625148E+02 -0.17584589979E+02 -0.32809842141E+03  0.35556522263E+03  0.12500000000E+03 0.  0.
         25    1    1    2    0    0 -0.60055878344E+02  0.11217665862E+03 -0.25371471143E+03  0.31013943003E+03  0.12500000000E+03 0.  0.
</event>
<event>
 5    0  0.5572507E-005  0.4933295E+03  0.7546771E-02  0.1015535E+00
         21   -1    0    0  502  501  0.00000000000E+00  0.00000000000E+00  0.20063543498E+04  0.20063543498E+04  0.00000000000E+00 0. -1.
         21   -1    0    0  501  502 -0.00000000000E+00 -0.00000000000E+00 -0.12130157813E+03  0.12130157813E+03  0.00000000000E+00 0. -1.
         25    1    1    2    0    0  0.77724716212E+02 -0.29707185496E+03  0.10581320610E+04  0.11088558414E+04  0.12500000000E+03 0.  0.
         25    1    1    2    0    0 -0.19065538559E+03  0.32304822618E+03  0.41597546803E+03  0.57390785192E+03  0.12500000000E+03 0.  0.
         25    1    1    2    0    0  0.11293066938E+03 -0.25976371219E+02  0.41094524264E+03  0.44489223459E+03  0.12500000000E+03 0.  0.
</event>
<event>
 5    0  0.5572507E-005  0.3048989E+03  0.7546771E-02  0.1082817E+00
         21   -1    0    0  502  501  0.00000000000E+00  0.00000000000E+00  0.11239285319E+03  0.11239285319E+03  0.00000000000E+00 0.  1.
         21   -1    0    0  501  502 -0.00000000000E+00 -0.00000000000E+00 -0.82712878574E+03  0.82712878574E+03  0.00000000000E+00 0.  1.
         25    1    1    2    0    0  0.10787311627E+03 -0.26129079811E+02 -0.23255993347E+03  0.28640611146E+03  0.12500000000E+03 0.  0.
         25    1    1    2    0    0 -0.17291010840E+03 -0.14245122465E+02 -0.45677954687E+03  0.50435442254E+03  0.12500000000E+03 0.  0.
         25    1    1    2    0    0  0.65036992124E+02  0.40374202276E+02 -0.25396452207E+02  0.14876110493E+03  0.12500000000E+03 0.  0.
</event>
<event>
 5    0  0.5572507E-005  0.3642446E+03  0.7546771E-02  0.1056916E+00
         21   -1    0    0  502  501  0.00000000000E+00  0.00000000000E+00  0.86894067750E+02  0.86894067750E+02  0.00000000000E+00 0.  1.
         21   -1    0    0  501  502 -0.00000000000E+00 -0.00000000000E+00 -0.15268493092E+04  0.15268493092E+04  0.00000000000E+00 0.  1.
         25    1    1    2    0    0 -0.31898753176E+02 -0.18818635094E+03 -0.63022903237E+03  0.67025761195E+03  0.12500000000E+03 0.  0.
         25    1    1    2    0    0  0.19974050512E+02  0.38175343489E+02 -0.24767314417E+02  0.13451668821E+03  0.12500000000E+03 0.  0.
         25    1    1    2    0    0  0.11924702665E+02  0.15001100745E+03 -0.78495889463E+03  0.80896907676E+03  0.12500000000E+03 0.  0.
</event>
<event>
 5    0  0.5921162E-005  0.4660512E+03  0.7546771E-02  0.1023041E+00
         21   -1    0    0  502  501  0.00000000000E+00  0.00000000000E+00  0.49383444154E+03  0.49383444154E+03  0.00000000000E+00 0.  1.
         21   -1    0    0  501  502 -0.00000000000E+00 -0.00000000000E+00 -0.43983096732E+03  0.43983096732E+03  0.00000000000E+00 0.  1.
         25    1    1    2    0    0  0.16995864515E+03  0.51339576728E+02 -0.27103531510E+03  0.34728494818E+03  0.12500000000E+03 0.  0.
         25    1    1    2    0    0  0.73462445223E+02  0.81926590528E+02  0.19213519415E+03  0.25426291496E+03  0.12500000000E+03 0.  0.
         25    1    1    2    0    0 -0.24342109037E+03 -0.13326616726E+03  0.13290359517E+03  0.33211754573E+03  0.12500000000E+03 0.  0.
</event>
<event>
 5    0  0.5572507E-005  0.2332681E+03  0.7546771E-02  0.1124360E+00
         21   -1    0    0  502  501  0.00000000000E+00  0.00000000000E+00  0.96849834582E+02  0.96849834582E+02  0.00000000000E+00 0.  1.
         21   -1    0    0  501  502 -0.00000000000E+00 -0.00000000000E+00 -0.56183881680E+03  0.56183881680E+03  0.00000000000E+00 0.  1.
         25    1    1    2    0    0 -0.10136667109E+02  0.10575915500E+03 -0.15246650105E+03  0.22396156998E+03  0.12500000000E+03 0.  0.
         25    1    1    2    0    0 -0.41203569109E+02 -0.45155850531E+02 -0.84387791552E+02  0.16273624153E+03  0.12500000000E+03 0.  0.
         25    1    1    2    0    0  0.51340236218E+02 -0.60603304466E+02 -0.22813468962E+03  0.27199083987E+03  0.12500000000E+03 0.  0.
</event>
<event>
 5    0  0.5572507E-005  0.4051579E+03  0.7546771E-02  0.1042008E+00
         21   -1    0    0  502  501  0.00000000000E+00  0.00000000000E+00  0.69867193833E+02  0.69867193833E+02  0.00000000000E+00 0. -1.
         21   -1    0    0  501  502 -0.00000000000E+00 -0.00000000000E+00 -0.23494992360E+04  0.23494992360E+04  0.00000000000E+00 0. -1.
         25    1    1    2    0    0 -0.10492422190E+03 -0.24209355238E+03 -0.12052126901E+04  0.12400729853E+04  0.12500000000E+03 0.  0.
         25    1    1    2    0    0 -0.15392266337E+02  0.99837186312E+02 -0.12466407368E+03  0.20339743582E+03  0.12500000000E+03 0.  0.
         25    1    1    2    0    0  0.12031648824E+03  0.14225636607E+03 -0.94975527834E+03  0.97589600868E+03  0.12500000000E+03 0.  0.
</event>
<event>
 5    0  0.6411893E-005  0.3577774E+03  0.7546771E-02  0.1059467E+00
         21   -1    0    0  502  501  0.00000000000E+00  0.00000000000E+00  0.83002440177E+03  0.83002440177E+03  0.00000000000E+00 0. -1.
         21   -1    0    0  501  502 -0.00000000000E+00 -0.00000000000E+00 -0.15421795983E+03  0.15421795983E+03  0.00000000000E+00 0. -1.
         25    1    1    2    0    0 -0.37182593372E+01  0.15424959938E+03  0.51234273220E+03  0.54947869804E+03  0.12500000000E+03 0.  0.
         25    1    1    2    0    0 -0.82328960473E+02 -0.34069398829E+01 -0.22350325641E+02  0.15137437705E+03  0.12500000000E+03 0.  0.
         25    1    1    2    0    0  0.86047219810E+02 -0.15084265950E+03  0.18581403538E+03  0.28338928651E+03  0.12500000000E+03 0.  0.
</event>
<event>
 5    0  0.5572507E-005  0.4294200E+03  0.7546771E-02  0.1034043E+00
         21   -1    0    0  502  501  0.00000000000E+00  0.00000000000E+00  0.15505136795E+03  0.15505136795E+03  0.00000000000E+00 0.  1.
         21   -1    0    0  501  502 -0.00000000000E+00 -0.00000000000E+00 -0.11892934372E+04  0.11892934372E+04  0.00000000000E+00 0.  1.
         25    1    1    2    0    0 -0.12669295309E+03  0.88876173610E+02  0.18054286847E+02  0.19975243646E+03  0.12500000000E+03 0.  0.
         25    1    1    2    0    0 -0.32982696636E+02 -0.27313449743E+02 -0.81827838169E+03  0.82887779120E+03  0.12500000000E+03 0.  0.
         25    1    1    2    0    0  0.15967564973E+03 -0.61562723867E+02 -0.23401797440E+03  0.31571457748E+03  0.12500000000E+03 0.  0.
</event>
<event>
 5    0  0.5572507E-005  0.4737540E+03  0.7546771E-02  0.1020866E+00
         21   -1    0    0  502  501  0.00000000000E+00  0.00000000000E+00  0.10954812680E+04  0.10954812680E+04  0.00000000000E+00 0.  1.
         21   -1    0    0  501  502 -0.00000000000E+00 -0.00000000000E+00 -0.20488057512E+03  0.20488057512E+03  0.00000000000E+00 0.  1.
         25    1    1    2    0    0  0.29396358546E+03 -0.91276205261E+02  0.44599191385E+03  0.55612923178E+03  0.12500000000E+03 0.  0.
         25    1    1    2    0    0 -0.95825220150E+02 -0.17775709623E+03  0.14413318837E+03  0.27781186812E+03  0.12500000000E+03 0.  0.
         25    1    1    2    0    0 -0.19813836531E+03  0.26903330149E+03  0.30047559063E+03  0.46642074319E+03  0.12500000000E+03 0.  0.
</event>
<event>
 5    0  0.5572507E-005  0.3560713E+03  0.7546771E-02  0.1060150E+00
         21   -1    0    0  502  501  0.00000000000E+00  0.00000000000E+00  0.32094156690E+03  0.32094156690E+03  0.00000000000E+00 0. -1.
         21   -1    0    0  501  502 -0.00000000000E+00 -0.00000000000E+00 -0.39504627913E+03  0.39504627913E+03  0.00000000000E+00 0. -1.
         25    1    1    2    0    0  0.16378127138E+02  0.31778272905E+02 -0.13205077769E+03  0.18531192505E+03  0.12500000000E+03 0.  0.
         25    1    1    2    0    0 -0.70112304491E+02  0.14371830861E+03 -0.12892135228E+03  0.24045041598E+03  0.12500000000E+03 0.  0.
         25    1    1    2    0    0  0.53734177353E+02 -0.17549658152E+03  0.18686741774E+03  0.29022550500E+03  0.12500000000E+03 0.  0.
</event>
<event>
 5    0  0.6339841E-005  0.2699625E+03  0.7546771E-02  0.1101301E+00
         21   -1    0    0  502  501  0.00000000000E+00  0.00000000000E+00  0.11581350716E+03  0.11581350716E+03  0.00000000000E+00 0. -1.
         21   -1    0    0  501  502 -0.00000000000E+00 -0.00000000000E+00 -0.62928547589E+03  0.62928547589E+03  0.00000000000E+00 0. -1.
         25    1    1    2    0    0  0.38594575094E+02 -0.83432778080E+02 -0.36652964682E+03  0.39801953681E+03  0.12500000000E+03 0.  0.
         25    1    1    2    0    0 -0.69568888251E+02  0.67693186788E+02 -0.14893991115E+03  0.21732532039E+03  0.12500000000E+03 0.  0.
         25    1    1    2    0    0  0.30974313157E+02  0.15739591292E+02  0.19975892398E+01  0.12975412584E+03  0.12500000000E+03 0.  0.
</event>
<event>
 5    0  0.5572507E-005  0.3444290E+03  0.7546771E-02  0.1064925E+00
         21   -1    0    0  502  501  0.00000000000E+00  0.00000000000E+00  0.40180035278E+03  0.40180035278E+03  0.00000000000E+00 0.  1.
         21   -1    0    0  501  502 -0.00000000000E+00 -0.00000000000E+00 -0.29524941358E+03  0.29524941358E+03  0.00000000000E+00 0.  1.
         25    1    1    2    0    0  0.36294883267E+02 -0.91917664020E+02  0.23808020937E+03  0.28648448755E+03  0.12500000000E+03 0.  0.
         25    1    1    2    0    0  0.43575949534E+02 -0.79014747501E+02 -0.12039508397E+02  0.15463551812E+03  0.12500000000E+03 0.  0.
         25    1    1    2    0    0 -0.79870832801E+02  0.17093241152E+03 -0.11948976178E+03  0.25592976070E+03  0.12500000000E+03 0.  0.
</event>
<event>
 5    0  0.5572507E-005  0.2616760E+03  0.7546771E-02  0.1106140E+00
         21   -1    0    0  502  501  0.00000000000E+00  0.00000000000E+00  0.21884208342E+03  0.21884208342E+03  0.00000000000E+00 0. -1.
         21   -1    0    0  501  502 -0.00000000000E+00 -0.00000000000E+00 -0.31289386397E+03  0.31289386397E+03  0.00000000000E+00 0. -1.
         25    1    1    2    0    0  0.77023345174E+02 -0.87655234211E+02  0.33790721706E+02  0.17430676596E+03  0.12500000000E+03 0.  0.
         25    1    1    2    0    0  0.44463255383E+02  0.79493377136E+02 -0.89749440730E+02  0.17881873559E+03  0.12500000000E+03 0.  0.
         25    1    1    2    0    0 -0.12148660056E+03  0.81618570747E+01 -0.38093061521E+02  0.17861044584E+03  0.12500000000E+03 0.  0.
</event>
<event>
 5    0  0.7310020E-005  0.2352023E+03  0.7546771E-02  0.1123031E+00
         21   -1    0    0  502  501  0.00000000000E+00  0.00000000000E+00  0.21030714611E+03  0.21030714611E+03  0.00000000000E+00 0.  1.
         21   -1    0    0  501  502 -0.00000000000E+00 -0.00000000000E+00 -0.26304435337E+03  0.26304435337E+03  0.00000000000E+00 0.  1.
         25    1    1    2    0    0 -0.18009984393E+02  0.24649545851E+02 -0.50173527425E+02  0.13810989285E+03  0.12500000000E+03 0.  0.
         25    1    1    2    0    0 -0.56726519021E+02 -0.25917776880E+02 -0.89231575818E+02  0.16576158554E+03  0.12500000000E+03 0.  0.
         25    1    1    2    0    0  0.74736503414E+02  0.12682310297E+01  0.86667895986E+02  0.16948002109E+03  0.12500000000E+03 0.  0.
</event>
<event>
 5    0  0.5572507E-005  0.2463971E+03  0.7546771E-02  0.1115603E+00
         21   -1    0    0  502  501  0.00000000000E+00  0.00000000000E+00  0.24075676266E+03  0.24075676266E+03  0.00000000000E+00 0.  1.
         21   -1    0    0  501  502 -0.00000000000E+00 -0.00000000000E+00 -0.25216962392E+03  0.25216962392E+03  0.00000000000E+00 0.  1.
         25    1    1    2    0    0  0.43904301076E+02 -0.15042266051E+02  0.12037202231E+03  0.17963374175E+03  0.12500000000E+03 0.  0.
         25    1    1    2    0    0  0.13270896033E+02 -0.28313737724E+02 -0.18929033240E+02  0.13023476005E+03  0.12500000000E+03 0.  0.
         25    1    1    2    0    0 -0.57175197109E+02  0.43356003775E+02 -0.11285585032E+03  0.18305788478E+03  0.12500000000E+03 0.  0.
</event>
<event>
 5    0  0.5572507E-005  0.2400951E+03  0.7546771E-02  0.1119729E+00
         21   -1    0    0  502  501  0.00000000000E+00  0.00000000000E+00  0.43598702156E+03  0.43598702156E+03  0.00000000000E+00 0. -1.
         21   -1    0    0  501  502 -0.00000000000E+00 -0.00000000000E+00 -0.13221878507E+03  0.13221878507E+03  0.00000000000E+00 0. -1.
         25    1    1    2    0    0 -0.12825937325E+03 -0.74723517550E+01  0.13246007112E+03  0.22288331770E+03  0.12500000000E+03 0.  0.
         25    1    1    2    0    0  0.49958944851E+02 -0.11587551077E+02  0.13756082413E+03  0.19281635783E+03  0.12500000000E+03 0.  0.
         25    1    1    2    0    0  0.78300428400E+02  0.19059902832E+02  0.33747341247E+02  0.15250613111E+03  0.12500000000E+03 0.  0.
</event>
<event>
 5    0  0.5572507E-005  0.3008082E+03  0.7546771E-02  0.1084837E+00
         21   -1    0    0  502  501  0.00000000000E+00  0.00000000000E+00  0.58848020173E+02  0.58848020173E+02  0.00000000000E+00 0. -1.
         21   -1    0    0  501  502 -0.00000000000E+00 -0.00000000000E+00 -0.15376146560E+04  0.15376146560E+04  0.00000000000E+00 0. -1.
         25    1    1    2    0    0 -0.10327883580E+03  0.90052284160E+02 -0.57849587645E+03  0.60750177850E+03  0.12500000000E+03 0.  0.
         25    1    1    2    0    0  0.78033152141E+02 -0.19459571703E+03 -0.55702876343E+03  0.60816339023E+03  0.12500000000E+03 0.  0.
         25    1    1    2    0    0  0.25245683663E+02  0.10454343287E+03 -0.34324199595E+03  0.38079750746E+03  0.12500000000E+03 0.  0.
</event>
<event>
 5    0  0.5572507E-005  0.2600039E+03  0.7546771E-02  0.1107141E+00
         21   -1    0    0  502  501  0.00000000000E+00  0.00000000000E+00  0.77737829044E+03  0.77737829044E+03  0.00000000000E+00 0. -1.
         21   -1    0    0  501  502 -0.00000000000E+00 -0.00000000000E+00 -0.86961542363E+02  0.86961542363E+02  0.00000000000E+00 0. -1.
         25    1    1    2    0    0  0.85323541787E+02 -0.49446541816E+02  0.23353552167E+03  0.28264625800E+03  0.12500000000E+03 0.  0.
         25    1    1    2    0    0  0.49068203657E+02  0.21216257884E+02  0.70814795519E+02  0.15328911727E+03  0.12500000000E+03 0.  0.
         25    1    1    2    0    0 -0.13439174544E+03  0.28230283932E+02  0.38606643089E+03  0.42840445753E+03  0.12500000000E+03 0.  0.
</event>
<event>
 5    0  0.5572507E-005  0.3716818E+03  0.7546771E-02  0.1054052E+00
         21   -1    0    0  502  501  0.00000000000E+00  0.00000000000E+00  0.19825536722E+03  0.19825536722E+03  0.00000000000E+00 0.  1.
         21   -1    0    0  501  502 -0.00000000000E+00 -0.00000000000E+00 -0.69681525902E+03  0.69681525902E+03  0.00000000000E+00 0.  1.
         25    1    1    2    0    0  0.42201543244E+02 -0.22111711039E+02  0.92022974788E+02  0.16236725626E+03  0.12500000000E+03 0.  0.
         25    1    1    2    0    0 -0.51744964641E+01  0.14849151007E+03 -0.11987956044E+03  0.22819424399E+03  0.12500000000E+03 0.  0.
         25    1    1    2    0    0 -0.37027046780E+02 -0.12637979903E+03 -0.47070330614E+03  0.50450912599E+03  0.12500000000E+03 0.  0.
</event>
<event>
 5    0  0.5572507E-005  0.2176264E+03  0.7546771E-02  0.1135665E+00
         21   -1    0    0  502  501  0.00000000000E+00  0.00000000000E+00  0.17499834349E+03  0.17499834349E+03  0.00000000000E+00 0.  1.
         21   -1    0    0  501  502 -0.00000000000E+00 -0.00000000000E+00 -0.27063824816E+03  0.27063824816E+03  0.00000000000E+00 0.  1.
         25    1    1    2    0    0  0.66706252072E+02 -0.24119257302E+02 -0.11374474205E+02  0.14417295621E+03  0.12500000000E+03 0.  0.
         25    1    1    2    0    0 -0.81426876625E+02 -0.85360336512E+00 -0.23011757177E+01  0.14920241381E+03  0.12500000000E+03 0.  0.
         25    1    1    2    0    0  0.14720624554E+02  0.24972860667E+02 -0.81964254755E+02  0.15226122164E+03  0.12500000000E+03 0.  0.
</event>
<event>
 5    0  0.5572507E-005  0.2626353E+03  0.7546771E-02  0.1105570E+00
         21   -1    0    0  502  501  0.00000000000E+00  0.00000000000E+00  0.30959338573E+03  0.30959338573E+03  0.00000000000E+00 0. -1.
         21   -1    0    0  501  502 -0.00000000000E+00 -0.00000000000E+00 -0.22279971988E+03  0.22279971988E+03  0.00000000000E+00 0. -1.
         25    1    1    2    0    0 -0.82179443564E+02 -0.98388876417E+02  0.61375263688E+02  0.18927692659E+03  0.12500000000E+03 0.  0.
         25    1    1    2    0    0  0.18623195083E+02  0.10109792830E+03  0.93820719431E+02  0.18706935050E+03  0.12500000000E+03 0.  0.
         25    1    1    2    0    0  0.63556248481E+02 -0.27090518873E+01 -0.68402317273E+02  0.15604682852E+03  0.12500000000E+03 0.  0.
</event>
<event>
 5    0  0.5572507E-005  0.6848776E+03  0.7546771E-02  0.9743449E-01
         21   -1    0    0  502  501  0.00000000000E+00  0.00000000000E+00  0.23405534359E+03  0.23405534359E+03  0.00000000000E+00 0.  1.
         21   -1    0    0  501  502 -0.00000000000E+00 -0.00000000000E+00 -0.20040442821E+04  0.20040442821E+04  0.00000000000E+00 0. -1.
         25    1    1    2    0    0  0.41351679181E+03  0.11022839507E+03 -0.95394460413E+03  0.10529870578E+04  0.12500000000E+03 0.  0.
         25    1    1    2    0    0 -0.28113481251E+03 -0.33328521041E+03 -0.18197196059E+03  0.48872754038E+03  0.12500000000E+03 0.  0.
         25    1    1    2    0    0 -0.13238197930E+03  0.22305681534E+03 -0.63407237383E+03  0.69638502753E+03  0.12500000000E+03 0.  0.
</event>
<event>
 5    0  0.5572507E-005  0.2890491E+03  0.7546771E-02  0.1090847E+00
         21   -1    0    0  502  501  0.00000000000E+00  0.00000000000E+00  0.15148749904E+04  0.15148749904E+04  0.00000000000E+00 0. -1.
         21   -1    0    0  501  502 -0.00000000000E+00 -0.00000000000E+00 -0.55152642720E+02  0.55152642720E+02  0.00000000000E+00 0. -1.
         25    1    1    2    0    0  0.34776825543E+02  0.19277558873E+03  0.61207313694E+03  0.65469869419E+03  0.12500000000E+03 0.  0.
         25    1    1    2    0    0 -0.38682727207E+01 -0.15578397073E+03  0.38598215310E+03  0.43461572864E+03  0.12500000000E+03 0.  0.
         25    1    1    2    0    0 -0.30908552822E+02 -0.36991618001E+02  0.46166705766E+03  0.48071321032E+03  0.12500000000E+03 0.  0.
</event>
<event>
 5    0  0.5578709E-005  0.2469666E+03  0.7546771E-02  0.1115237E+00
         21   -1    0    0  502  501  0.00000000000E+00  0.00000000000E+00  0.24264236757E+03  0.24264236757E+03  0.00000000000E+00 0.  1.
         21   -1    0    0  501  502 -0.00000000000E+00 -0.00000000000E+00 -0.25136785343E+03  0.25136785343E+03  0.00000000000E+00 0.  1.
         25    1    1    2    0    0 -0.63884951877E+02  0.64934965611E+02  0.10281178662E+03  0.18572318192E+03  0.12500000000E+03 0.  0.
         25    1    1    2    0    0 -0.13262556579E+00 -0.67115646898E+02 -0.27221031032E+02  0.14446630119E+03  0.12500000000E+03 0.  0.
         25    1    1    2    0    0  0.64017577443E+02  0.21806812870E+01 -0.84316241448E+02  0.16382073789E+03  0.12500000000E+03 0.  0.
</event>
<event>
 5    0  0.5572507E-005  0.2792101E+03  0.7546771E-02  0.1096121E+00
         21   -1    0    0  502  501  0.00000000000E+00  0.00000000000E+00  0.29508696388E+03  0.29508696388E+03  0.00000000000E+00 0. -1.
         21   -1    0    0  501  502 -0.00000000000E+00 -0.00000000000E+00 -0.26418744048E+03  0.26418744048E+03  0.00000000000E+00 0. -1.
         25    1    1    2    0    0  0.83427156026E+02  0.52479804285E+02  0.13065252358E+03  0.20593518917E+03  0.12500000000E+03 0.  0.
         25    1    1    2    0    0 -0.86321524329E+02  0.64896082300E+02 -0.28499122889E+02  0.16763086549E+03  0.12500000000E+03 0.  0.
         25    1    1    2    0    0  0.28943683024E+01 -0.11737588659E+03 -0.71253877294E+02  0.18570834970E+03  0.12500000000E+03 0.  0.
</event>
<event>
 5    0  0.5572507E-005  0.4124427E+03  0.7546771E-02  0.1039554E+00
         21   -1    0    0  502  501  0.00000000000E+00  0.00000000000E+00  0.83980657320E+03  0.83980657320E+03  0.00000000000E+00 0. -1.
         21   -1    0    0  501  502 -0.00000000000E+00 -0.00000000000E+00 -0.20255732157E+03  0.20255732157E+03  0.00000000000E+00 0. -1.
         25    1    1    2    0    0  0.18911238109E+03  0.87529091210E+02  0.33352294118E+03  0.41265892306E+03  0.12500000000E+03 0.  0.
         25    1    1    2    0    0  0.50779717798E+02  0.83977452163E+02  0.26237788025E+03  0.30675388222E+03  0.12500000000E+03 0.  0.
         25    1    1    2    0    0 -0.23989209889E+03 -0.17150654337E+03  0.41348430203E+02  0.32295108950E+03  0.12500000000E+03 0.  0.
</event>
<event>
 5    0  0.5572507E-005  0.2516245E+03  0.7546771E-02  0.1112282E+00
         21   -1    0    0  502  501  0.00000000000E+00  0.00000000000E+00  0.63306790412E+03  0.63306790412E+03  0.00000000000E+00 0.  1.
         21   -1    0    0  501  502 -0.00000000000E+00 -0.00000000000E+00 -0.10001282063E+03  0.10001282063E+03  0.00000000000E+00 0.  1.
         25    1    1    2    0    0 -0.49821316517E+02 -0.34901088989E+02  0.46698984157E+02  0.14664939384E+03  0.12500000000E+03 0.  0.
         25    1    1    2    0    0  0.95176253626E+02  0.86778654865E+02  0.21712763985E+03  0.28170634743E+03  0.12500000000E+03 0.  0.
         25    1    1    2    0    0 -0.45354937108E+02 -0.51877565876E+02  0.26922845948E+03  0.30472498348E+03  0.12500000000E+03 0.  0.
</event>
<event>
 5    0  0.5572507E-005  0.4125047E+03  0.7546771E-02  0.1039534E+00
         21   -1    0    0  502  501  0.00000000000E+00  0.00000000000E+00  0.19138156833E+03  0.19138156833E+03  0.00000000000E+00 0. -1.
         21   -1    0    0  501  502 -0.00000000000E+00 -0.00000000000E+00 -0.88911451132E+03  0.88911451132E+03  0.00000000000E+00 0. -1.
         25    1    1    2    0    0  0.42652803403E+02 -0.23344780572E+03 -0.17081304338E+03  0.31799250844E+03  0.12500000000E+03 0.  0.
         25    1    1    2    0    0  0.81938975136E+02 -0.81093697783E+02 -0.79212849684E+02  0.18758960265E+03  0.12500000000E+03 0.  0.
         25    1    1    2    0    0 -0.12459177854E+03  0.31454150350E+03 -0.44770704992E+03  0.57491396857E+03  0.12500000000E+03 0.  0.
</event>
<event>
 5    0  0.5572507E-005  0.3979965E+03  0.7546771E-02  0.1044476E+00
         21   -1    0    0  502  501  0.00000000000E+00  0.00000000000E+00  0.77215125064E+03  0.77215125064E+03  0.00000000000E+00 0. -1.
         21   -1    0    0  501  502 -0.00000000000E+00 -0.00000000000E+00 -0.20514275867E+03  0.20514275867E+03  0.00000000000E+00 0. -1.
         25    1    1    2    0    0  0.13245612090E+03 -0.10495296327E+03  0.25451178672E+03  0.33009240834E+03  0.12500000000E+03 0.  0.
         25    1    1    2    0    0  0.68867971422E+02 -0.11833623776E+03  0.25702443450E+03  0.31691137970E+03  0.12500000000E+03 0.  0.
         25    1    1    2    0    0 -0.20132409232E+03  0.22328920103E+03  0.55472270759E+02  0.33029022127E+03  0.12500000000E+03 0.  0.
</event>
<event>
 5    0  0.5572507E-005  0.2083860E+03  0.7546771E-02  0.1142851E+00
         21   -1    0    0  502  501  0.00000000000E+00  0.00000000000E+00  0.65576613813E+02  0.65576613813E+02  0.00000000000E+00 0. -1.
         21   -1    0    0  501  502 -0.00000000000E+00 -0.00000000000E+00 -0.66219816090E+03  0.66219816090E+03  0.00000000000E+00 0. -1.
         25    1    1    2    0    0  0.19398421310E+01 -0.19851461899E+02 -0.23212190678E+03  0.26439255499E+03  0.12500000000E+03 0.  0.
         25    1    1    2    0    0 -0.10745415936E+02 -0.25390203905E+02 -0.27370666869E+03  0.30215967121E+03  0.12500000000E+03 0.  0.
         25    1    1    2    0    0  0.88055738051E+01  0.45241665804E+02 -0.90792971615E+02  0.16122254851E+03  0.12500000000E+03 0.  0.
</event>
<event>
 5    0  0.5572507E-005  0.2843861E+03  0.7546771E-02  0.1093317E+00
         21   -1    0    0  502  501  0.00000000000E+00  0.00000000000E+00  0.68964917476E+03  0.68964917476E+03  0.00000000000E+00 0. -1.
         21   -1    0    0  501  502 -0.00000000000E+00 -0.00000000000E+00 -0.11727045643E+03  0.11727045643E+03  0.00000000000E+00 0. -1.
         25    1    1    2    0    0 -0.86313985354E+01 -0.11470854768E+03  0.29542460470E+03  0.34078328746E+03  0.12500000000E+03 0.  0.
         25    1    1    2    0    0  0.37950299179E+02 -0.69476994470E+02  0.84295736091E+02  0.17028813550E+03  0.12500000000E+03 0.  0.
         25    1    1    2    0    0 -0.29318900644E+02  0.18418554215E+03  0.19265837754E+03  0.29584820822E+03  0.12500000000E+03 0.  0.
</event>
<event>
 5    0  0.5572507E-005  0.2759377E+03  0.7546771E-02  0.1097929E+00
         21   -1    0    0  502  501  0.00000000000E+00  0.00000000000E+00  0.44501561205E+03  0.44501561205E+03  0.00000000000E+00 0.  1.
         21   -1    0    0  501  502 -0.00000000000E+00 -0.00000000000E+00 -0.17109880770E+03  0.17109880770E+03  0.00000000000E+00 0.  1.
         25    1    1    2    0    0 -0.19681700487E+02  0.13317748543E+03  0.17470076384E+03  0.25351325181E+03  0.12500000000E+03 0.  0.
         25    1    1    2    0    0 -0.49880685439E+02 -0.60096744387E+02 -0.37020247374E+02  0.15197105047E+03  0.12500000000E+03 0.  0.
         25    1    1    2    0    0  0.69562385926E+02 -0.73080741038E+02  0.13623628789E+03  0.21063011747E+03  0.12500000000E+03 0.  0.
</event>
<event>
 5    0  0.5572507E-005  0.2421834E+03  0.7546771E-02  0.1118347E+00
         21   -1    0    0  502  501  0.00000000000E+00  0.00000000000E+00  0.17721815650E+03  0.17721815650E+03  0.00000000000E+00 0. -1.
         21   -1    0    0  501  502 -0.00000000000E+00 -0.00000000000E+00 -0.33096385977E+03  0.33096385977E+03  0.00000000000E+00 0. -1.
         25    1    1    2    0    0  0.35895545708E+02 -0.10483692357E+03 -0.84919377470E+02  0.18739149238E+03  0.12500000000E+03 0.  0.
         25    1    1    2    0    0  0.40901655476E+02  0.10206123427E+03 -0.40837149139E+02  0.17141211658E+03  0.12500000000E+03 0.  0.
         25    1    1    2    0    0 -0.76797201184E+02  0.27756893040E+01 -0.27989176661E+02  0.14937840731E+03  0.12500000000E+03 0.  0.
</event>
<event>
 5    0  0.5572507E-005  0.3257744E+03  0.7546771E-02  0.1073022E+00
         21   -1    0    0  502  501  0.00000000000E+00  0.00000000000E+00  0.43266493967E+03  0.43266493967E+03  0.00000000000E+00 0. -1.
         21   -1    0    0  501  502 -0.00000000000E+00 -0.00000000000E+00 -0.24529135188E+03  0.24529135188E+03  0.00000000000E+00 0. -1.
         25    1    1    2    0    0  0.14383516224E+03 -0.35050899681E+01 -0.64916347071E+02  0.20134540389E+03  0.12500000000E+03 0.  0.
         25    1    1    2    0    0 -0.14528687897E+03 -0.11462198561E+03  0.92068772503E+02  0.24155358755E+03  0.12500000000E+03 0.  0.
         25    1    1    2    0    0  0.14517167350E+01  0.11812707558E+03  0.16022116235E+03  0.23505730011E+03  0.12500000000E+03 0.  0.
</event>
<event>
 5    0  0.5572507E-005  0.2907417E+03  0.7546771E-02  0.1089963E+00
         21   -1    0    0  502  501  0.00000000000E+00  0.00000000000E+00  0.20571689853E+03  0.20571689853E+03  0.00000000000E+00 0. -1.
         21   -1    0    0  501  502 -0.00000000000E+00 -0.00000000000E+00 -0.41090814566E+03  0.41090814566E+03  0.00000000000E+00 0. -1.
         25    1    1    2    0    0  0.11331392242E+03  0.29526225101E+02  0.72415310564E+02  0.18595918958E+03  0.12500000000E+03 0.  0.
         25    1    1    2    0    0 -0.13080695396E+03 -0.70643623568E+02 -0.18936907735E+03  0.27126855367E+03  0.12500000000E+03 0.  0.
         25    1    1    2    0    0  0.17493031535E+02  0.41117398467E+02 -0.88237480340E+02  0.15939730094E+03  0.12500000000E+03 0.  0.
</event>
<event>
 5    0  0.5572507E-005  0.2712940E+03  0.7546771E-02  0.1100541E+00
         21   -1    0    0  502  501  0.00000000000E+00  0.00000000000E+00  0.10227892692E+04  0.10227892692E+04  0.00000000000E+00 0. -1.
         21   -1    0    0  501  502 -0.00000000000E+00 -0.00000000000E+00 -0.71960485445E+02  0.71960485445E+02  0.00000000000E+00 0. -1.
         25    1    1    2    0    0 -0.83640505980E+02  0.42935937689E+02  0.65693764595E+03  0.67530089564E+03  0.12500000000E+03 0.  0.
         25    1    1    2    0    0  0.23204959665E+02 -0.75162241353E+02  0.20057581974E+03  0.24908531097E+03  0.12500000000E+03 0.  0.
         25    1    1    2    0    0  0.60435546315E+02  0.32226303665E+02  0.93315318024E+02  0.17036354799E+03  0.12500000000E+03 0.  0.
</event>
<event>
 5    0  0.5572507E-005  0.5017651E+03  0.7546771E-02  0.1013319E+00
         21   -1    0    0  502  501  0.00000000000E+00  0.00000000000E+00  0.41107652811E+03  0.41107652811E+03  0.00000000000E+00 0.  1.
         21   -1    0    0  501  502 -0.00000000000E+00 -0.00000000000E+00 -0.61246079579E+03  0.61246079579E+03  0.00000000000E+00 0.  1.
         25    1    1    2    0    0 -0.25296288120E+02  0.17553335027E+03  0.26953634438E+03  0.34601546236E+03  0.12500000000E+03 0.  0.
         25    1    1    2    0    0 -0.45221638532E+02  0.10566873926E+03 -0.19119727527E+03  0.25571913718E+03  0.12500000000E+03 0.  0.
         25    1    1    2    0    0  0.70517926652E+02 -0.28120208954E+03 -0.27972333679E+03  0.42180272437E+03  0.12500000000E+03 0.  0.
</event>
<event>
 5    0  0.5599249E-005  0.3825148E+03  0.7546771E-02  0.1050008E+00
         21   -1    0    0  502  501  0.00000000000E+00  0.00000000000E+00  0.24264581551E+03  0.24264581551E+03  0.00000000000E+00 0. -1.
         21   -1    0    0  501  502 -0.00000000000E+00 -0.00000000000E+00 -0.60300895263E+03  0.60300895263E+03  0.00000000000E+00 0. -1.
         25    1    1    2    0    0 -0.14292844681E+03 -0.12958420074E+03 -0.72216220886E+01  0.22999512563E+03  0.12500000000E+03 0.  0.
         25    1    1    2    0    0  0.24233778342E+03  0.18955419350E+03 -0.25630133057E+03  0.41949227121E+03  0.12500000000E+03 0.  0.
         25    1    1    2    0    0 -0.99409336603E+02 -0.59969992766E+02 -0.96840184459E+02  0.19616737130E+03  0.12500000000E+03 0.  0.
</event>
<event>
 5    0  0.5572507E-005  0.2607290E+03  0.7546771E-02  0.1106706E+00
         21   -1    0    0  502  501  0.00000000000E+00  0.00000000000E+00  0.82672329030E+03  0.82672329030E+03  0.00000000000E+00 0. -1.
         21   -1    0    0  501  502 -0.00000000000E+00 -0.00000000000E+00 -0.82227791497E+02  0.82227791497E+02  0.00000000000E+00 0. -1.
         25    1    1    2    0    0  0.82164626016E+02 -0.10207330604E+03  0.27847639495E+03  0.33218080637E+03  0.12500000000E+03 0.  0.
         25    1    1    2    0    0 -0.11965049491E+02  0.39736503985E+02  0.37133918692E+03  0.39400500492E+03  0.12500000000E+03 0.  0.
         25    1    1    2    0    0 -0.70199576525E+02  0.62336802051E+02  0.94679916925E+02  0.18276527051E+03  0.12500000000E+03 0.  0.
</event>
<event>
 5    0  0.5572507E-005  0.4828598E+03  0.7546771E-02  0.1018352E+00
         21   -1    0    0  502  501  0.00000000000E+00  0.00000000000E+00  0.10800136144E+04  0.10800136144E+04  0.00000000000E+00 0.  1.
         21   -1    0    0  501  502 -0.00000000000E+00 -0.00000000000E+00 -0.21588021399E+03  0.21588021399E+03  0.00000000000E+00 0.  1.
         25    1    1    2    0    0 -0.29142290347E+03 -0.18589146120E+03  0.24907845439E+03  0.44401353634E+03  0.12500000000E+03 0.  0.
         25    1    1    2    0    0  0.70460856026E+01 -0.31794161010E+02  0.38997130654E+03  0.41080790635E+03  0.12500000000E+03 0.  0.
         25    1    1    2    0    0  0.28437681786E+03  0.21768562221E+03  0.22508363945E+03  0.44107238568E+03  0.12500000000E+03 0.  0.
</event>
<event>
 5    0  0.5572507E-005  0.3791841E+03  0.7546771E-02  0.1051236E+00
         21   -1    0    0  502  501  0.00000000000E+00  0.00000000000E+00  0.13978853365E+04  0.13978853365E+04  0.00000000000E+00 0. -1.
         21   -1    0    0  501  502 -0.00000000000E+00 -0.00000000000E+00 -0.10285577706E+03  0.10285577706E+03  0.00000000000E+00 0. -1.
         25    1    1    2    0    0 -0.10816560467E+03  0.81672912879E+02  0.67995346116E+02  0.19651623298E+03  0.12500000000E+03 0.  0.
         25    1    1    2    0    0  0.33388602815E+02  0.71611870681E+02  0.16595640878E+03  0.22228267687E+03  0.12500000000E+03 0.  0.
         25    1    1    2    0    0  0.74777001858E+02 -0.15328478356E+03  0.10610778046E+04  0.10819422037E+04  0.12500000000E+03 0.  0.
</event>
<event>
 5    0  0.5572507E-005  0.2480672E+03  0.7546771E-02  0.1114532E+00
         21   -1    0    0  502  501  0.00000000000E+00  0.00000000000E+00  0.33303078167E+03  0.33303078167E+03  0.00000000000E+00 0.  1.
         21   -1    0    0  501  502 -0.00000000000E+00 -0.00000000000E+00 -0.18477975029E+03  0.18477975029E+03  0.00000000000E+00 0.  1.
         25    1    1    2    0    0 -0.42433345330E+02 -0.12180509928E+03  0.91316928044E+02  0.20149653187E+03  0.12500000000E+03 0.  0.
         25    1    1    2    0    0  0.29823961265E+02  0.12945788476E+03  0.54666021923E+02  0.19042632839E+03  0.12500000000E+03 0.  0.
         25    1    1    2    0    0  0.12609384065E+02 -0.76527854765E+01  0.22680814141E+01  0.12588767170E+03  0.12500000000E+03 0.  0.
</event>
<event>
 5    0  0.5572507E-005  0.2533534E+03  0.7546771E-02  0.1111204E+00
         21   -1    0    0  502  501  0.00000000000E+00  0.00000000000E+00  0.95383660219E+02  0.95383660219E+02  0.00000000000E+00 0. -1.
         21   -1    0    0  501  502 -0.00000000000E+00 -0.00000000000E+00 -0.67294478666E+03  0.67294478666E+03  0.00000000000E+00 0. -1.
         25    1    1    2    0    0  0.44574701943E+02  0.11473931902E+03 -0.17002927708E+03  0.24430916979E+03  0.12500000000E+03 0.  0.
         25    1    1    2    0    0 -0.94275648661E+02 -0.99671937672E+02 -0.17575453496E+03  0.25561112974E+03  0.12500000000E+03 0.  0.
         25    1    1    2    0    0  0.49700946718E+02 -0.15067381349E+02 -0.23177731440E+03  0.26840814734E+03  0.12500000000E+03 0.  0.
</event>
<event>
 5    0  0.5572507E-005  0.3655214E+03  0.7546771E-02  0.1056419E+00
         21   -1    0    0  502  501  0.00000000000E+00  0.00000000000E+00  0.34274179399E+03  0.34274179399E+03  0.00000000000E+00 0. -1.
         21   -1    0    0  501  502 -0.00000000000E+00 -0.00000000000E+00 -0.38981506923E+03  0.38981506923E+03  0.00000000000E+00 0. -1.
         25    1    1    2    0    0  0.13699989351E+03 -0.72484912916E+02  0.88027254492E+02  0.21770813250E+03  0.12500000000E+03 0.  0.
         25    1    1    2    0    0 -0.11529529331E+03 -0.12344946708E+03  0.51094929410E+02  0.21626018449E+03  0.12500000000E+03 0.  0.
         25    1    1    2    0    0 -0.21704600195E+02  0.19593438000E+03 -0.18619545915E+03  0.29858854623E+03  0.12500000000E+03 0.  0.
</event>
<event>
 5    0  0.5572507E-005  0.2718164E+03  0.7546771E-02  0.1100245E+00
         21   -1    0    0  502  501  0.00000000000E+00  0.00000000000E+00  0.63410950398E+03  0.63410950398E+03  0.00000000000E+00 0.  1.
         21   -1    0    0  501  502 -0.00000000000E+00 -0.00000000000E+00 -0.11651638242E+03  0.11651638242E+03  0.00000000000E+00 0.  1.
         25    1    1    2    0    0  0.84335438362E+02 -0.94350636063E+02  0.36682049200E+02  0.18161795457E+03  0.12500000000E+03 0.  0.
         25    1    1    2    0    0 -0.21157893870E+02 -0.98847345931E+01  0.23831929603E+03  0.27012302995E+03  0.12500000000E+03 0.  0.
         25    1    1    2    0    0 -0.63177544492E+02  0.10423537066E+03  0.24259177633E+03  0.29888490187E+03  0.12500000000E+03 0.  0.
</event>
<event>
 5    0  0.5572507E-005  0.6682771E+03  0.7546771E-02  0.9773075E-01
         21   -1    0    0  502  501  0.00000000000E+00  0.00000000000E+00  0.25580183391E+03  0.25580183391E+03  0.00000000000E+00 0. -1.
         21   -1    0    0  501  502 -0.00000000000E+00 -0.00000000000E+00 -0.17458601324E+04  0.17458601324E+04  0.00000000000E+00 0. -1.
         25    1    1    2    0    0 -0.14110962080E+03 -0.26061855738E+03 -0.67897338030E+03  0.75130806510E+03  0.12500000000E+03 0.  0.
         25    1    1    2    0    0 -0.11168075763E+03  0.52994657604E+03 -0.54372810509E+03  0.77754820902E+03  0.12500000000E+03 0.  0.
         25    1    1    2    0    0  0.25279037842E+03 -0.26932801865E+03 -0.26735681308E+03  0.47280569218E+03  0.12500000000E+03 0.  0.
</event>
<event>
 5    0  0.5962554E-005  0.2918217E+03  0.7546771E-02  0.1089402E+00
         21   -1    0    0  502  501  0.00000000000E+00  0.00000000000E+00  0.16122563951E+03  0.16122563951E+03  0.00000000000E+00 0.  1.
         21   -1    0    0  501  502 -0.00000000000E+00 -0.00000000000E+00 -0.52820324814E+03  0.52820324814E+03  0.00000000000E+00 0.  1.
         25    1    1    2    0    0  0.94988891347E+02 -0.70864439265E+02 -0.13303083464E+03  0.21763929148E+03  0.12500000000E+03 0.  0.
         25    1    1    2    0    0  0.82490943431E+02  0.39248166531E+01 -0.59436758661E+01  0.14993494328E+03  0.12500000000E+03 0.  0.
         25    1    1    2    0    0 -0.17747983478E+03  0.66939622612E+02 -0.22800309813E+03  0.32185465289E+03  0.12500000000E+03 0.  0.
</event>
<event>
 5    0  0.5572507E-005  0.3211640E+03  0.7546771E-02  0.1075115E+00
         21   -1    0    0  502  501  0.00000000000E+00  0.00000000000E+00  0.42006487508E+03  0.42006487508E+03  0.00000000000E+00 0.  1.
         21   -1    0    0  501  502 -0.00000000000E+00 -0.00000000000E+00 -0.24554857509E+03  0.24554857509E+03  0.00000000000E+00 0.  1.
         25    1    1    2    0    0 -0.35558942744E+02  0.15674160319E+03  0.17159824678E+02  0.20433264096E+03  0.12500000000E+03 0.  0.
         25    1    1    2    0    0 -0.23927561167E+02 -0.21199373938E+03  0.18611537496E+03  0.30947989679E+03  0.12500000000E+03 0.  0.
         25    1    1    2    0    0  0.59486503911E+02  0.55252136188E+02 -0.28758899649E+02  0.15180091241E+03  0.12500000000E+03 0.  0.
</event>
<event>
 5    0  0.5572507E-005  0.2782790E+03  0.7546771E-02  0.1096633E+00
         21   -1    0    0  502  501  0.00000000000E+00  0.00000000000E+00  0.12381483197E+04  0.12381483197E+04  0.00000000000E+00 0. -1.
         21   -1    0    0  501  502 -0.00000000000E+00 -0.00000000000E+00 -0.62544366775E+02  0.62544366775E+02  0.00000000000E+00 0. -1.
         25    1    1    2    0    0 -0.77887643586E+02 -0.12403806727E+03  0.25434474092E+03  0.31901124493E+03  0.12500000000E+03 0.  0.
         25    1    1    2    0    0  0.43951231777E+02  0.14988500233E+03  0.45419883211E+03  0.49630515189E+03  0.12500000000E+03 0.  0.
         25    1    1    2    0    0  0.33936411809E+02 -0.25846935054E+02  0.46706037990E+03  0.48537628967E+03  0.12500000000E+03 0.  0.
</event>
<event>
 5    0  0.5572507E-005  0.2163211E+03  0.7546771E-02  0.1136656E+00
         21   -1    0    0  502  501  0.00000000000E+00  0.00000000000E+00  0.39199000692E+02  0.39199000692E+02  0.00000000000E+00 0.  1.
         21   -1    0    0  501  502 -0.00000000000E+00 -0.00000000000E+00 -0.11937757716E+04  0.11937757716E+04  0.00000000000E+00 0.  1.
         25    1    1    2    0    0 -0.41837515702E+02 -0.28436587030E+02 -0.39950535695E+03  0.42164979240E+03  0.12500000000E+03 0.  0.
         25    1    1    2    0    0 -0.22882687680E+02 -0.48647810244E+02 -0.36425097358E+03  0.38883672485E+03  0.12500000000E+03 0.  0.
         25    1    1    2    0    0  0.64720203382E+02  0.77084397274E+02 -0.39082044035E+03  0.42248825502E+03  0.12500000000E+03 0.  0.
</event>
<event>
 5    0  0.7110084E-005  0.2988168E+03  0.7546771E-02  0.1085834E+00
         21   -1    0    0  502  501  0.00000000000E+00  0.00000000000E+00  0.21747652575E+03  0.21747652575E+03  0.00000000000E+00 0.  1.
         21   -1    0    0  501  502 -0.00000000000E+00 -0.00000000000E+00 -0.41057978962E+03  0.41057978962E+03  0.00000000000E+00 0.  1.
         25    1    1    2    0    0 -0.88714879481E+02 -0.11628211741E+03 -0.24455995997E+03  0.31116946298E+03  0.12500000000E+03 0.  0.
         25    1    1    2    0    0  0.47863186498E+00  0.20753089041E+02  0.50776367282E+02  0.13650699348E+03  0.12500000000E+03 0.  0.
         25    1    1    2    0    0  0.88236247616E+02  0.95529028373E+02  0.68032882191E+00  0.18037985892E+03  0.12500000000E+03 0.  0.
</event>
<event>
 5    0  0.5572507E-005  0.5054459E+03  0.7546771E-02  0.1012367E+00
         21   -1    0    0  502  501  0.00000000000E+00  0.00000000000E+00  0.22010501585E+03  0.22010501585E+03  0.00000000000E+00 0. -1.
         21   -1    0    0  501  502 -0.00000000000E+00 -0.00000000000E+00 -0.11606985276E+04  0.11606985276E+04  0.00000000000E+00 0. -1.
         25    1    1    2    0    0 -0.17430347272E+03  0.46185414530E+02 -0.83428714241E+03  0.86265568398E+03  0.12500000000E+03 0.  0.
         25    1    1    2    0    0  0.17055426538E+03 -0.98590036074E+02 -0.23504157073E+03  0.33117713179E+03  0.12500000000E+03 0.  0.
         25    1    1    2    0    0  0.37492073322E+01  0.52404621544E+02  0.12873520141E+03  0.18697072765E+03  0.12500000000E+03 0.  0.
</event>
<event>
 5    0  0.5572507E-005  0.3084473E+03  0.7546771E-02  0.1081093E+00
         21   -1    0    0  502  501  0.00000000000E+00  0.00000000000E+00  0.57912928751E+03  0.57912928751E+03  0.00000000000E+00 0. -1.
         21   -1    0    0  501  502 -0.00000000000E+00 -0.00000000000E+00 -0.16428063398E+03  0.16428063398E+03  0.00000000000E+00 0. -1.
         25    1    1    2    0    0  0.12528910206E+03  0.53305931803E+02  0.50156886887E+02  0.19151917596E+03  0.12500000000E+03 0.  0.
         25    1    1    2    0    0 -0.87212670817E+02  0.77549377802E+02  0.31814776877E+03  0.36119656521E+03  0.12500000000E+03 0.  0.
         25    1    1    2    0    0 -0.38076431240E+02 -0.13085530960E+03  0.46543997876E+02  0.19069418032E+03  0.12500000000E+03 0.  0.
</event>
<event>
 5    0  0.5572507E-005  0.2933523E+03  0.7546771E-02  0.1088612E+00
         21   -1    0    0  502  501  0.00000000000E+00  0.00000000000E+00  0.10083622511E+03  0.10083622511E+03  0.00000000000E+00 0.  1.
         21   -1    0    0  501  502 -0.00000000000E+00 -0.00000000000E+00 -0.85341947004E+03  0.85341947004E+03  0.00000000000E+00 0.  1.
         25    1    1    2    0    0 -0.12745319225E+03 -0.68829000080E+02 -0.23390562407E+03  0.30218965640E+03  0.12500000000E+03 0.  0.
         25    1    1    2    0    0 -0.69805900804E+02  0.23655733437E+02 -0.27850890600E+03  0.31404564674E+03  0.12500000000E+03 0.  0.
         25    1    1    2    0    0  0.19725909305E+03  0.45173266643E+02 -0.24016871486E+03  0.33802039200E+03  0.12500000000E+03 0.  0.
</event>
<event>
 5    0  0.5572507E-005  0.3296892E+03  0.7546771E-02  0.1071274E+00
         21   -1    0    0  502  501  0.00000000000E+00  0.00000000000E+00  0.10901557478E+04  0.10901557478E+04  0.00000000000E+00 0. -1.
         21   -1    0    0  501  502 -0.00000000000E+00 -0.00000000000E+00 -0.99705912974E+02  0.99705912974E+02  0.00000000000E+00 0. -1.
         25    1    1    2    0    0 -0.29247548652E+02 -0.14265632868E+03  0.26498304415E+03  0.32718077710E+03  0.12500000000E+03 0.  0.
         25    1    1    2    0    0  0.12495354574E+03  0.91875586530E+02  0.11459339788E+03  0.22980678587E+03  0.12500000000E+03 0.  0.
         25    1    1    2    0    0 -0.95705997093E+02  0.50780742150E+02  0.61087339283E+03  0.63287409785E+03  0.12500000000E+03 0.  0.
</event>
<event>
 5    0  0.5572507E-005  0.2755480E+03  0.7546771E-02  0.1098146E+00
         21   -1    0    0  502  501  0.00000000000E+00  0.00000000000E+00  0.43267584144E+03  0.43267584144E+03  0.00000000000E+00 0. -1.
         21   -1    0    0  501  502 -0.00000000000E+00 -0.00000000000E+00 -0.17548165978E+03  0.17548165978E+03  0.00000000000E+00 0. -1.
         25    1    1    2    0    0  0.14616340337E+02  0.58670531707E+02 -0.32120071296E+01  0.13889271286E+03  0.12500000000E+03 0.  0.
         25    1    1    2    0    0 -0.15061223414E+03 -0.11892348461E+02  0.99605160642E+02  0.21993558387E+03  0.12500000000E+03 0.  0.
         25    1    1    2    0    0  0.13599589380E+03 -0.46778183247E+02  0.16080102814E+03  0.24932920449E+03  0.12500000000E+03 0.  0.
</event>
<event>
 5    0  0.5572507E-005  0.3168076E+03  0.7546771E-02  0.1077128E+00
         21   -1    0    0  502  501  0.00000000000E+00  0.00000000000E+00  0.60074573992E+02  0.60074573992E+02  0.00000000000E+00 0.  1.
         21   -1    0    0  501  502 -0.00000000000E+00 -0.00000000000E+00 -0.16707077021E+04  0.16707077021E+04  0.00000000000E+00 0.  1.
         25    1    1    2    0    0 -0.11591941699E+03 -0.17250320835E+03 -0.37687521444E+03  0.44816804369E+03  0.12500000000E+03 0.  0.
         25    1    1    2    0    0  0.10440816244E+03  0.10755268002E+03 -0.88578757675E+03  0.90703543177E+03  0.12500000000E+03 0.  0.
         25    1    1    2    0    0  0.11511254551E+02  0.64950528329E+02 -0.34797033695E+03  0.37557880067E+03  0.12500000000E+03 0.  0.
</event>
<event>
 5    0  0.5572507E-005  0.2630338E+03  0.7546771E-02  0.1105334E+00
         21   -1    0    0  502  501  0.00000000000E+00  0.00000000000E+00  0.43443434577E+03  0.43443434577E+03  0.00000000000E+00 0.  1.
         21   -1    0    0  501  502 -0.00000000000E+00 -0.00000000000E+00 -0.15925721969E+03  0.15925721969E+03  0.00000000000E+00 0.  1.
         25    1    1    2    0    0  0.32763179478E+02 -0.11300702565E+03  0.11374406965E+03  0.20592893715E+03  0.12500000000E+03 0.  0.
         25    1    1    2    0    0 -0.64934268813E+02 -0.26379765416E+02  0.79343037812E+01  0.14352806160E+03  0.12500000000E+03 0.  0.
         25    1    1    2    0    0  0.32171089334E+02  0.13938679106E+03  0.15349875265E+03  0.24423456671E+03  0.12500000000E+03 0.  0.
</event>
<event>
 5    0  0.5572507E-005  0.3608061E+03  0.7546771E-02  0.1058265E+00
         21   -1    0    0  502  501  0.00000000000E+00  0.00000000000E+00  0.39757069489E+03  0.39757069489E+03  0.00000000000E+00 0. -1.
         21   -1    0    0  501  502 -0.00000000000E+00 -0.00000000000E+00 -0.32744124688E+03  0.32744124688E+03  0.00000000000E+00 0. -1.
         25    1    1    2    0    0  0.20446960740E+03  0.20991164370E+03  0.62004158520E+02  0.32456160306E+03  0.12500000000E+03 0.  0.
         25    1    1    2    0    0 -0.14504301951E+03 -0.82005017563E+02  0.31068133576E+02  0.21060040204E+03  0.12500000000E+03 0.  0.
         25    1    1    2    0    0 -0.59426587882E+02 -0.12790662614E+03 -0.22942844091E+02  0.18984993667E+03  0.12500000000E+03 0.  0.
</event>
<event>
 5    0  0.5572507E-005  0.4104219E+03  0.7546771E-02  0.1040230E+00
         21   -1    0    0  502  501  0.00000000000E+00  0.00000000000E+00  0.70679230794E+03  0.70679230794E+03  0.00000000000E+00 0.  1.
         21   -1    0    0  501  502 -0.00000000000E+00 -0.00000000000E+00 -0.23832475137E+03  0.23832475137E+03  0.00000000000E+00 0.  1.
         25    1    1    2    0    0 -0.10813022120E+03 -0.13636249087E+03  0.45349310436E+02  0.21901697106E+03  0.12500000000E+03 0.  0.
         25    1    1    2    0    0 -0.14027030411E+03 -0.78857665002E+02  0.42943773430E+02  0.20823894261E+03  0.12500000000E+03 0.  0.
         25    1    1    2    0    0  0.24840052531E+03  0.21522015587E+03  0.38017447271E+03  0.51786114564E+03  0.12500000000E+03 0.  0.
</event>
<event>
 5    0  0.5572507E-005  0.3184936E+03  0.7546771E-02  0.1076345E+00
         21   -1    0    0  502  501  0.00000000000E+00  0.00000000000E+00  0.63918561560E+03  0.63918561560E+03  0.00000000000E+00 0. -1.
         21   -1    0    0  501  502 -0.00000000000E+00 -0.00000000000E+00 -0.15869906430E+03  0.15869906430E+03  0.00000000000E+00 0. -1.
         25    1    1    2    0    0 -0.19559223426E+03 -0.11172855138E+02  0.30747569747E+03  0.38541855083E+03  0.12500000000E+03 0.  0.
         25    1    1    2    0    0  0.12769285825E+02 -0.63221292581E+02  0.59644318580E+02  0.15278230014E+03  0.12500000000E+03 0.  0.
         25    1    1    2    0    0  0.18282294844E+03  0.74394147718E+02  0.11336653526E+03  0.25968382893E+03  0.12500000000E+03 0.  0.
</event>
<event>
 5    0  0.5572507E-005  0.3122993E+03  0.7546771E-02  0.1079249E+00
         21   -1    0    0  502  501  0.00000000000E+00  0.00000000000E+00  0.97402736658E+03  0.97402736658E+03  0.00000000000E+00 0.  1.
         21   -1    0    0  501  502 -0.00000000000E+00 -0.00000000000E+00 -0.10013155164E+03  0.10013155164E+03  0.00000000000E+00 0.  1.
         25    1    1    2    0    0 -0.57888260997E+02  0.11170175320E+03  0.16073340762E+03  0.23935028881E+03  0.12500000000E+03 0.  0.
         25    1    1    2    0    0  0.48165821773E+02  0.83990403973E+02  0.48093864211E+03  0.50626209795E+03  0.12500000000E+03 0.  0.
         25    1    1    2    0    0  0.97224392243E+01 -0.19569215717E+03  0.23222376521E+03  0.32854653146E+03  0.12500000000E+03 0.  0.
</event>
<event>
 5    0  0.5572507E-005  0.4674416E+03  0.7546771E-02  0.1022645E+00
         21   -1    0    0  502  501  0.00000000000E+00  0.00000000000E+00  0.12045061944E+04  0.12045061944E+04  0.00000000000E+00 0.  1.
         21   -1    0    0  501  502 -0.00000000000E+00 -0.00000000000E+00 -0.18140346951E+03  0.18140346951E+03  0.00000000000E+00 0.  1.
         25    1    1    2    0    0 -0.38863436330E+01  0.17767476379E+03  0.21677615450E+03  0.30692071698E+03  0.12500000000E+03 0.  0.
         25    1    1    2    0    0 -0.11727307923E+03 -0.39043044660E+03  0.59616730350E+03  0.73295931845E+03  0.12500000000E+03 0.  0.
         25    1    1    2    0    0  0.12115942286E+03  0.21275568282E+03  0.21015926690E+03  0.34602962848E+03  0.12500000000E+03 0.  0.
</event>
<event>
 5    0  0.5572507E-005  0.3720777E+03  0.7546771E-02  0.1053901E+00
         21   -1    0    0  502  501  0.00000000000E+00  0.00000000000E+00  0.19823532494E+04  0.19823532494E+04  0.00000000000E+00 0.  1.
         21   -1    0    0  501  502 -0.00000000000E+00 -0.00000000000E+00 -0.69837122611E+02  0.69837122611E+02  0.00000000000E+00 0.  1.
         25    1    1    2    0    0 -0.22079448482E+03 -0.11117412789E+03  0.10495132100E+04  0.10854551438E+04  0.12500000000E+03 0.  0.
         25    1    1    2    0    0  0.17137934631E+03 -0.24295109176E+02  0.63205357951E+03  0.66714155923E+03  0.12500000000E+03 0.  0.
         25    1    1    2    0    0  0.49415138510E+02  0.13546923707E+03  0.23094933726E+03  0.29959366897E+03  0.12500000000E+03 0.  0.
</event>
<event>
 5    0  0.5572507E-005  0.2714121E+03  0.7546771E-02  0.1100474E+00
         21   -1    0    0  502  501  0.00000000000E+00  0.00000000000E+00  0.34206819311E+03  0.34206819311E+03  0.00000000000E+00 0.  1.
         21   -1    0    0  501  502 -0.00000000000E+00 -0.00000000000E+00 -0.21535048785E+03  0.21535048785E+03  0.00000000000E+00 0.  1.
         25    1    1    2    0    0 -0.15385710705E+03  0.11258104576E+02  0.14609596249E+03  0.24651122604E+03  0.12500000000E+03 0.  0.
         25    1    1    2    0    0  0.59215786589E+02  0.78491462178E+01  0.36671886181E+02  0.14331066155E+03  0.12500000000E+03 0.  0.
         25    1    1    2    0    0  0.94641320459E+02 -0.19107250793E+02 -0.56050143406E+02  0.16759679337E+03  0.12500000000E+03 0.  0.
</event>
<event>
 5    0  0.5572507E-005  0.3193373E+03  0.7546771E-02  0.1075955E+00
         21   -1    0    0  502  501  0.00000000000E+00  0.00000000000E+00  0.74615409148E+02  0.74615409148E+02  0.00000000000E+00 0. -1.
         21   -1    0    0  501  502 -0.00000000000E+00 -0.00000000000E+00 -0.13666924423E+04  0.13666924423E+04  0.00000000000E+00 0. -1.
         25    1    1    2    0    0 -0.21137923649E+03 -0.75499819181E+02 -0.50143084738E+03  0.56341751749E+03  0.12500000000E+03 0.  0.
         25    1    1    2    0    0  0.15437209623E+03  0.91965141343E+02 -0.32284273255E+03  0.39005225454E+03  0.12500000000E+03 0.  0.
         25    1    1    2    0    0  0.57007140257E+02 -0.16465322162E+02 -0.46780345325E+03  0.48783807943E+03  0.12500000000E+03 0.  0.
</event>
<event>
 5    0  0.5572507E-005  0.2959556E+03  0.7546771E-02  0.1087280E+00
         21   -1    0    0  502  501  0.00000000000E+00  0.00000000000E+00  0.25911222866E+03  0.25911222866E+03  0.00000000000E+00 0. -1.
         21   -1    0    0  501  502 -0.00000000000E+00 -0.00000000000E+00 -0.33803783239E+03  0.33803783239E+03  0.00000000000E+00 0. -1.
         25    1    1    2    0    0 -0.13775335907E+02 -0.25706605906E+00  0.80091387632E+02  0.14909546048E+03  0.12500000000E+03 0.  0.
         25    1    1    2    0    0 -0.14161732239E+03 -0.75379773443E+02 -0.54615249197E+02  0.21058347914E+03  0.12500000000E+03 0.  0.
         25    1    1    2    0    0  0.15539265829E+03  0.75636839502E+02 -0.10440174217E+03  0.23747112142E+03  0.12500000000E+03 0.  0.
</event>
<event>
 5    0  0.5572507E-005  0.3655978E+03  0.7546771E-02  0.1056389E+00
         21   -1    0    0  502  501  0.00000000000E+00  0.00000000000E+00  0.16139050378E+04  0.16139050378E+04  0.00000000000E+00 0.  1.
         21   -1    0    0  501  502 -0.00000000000E+00 -0.00000000000E+00 -0.82818852306E+02  0.82818852306E+02  0.00000000000E+00 0.  1.
         25    1    1    2    0    0  0.11360332445E+03  0.18101604665E+03  0.11667963781E+04  0.11927746277E+04  0.12500000000E+03 0.  0.
         25    1    1    2    0    0 -0.42491379830E+02 -0.98337480459E+02  0.26085957003E+03  0.30846149306E+03  0.12500000000E+03 0.  0.
         25    1    1    2    0    0 -0.71111944617E+02 -0.82678566195E+02  0.10343023736E+03  0.19548776938E+03  0.12500000000E+03 0.  0.
</event>
<event>
 5    0  0.7881987E-005  0.2692522E+03  0.7546771E-02  0.1101708E+00
         21   -1    0    0  502  501  0.00000000000E+00  0.00000000000E+00  0.27083494105E+03  0.27083494105E+03  0.00000000000E+00 0.  1.
         21   -1    0    0  501  502 -0.00000000000E+00 -0.00000000000E+00 -0.26767868651E+03  0.26767868651E+03  0.00000000000E+00 0.  1.
         25    1    1    2    0    0  0.33406225490E+02  0.75683368569E+02  0.39258500261E+02  0.15495217979E+03  0.12500000000E+03 0.  0.
         25    1    1    2    0    0 -0.81244766044E+02 -0.12679745650E+03 -0.10770951888E+03  0.22339348120E+03  0.12500000000E+03 0.  0.
         25    1    1    2    0    0  0.47838540553E+02  0.51114087931E+02  0.71607273151E+02  0.16016796657E+03  0.12500000000E+03 0.  0.
</event>
<event>
 5    0  0.5572507E-005  0.3315418E+03  0.7546771E-02  0.1070457E+00
         21   -1    0    0  502  501  0.00000000000E+00  0.00000000000E+00  0.21957553258E+03  0.21957553258E+03  0.00000000000E+00 0. -1.
         21   -1    0    0  501  502 -0.00000000000E+00 -0.00000000000E+00 -0.50060218101E+03  0.50060218101E+03  0.00000000000E+00 0. -1.
         25    1    1    2    0    0  0.86069079075E+02  0.20592710604E+02  0.34769188515E+02  0.15705362961E+03  0.12500000000E+03 0.  0.
         25    1    1    2    0    0 -0.81379094855E+02  0.11025769273E+03  0.14945084706E+02  0.18608511881E+03  0.12500000000E+03 0.  0.
         25    1    1    2    0    0 -0.46899842198E+01 -0.13085040333E+03 -0.33074092165E+03  0.37703896517E+03  0.12500000000E+03 0.  0.
</event>
<event>
 5    0  0.5572507E-005  0.3156158E+03  0.7546771E-02  0.1077685E+00
         21   -1    0    0  502  501  0.00000000000E+00  0.00000000000E+00  0.13064877085E+03  0.13064877085E+03  0.00000000000E+00 0.  1.
         21   -1    0    0  501  502 -0.00000000000E+00 -0.00000000000E+00 -0.76245125989E+03  0.76245125989E+03  0.00000000000E+00 0.  1.
         25    1    1    2    0    0 -0.10932126711E+03 -0.10871551596E+03 -0.51371686788E+03  0.55072699516E+03  0.12500000000E+03 0.  0.
         25    1    1    2    0    0  0.11360472488E+03  0.99212516912E+02 -0.74531501980E+02  0.20959270458E+03  0.12500000000E+03 0.  0.
         25    1    1    2    0    0 -0.42834577665E+01  0.95029990510E+01 -0.43554119179E+02  0.13278033099E+03  0.12500000000E+03 0.  0.
</event>
<event>
 5    0  0.5572507E-005  0.2033268E+03  0.7546771E-02  0.1146962E+00
         21   -1    0    0  502  501  0.00000000000E+00  0.00000000000E+00  0.19033854480E+02  0.19033854480E+02  0.00000000000E+00 0.  1.
         21   -1    0    0  501  502 -0.00000000000E+00 -0.00000000000E+00 -0.21720124534E+04  0.21720124534E+04  0.00000000000E+00 0.  1.
         25    1    1    2    0    0 -0.39356588692E+02 -0.88669511961E+01 -0.75038151082E+03  0.76179063770E+03  0.12500000000E+03 0.  0.
         25    1    1    2    0    0  0.50679222983E+02 -0.57377726635E+01 -0.50197645649E+03  0.51981407113E+03  0.12500000000E+03 0.  0.
         25    1    1    2    0    0 -0.11322634291E+02  0.14604723860E+02 -0.90062063164E+03  0.90944159908E+03  0.12500000000E+03 0.  0.
</event>
<event>
 5    0  0.5572507E-005  0.2743959E+03  0.7546771E-02  0.1098790E+00
         21   -1    0    0  502  501  0.00000000000E+00  0.00000000000E+00  0.55638221080E+03  0.55638221080E+03  0.00000000000E+00 0.  1.
         21   -1    0    0  501  502 -0.00000000000E+00 -0.00000000000E+00 -0.13532620065E+03  0.13532620065E+03  0.00000000000E+00 0.  1.
         25    1    1    2    0    0  0.65642919689E+02  0.77279235559E+02  0.12142521007E+03  0.20161883542E+03  0.12500000000E+03 0.  0.
         25    1    1    2    0    0 -0.26829088511E+02  0.52095502043E+02 -0.46847216610E+00  0.13805419512E+03  0.12500000000E+03 0.  0.
         25    1    1    2    0    0 -0.38813831178E+02 -0.12937473760E+03  0.30009927224E+03  0.35203538092E+03  0.12500000000E+03 0.  0.
</event>
<event>
 5    0  0.5887621E-005  0.2619936E+03  0.7546771E-02  0.1105951E+00
         21   -1    0    0  502  501  0.00000000000E+00  0.00000000000E+00  0.30779557551E+03  0.30779557551E+03  0.00000000000E+00 0.  1.
         21   -1    0    0  501  502 -0.00000000000E+00 -0.00000000000E+00 -0.22300725108E+03  0.22300725108E+03  0.00000000000E+00 0.  1.
         25    1    1    2    0    0 -0.12495628598E+03 -0.42626909762E+02 -0.66823003810E+02  0.19370451900E+03  0.12500000000E+03 0.  0.
         25    1    1    2    0    0  0.15512654189E+02  0.40296449201E+01  0.36073568920E+02  0.13108464003E+03  0.12500000000E+03 0.  0.
         25    1    1    2    0    0  0.10944363179E+03  0.38597264842E+02  0.11553775932E+03  0.20601366756E+03  0.12500000000E+03 0.  0.
</event>
<event>
 5    0  0.5572507E-005  0.3456736E+03  0.7546771E-02  0.1064405E+00
         21   -1    0    0  502  501  0.00000000000E+00  0.00000000000E+00  0.27581387565E+04  0.27581387565E+04  0.00000000000E+00 0.  1.
         21   -1    0    0  501  502 -0.00000000000E+00 -0.00000000000E+00 -0.43322771055E+02  0.43322771055E+02  0.00000000000E+00 0.  1.
         25    1    1    2    0    0  0.72909158580E+02  0.13983205058E+03  0.37069912700E+03  0.42179567391E+03  0.12500000000E+03 0.  0.
         25    1    1    2    0    0 -0.17921242454E+03 -0.65189096138E+02  0.12070591982E+04  0.12284069437E+04  0.12500000000E+03 0.  0.
         25    1    1    2    0    0  0.10630326596E+03 -0.74642954443E+02  0.11370576602E+04  0.11512589099E+04  0.12500000000E+03 0.  0.
</event>
<event>
 5    0  0.5572507E-005  0.2648725E+03  0.7546771E-02  0.1104251E+00
         21   -1    0    0  502  501  0.00000000000E+00  0.00000000000E+00  0.14644572146E+03  0.14644572146E+03  0.00000000000E+00 0.  1.
         21   -1    0    0  501  502 -0.00000000000E+00 -0.00000000000E+00 -0.47906779435E+03  0.47906779435E+03  0.00000000000E+00 0.  1.
         25    1    1    2    0    0 -0.79340586278E+02 -0.40030486293E+02 -0.20010237461E+03  0.25211768837E+03  0.12500000000E+03 0.  0.
         25    1    1    2    0    0 -0.40769943566E+02 -0.62361761874E+02 -0.34918983591E+02  0.14965130490E+03  0.12500000000E+03 0.  0.
         25    1    1    2    0    0  0.12011052984E+03  0.10239224817E+03 -0.97600714688E+02  0.22374452255E+03  0.12500000000E+03 0.  0.
</event>
<event>
 5    0  0.5572507E-005  0.3047243E+03  0.7546771E-02  0.1082903E+00
         21   -1    0    0  502  501  0.00000000000E+00  0.00000000000E+00  0.37156220720E+03  0.37156220720E+03  0.00000000000E+00 0. -1.
         21   -1    0    0  501  502 -0.00000000000E+00 -0.00000000000E+00 -0.24990946247E+03  0.24990946247E+03  0.00000000000E+00 0. -1.
         25    1    1    2    0    0 -0.77360014400E+01  0.51325569975E+02 -0.12882209186E+03  0.18685366253E+03  0.12500000000E+03 0.  0.
         25    1    1    2    0    0 -0.11911594481E+02 -0.88630110496E+02  0.24751828395E+01  0.15371502561E+03  0.12500000000E+03 0.  0.
         25    1    1    2    0    0  0.19647595921E+02  0.37304540520E+02  0.24799965375E+03  0.28090298152E+03  0.12500000000E+03 0.  0.
</event>
<event>
 5    0  0.5572507E-005  0.2928008E+03  0.7546771E-02  0.1088896E+00
         21   -1    0    0  502  501  0.00000000000E+00  0.00000000000E+00  0.35494535085E+03  0.35494535085E+03  0.00000000000E+00 0. -1.
         21   -1    0    0  501  502 -0.00000000000E+00 -0.00000000000E+00 -0.24153668269E+03  0.24153668269E+03  0.00000000000E+00 0. -1.
         25    1    1    2    0    0  0.16492713161E+03 -0.56539548020E+01 -0.57664108485E+02  0.21490247870E+03  0.12500000000E+03 0.  0.
         25    1    1    2    0    0 -0.19494201203E+02 -0.81868642379E+01  0.13638511168E+03  0.18620673273E+03  0.12500000000E+03 0.  0.
         25    1    1    2    0    0 -0.14543293041E+03  0.13840819040E+02  0.34687664963E+02  0.19537282211E+03  0.12500000000E+03 0.  0.
</event>
<event>
 5    0  0.5572507E-005  0.3086533E+03  0.7546771E-02  0.1080993E+00
         21   -1    0    0  502  501  0.00000000000E+00  0.00000000000E+00  0.31682684367E+03  0.31682684367E+03  0.00000000000E+00 0.  1.
         21   -1    0    0  501  502 -0.00000000000E+00 -0.00000000000E+00 -0.30069068733E+03  0.30069068733E+03  0.00000000000E+00 0.  1.
         25    1    1    2    0    0 -0.45400343391E+01  0.18584074823E+01 -0.11352783900E+03  0.16893086106E+03  0.12500000000E+03 0.  0.
         25    1    1    2    0    0 -0.30429546528E+02  0.73830702901E+02  0.22583358807E+03  0.27019019133E+03  0.12500000000E+03 0.  0.
         25    1    1    2    0    0  0.34969580867E+02 -0.75689110383E+02 -0.96169592726E+02  0.17839647861E+03  0.12500000000E+03 0.  0.
</event>
<event>
 5    0  0.5572507E-005  0.2708545E+03  0.7546771E-02  0.1100792E+00
         21   -1    0    0  502  501  0.00000000000E+00  0.00000000000E+00  0.52093525981E+03  0.52093525981E+03  0.00000000000E+00 0.  1.
         21   -1    0    0  501  502 -0.00000000000E+00 -0.00000000000E+00 -0.14082782983E+03  0.14082782983E+03  0.00000000000E+00 0.  1.
         25    1    1    2    0    0 -0.29629336729E+02 -0.47803090810E+02  0.41032539564E+02  0.14307935696E+03  0.12500000000E+03 0.  0.
         25    1    1    2    0    0  0.16050198710E+03 -0.59803643227E+01  0.16797396207E+03  0.26388805307E+03  0.12500000000E+03 0.  0.
         25    1    1    2    0    0 -0.13087265037E+03  0.53783455133E+02  0.17110092834E+03  0.25479567960E+03  0.12500000000E+03 0.  0.
</event>
<event>
 5    0  0.5572507E-005  0.3280834E+03  0.7546771E-02  0.1071988E+00
         21   -1    0    0  502  501  0.00000000000E+00  0.00000000000E+00  0.44897468156E+03  0.44897468156E+03  0.00000000000E+00 0. -1.
         21   -1    0    0  501  502 -0.00000000000E+00 -0.00000000000E+00 -0.23974334974E+03  0.23974334974E+03  0.00000000000E+00 0. -1.
         25    1    1    2    0    0  0.83912013597E+02 -0.11740649454E+03  0.24760256944E+03  0.31266202740E+03  0.12500000000E+03 0.  0.
         25    1    1    2    0    0 -0.10150098664E+03 -0.18704976918E+02 -0.87251126885E+02  0.18409260060E+03  0.12500000000E+03 0.  0.
         25    1    1    2    0    0  0.17588973048E+02  0.13611147145E+03  0.48879889267E+02  0.19196340331E+03  0.12500000000E+03 0.  0.
</event>
<event>
 5    0  0.5572507E-005  0.2137212E+03  0.7546771E-02  0.1138653E+00
         21   -1    0    0  502  501  0.00000000000E+00  0.00000000000E+00  0.50961142947E+02  0.50961142947E+02  0.00000000000E+00 0. -1.
         21   -1    0    0  501  502 -0.00000000000E+00 -0.00000000000E+00 -0.89630563923E+03  0.89630563923E+03  0.00000000000E+00 0. -1.
         25    1    1    2    0    0 -0.61926639132E+02 -0.24888219999E+02 -0.41226058422E+03  0.43593362044E+03  0.12500000000E+03 0.  0.
         25    1    1    2    0    0  0.15780180277E+02  0.28451865728E+02 -0.27996449629E+03  0.30832392371E+03  0.12500000000E+03 0.  0.
         25    1    1    2    0    0  0.46146458855E+02 -0.35636457294E+01 -0.15311941578E+03  0.20300923803E+03  0.12500000000E+03 0.  0.
</event>
<event>
 5    0  0.5572507E-005  0.4371987E+03  0.7546771E-02  0.1031610E+00
         21   -1    0    0  502  501  0.00000000000E+00  0.00000000000E+00  0.13645623836E+04  0.13645623836E+04  0.00000000000E+00 0.  1.
         21   -1    0    0  501  502 -0.00000000000E+00 -0.00000000000E+00 -0.14007619312E+03  0.14007619312E+03  0.00000000000E+00 0.  1.
         25    1    1    2    0    0  0.21102524254E+03  0.76056562486E+02  0.78742382125E+03  0.82823760357E+03  0.12500000000E+03 0.  0.
         25    1    1    2    0    0 -0.56551962041E+02 -0.14984344312E+02 -0.50029928118E+02  0.14680139200E+03  0.12500000000E+03 0.  0.
         25    1    1    2    0    0 -0.15447328050E+03 -0.61072218174E+02  0.48709229736E+03  0.52959958116E+03  0.12500000000E+03 0.  0.
</event>
<event>
 5    0  0.5572507E-005  0.3203748E+03  0.7546771E-02  0.1075477E+00
         21   -1    0    0  502  501  0.00000000000E+00  0.00000000000E+00  0.77803518061E+02  0.77803518061E+02  0.00000000000E+00 0.  1.
         21   -1    0    0  501  502 -0.00000000000E+00 -0.00000000000E+00 -0.13192211019E+04  0.13192211019E+04  0.00000000000E+00 0.  1.
         25    1    1    2    0    0  0.21902665428E+02 -0.78315277853E+02 -0.42887813534E+03  0.45406438362E+03  0.12500000000E+03 0.  0.
         25    1    1    2    0    0 -0.19018311684E+03  0.12667388512E+03 -0.39296423834E+03  0.47144648022E+03  0.12500000000E+03 0.  0.
         25    1    1    2    0    0  0.16828045141E+03 -0.48358607270E+02 -0.41957521011E+03  0.47151375607E+03  0.12500000000E+03 0.  0.
</event>
<event>
 5    0  0.6454763E-005  0.3595904E+03  0.7546771E-02  0.1058746E+00
         21   -1    0    0  502  501  0.00000000000E+00  0.00000000000E+00  0.56587975597E+03  0.56587975597E+03  0.00000000000E+00 0. -1.
         21   -1    0    0  501  502 -0.00000000000E+00 -0.00000000000E+00 -0.22850303464E+03  0.22850303464E+03  0.00000000000E+00 0. -1.
         25    1    1    2    0    0  0.37295607850E+02 -0.87009768247E+02 -0.65716269259E+02  0.17001555864E+03  0.12500000000E+03 0.  0.
         25    1    1    2    0    0 -0.42979350118E+02  0.20732915624E+03  0.81716774235E+02  0.25910467915E+03  0.12500000000E+03 0.  0.
         25    1    1    2    0    0  0.56837422676E+01 -0.12031938799E+03  0.32137621636E+03  0.36526255282E+03  0.12500000000E+03 0.  0.
</event>
<event>
 5    0  0.5572507E-005  0.4013308E+03  0.7546771E-02  0.1043320E+00
         21   -1    0    0  502  501  0.00000000000E+00  0.00000000000E+00  0.10254355990E+04  0.10254355990E+04  0.00000000000E+00 0. -1.
         21   -1    0    0  501  502 -0.00000000000E+00 -0.00000000000E+00 -0.15707122756E+03  0.15707122756E+03  0.00000000000E+00 0. -1.
         25    1    1    2    0    0 -0.12086040938E+03 -0.18032739723E+03  0.42937884688E+03  0.49710803946E+03  0.12500000000E+03 0.  0.
         25    1    1    2    0    0  0.52746289895E+02 -0.11503883283E+03  0.68376578544E+02  0.19056878194E+03  0.12500000000E+03 0.  0.
         25    1    1    2    0    0  0.68114119485E+02  0.29536623006E+03  0.37060894598E+03  0.49483000513E+03  0.12500000000E+03 0.  0.
</event>
<event>
 5    0  0.6120228E-005  0.3704342E+03  0.7546771E-02  0.1054527E+00
         21   -1    0    0  502  501  0.00000000000E+00  0.00000000000E+00  0.31239074677E+03  0.31239074677E+03  0.00000000000E+00 0.  1.
         21   -1    0    0  501  502 -0.00000000000E+00 -0.00000000000E+00 -0.43926228573E+03  0.43926228573E+03  0.00000000000E+00 0.  1.
         25    1    1    2    0    0  0.21421219988E+03 -0.39604310212E+02 -0.95519976001E+02  0.26870882714E+03  0.12500000000E+03 0.  0.
         25    1    1    2    0    0 -0.18977766070E+03 -0.98491236453E+02 -0.12000591508E+03  0.27521356038E+03  0.12500000000E+03 0.  0.
         25    1    1    2    0    0 -0.24434539183E+02  0.13809554666E+03  0.88654352125E+02  0.20773064498E+03  0.12500000000E+03 0.  0.
</event>
<event>
 5    0  0.5572507E-005  0.2311499E+03  0.7546771E-02  0.1125833E+00
         21   -1    0    0  502  501  0.00000000000E+00  0.00000000000E+00  0.19657369256E+03  0.19657369256E+03  0.00000000000E+00 0. -1.
         21   -1    0    0  501  502 -0.00000000000E+00 -0.00000000000E+00 -0.27180777048E+03  0.27180777048E+03  0.00000000000E+00 0. -1.
         25    1    1    2    0    0  0.31428685120E+01  0.45750958443E+02  0.63451677018E+01  0.13329774557E+03  0.12500000000E+03 0.  0.
         25    1    1    2    0    0 -0.64528933314E+02 -0.10088633743E+03 -0.62730322546E+02  0.18412530973E+03  0.12500000000E+03 0.  0.
         25    1    1    2    0    0  0.61386064802E+02  0.55135378991E+02 -0.18848923079E+02  0.15095840775E+03  0.12500000000E+03 0.  0.
</event>
<event>
 5    0  0.5572507E-005  0.2559952E+03  0.7546771E-02  0.1109574E+00
         21   -1    0    0  502  501  0.00000000000E+00  0.00000000000E+00  0.35526065385E+03  0.35526065385E+03  0.00000000000E+00 0. -1.
         21   -1    0    0  501  502 -0.00000000000E+00 -0.00000000000E+00 -0.18446604132E+03  0.18446604132E+03  0.00000000000E+00 0. -1.
         25    1    1    2    0    0  0.80317747575E+02 -0.97168134079E+01  0.79749507808E+02  0.16890926864E+03  0.12500000000E+03 0.  0.
         25    1    1    2    0    0 -0.38635711580E+02 -0.28227219816E+02  0.16703763169E+03  0.21404687465E+03  0.12500000000E+03 0.  0.
         25    1    1    2    0    0 -0.41682035995E+02  0.37944033224E+02 -0.75992526960E+02  0.15677055188E+03  0.12500000000E+03 0.  0.
</event>
<event>
 5    0  0.5572507E-005  0.2117929E+03  0.7546771E-02  0.1140154E+00
         21   -1    0    0  502  501  0.00000000000E+00  0.00000000000E+00  0.78519254656E+02  0.78519254656E+02  0.00000000000E+00 0. -1.
         21   -1    0    0  501  502 -0.00000000000E+00 -0.00000000000E+00 -0.57127676167E+03  0.57127676167E+03  0.00000000000E+00 0. -1.
         25    1    1    2    0    0  0.60602983599E+02  0.88068753642E+01 -0.21455660737E+03  0.25575343681E+03  0.12500000000E+03 0.  0.
         25    1    1    2    0    0 -0.88750878398E+01  0.45448718317E+02 -0.13209032878E+03  0.18766248463E+03  0.12500000000E+03 0.  0.
         25    1    1    2    0    0 -0.51727895759E+02 -0.54255593682E+02 -0.14611057086E+03  0.20638009488E+03  0.12500000000E+03 0.  0.
</event>
<event>
 5    0  0.5572507E-005  0.4835367E+03  0.7546771E-02  0.1018168E+00
         21   -1    0    0  502  501  0.00000000000E+00  0.00000000000E+00  0.11087708684E+04  0.11087708684E+04  0.00000000000E+00 0. -1.
         21   -1    0    0  501  502 -0.00000000000E+00 -0.00000000000E+00 -0.21087110404E+03  0.21087110404E+03  0.00000000000E+00 0. -1.
         25    1    1    2    0    0 -0.13791504850E+03  0.37053403865E+03  0.17852194260E+03  0.45145444775E+03  0.12500000000E+03 0.  0.
         25    1    1    2    0    0  0.13001961127E+03 -0.16110034987E+03  0.34596774867E+03  0.42211029975E+03  0.12500000000E+03 0.  0.
         25    1    1    2    0    0  0.78954372280E+01 -0.20943368878E+03  0.37341007310E+03  0.44607722495E+03  0.12500000000E+03 0.  0.
</event>
<event>
 5    0  0.5572507E-005  0.3148588E+03  0.7546771E-02  0.1078040E+00
         21   -1    0    0  502  501  0.00000000000E+00  0.00000000000E+00  0.70490859267E+02  0.70490859267E+02  0.00000000000E+00 0. -1.
         21   -1    0    0  501  502 -0.00000000000E+00 -0.00000000000E+00 -0.14063674679E+04  0.14063674679E+04  0.00000000000E+00 0. -1.
         25    1    1    2    0    0  0.14672606734E+03  0.15023836784E+03 -0.59768596897E+03  0.64571946192E+03  0.12500000000E+03 0.  0.
         25    1    1    2    0    0 -0.16432062154E+03 -0.54402392608E+02 -0.51402951956E+03  0.55660779186E+03  0.12500000000E+03 0.  0.
         25    1    1    2    0    0  0.17594554201E+02 -0.95835975233E+02 -0.22416112013E+03  0.27453107340E+03  0.12500000000E+03 0.  0.
</event>
<event>
 5    0  0.5572507E-005  0.2487913E+03  0.7546771E-02  0.1114071E+00
         21   -1    0    0  502  501  0.00000000000E+00  0.00000000000E+00  0.24013236822E+03  0.24013236822E+03  0.00000000000E+00 0. -1.
         21   -1    0    0  501  502 -0.00000000000E+00 -0.00000000000E+00 -0.25776244740E+03  0.25776244740E+03  0.00000000000E+00 0. -1.
         25    1    1    2    0    0  0.27658454359E+02  0.95564222614E+01  0.47745688964E+02  0.13697067613E+03  0.12500000000E+03 0.  0.
         25    1    1    2    0    0 -0.31274203215E+02 -0.87814440049E+00 -0.15886106054E+03  0.20454995351E+03  0.12500000000E+03 0.  0.
         25    1    1    2    0    0  0.36157488556E+01 -0.86782778610E+01  0.93485292398E+02  0.15637418598E+03  0.12500000000E+03 0.  0.
</event>
<event>
 5    0  0.5572507E-005  0.3541979E+03  0.7546771E-02  0.1060905E+00
         21   -1    0    0  502  501  0.00000000000E+00  0.00000000000E+00  0.25358394905E+04  0.25358394905E+04  0.00000000000E+00 0.  1.
         21   -1    0    0  501  502 -0.00000000000E+00 -0.00000000000E+00 -0.49473218673E+02  0.49473218673E+02  0.00000000000E+00 0.  1.
         25    1    1    2    0    0  0.13156592821E+03  0.44010236819E+02  0.76419317950E+03  0.78667827605E+03  0.12500000000E+03 0.  0.
         25    1    1    2    0    0 -0.68715516097E+02  0.18426211574E+03  0.10403574876E+04  0.10661346310E+04  0.12500000000E+03 0.  0.
         25    1    1    2    0    0 -0.62850412112E+02 -0.22827235256E+03  0.68181560476E+03  0.73249980214E+03  0.12500000000E+03 0.  0.
</event>
<event>
 5    0  0.5572507E-005  0.4270164E+03  0.7546771E-02  0.1034807E+00
         21   -1    0    0  502  501  0.00000000000E+00  0.00000000000E+00  0.19527758864E+03  0.19527758864E+03  0.00000000000E+00 0.  1.
         21   -1    0    0  501  502 -0.00000000000E+00 -0.00000000000E+00 -0.93376307303E+03  0.93376307303E+03  0.00000000000E+00 0.  1.
         25    1    1    2    0    0 -0.19855076014E+01 -0.72103752728E+02 -0.70737553971E+02  0.16072241580E+03  0.12500000000E+03 0.  0.
         25    1    1    2    0    0  0.23565502503E+03 -0.54962212590E+02 -0.40130785628E+02  0.27529913837E+03  0.12500000000E+03 0.  0.
         25    1    1    2    0    0 -0.23366951743E+03  0.12706596532E+03 -0.62761714479E+03  0.69301910749E+03  0.12500000000E+03 0.  0.
</event>
<event>
 5    0  0.5572507E-005  0.2349036E+03  0.7546771E-02  0.1123235E+00
         21   -1    0    0  502  501  0.00000000000E+00  0.00000000000E+00  0.24385636550E+02  0.24385636550E+02  0.00000000000E+00 0.  1.
         21   -1    0    0  501  502 -0.00000000000E+00 -0.00000000000E+00 -0.22627960532E+04  0.22627960532E+04  0.00000000000E+00 0.  1.
         25    1    1    2    0    0  0.35469137531E+02 -0.50278032362E+01 -0.65499392997E+03  0.66777644973E+03  0.12500000000E+03 0.  0.
         25    1    1    2    0    0 -0.15791948236E+02 -0.65202328250E+02 -0.12201879131E+04  0.12284072096E+04  0.12500000000E+03 0.  0.
         25    1    1    2    0    0 -0.19677189295E+02  0.70230131486E+02 -0.36322857353E+03  0.39099803040E+03  0.12500000000E+03 0.  0.
</event>
<event>
 5    0  0.6872149E-005  0.4312149E+03  0.7546771E-02  0.1033477E+00
         21   -1    0    0  502  501  0.00000000000E+00  0.00000000000E+00  0.67343212274E+03  0.67343212274E+03  0.00000000000E+00 0.  1.
         21   -1    0    0  501  502 -0.00000000000E+00 -0.00000000000E+00 -0.27611736414E+03  0.27611736414E+03  0.00000000000E+00 0.  1.
         25    1    1    2    0    0  0.23404737114E+02  0.11366502388E+03 -0.99211882814E+02  0.19732084802E+03  0.12500000000E+03 0.  0.
         25    1    1    2    0    0 -0.19737314139E+03  0.97919764106E+02  0.15520794570E+03  0.29708406816E+03  0.12500000000E+03 0.  0.
         25    1    1    2    0    0  0.17396840428E+03 -0.21158478798E+03  0.34131869572E+03  0.45514457070E+03  0.12500000000E+03 0.  0.
</event>
<event>
 5    0  0.5572507E-005  0.3927787E+03  0.7546771E-02  0.1046309E+00
         21   -1    0    0  502  501  0.00000000000E+00  0.00000000000E+00  0.14660989132E+04  0.14660989132E+04  0.00000000000E+00 0. -1.
         21   -1    0    0  501  502 -0.00000000000E+00 -0.00000000000E+00 -0.10522830657E+03  0.10522830657E+03  0.00000000000E+00 0. -1.
         25    1    1    2    0    0  0.67551300674E+02 -0.27671919779E+03  0.55609367652E+03  0.63718276005E+03  0.12500000000E+03 0.  0.
         25    1    1    2    0    0  0.28411795583E+02  0.13259413529E+03  0.12805293397E+03  0.22452391574E+03  0.12500000000E+03 0.  0.
         25    1    1    2    0    0 -0.95963096257E+02  0.14412506250E+03  0.67672399619E+03  0.70962054402E+03  0.12500000000E+03 0.  0.
</event>
<event>
 5    0  0.5572507E-005  0.3160298E+03  0.7546771E-02  0.1077491E+00
         21   -1    0    0  502  501  0.00000000000E+00  0.00000000000E+00  0.48898181408E+02  0.48898181408E+02  0.00000000000E+00 0.  1.
         21   -1    0    0  501  502 -0.00000000000E+00 -0.00000000000E+00 -0.20425064938E+04  0.20425064938E+04  0.00000000000E+00 0.  1.
         25    1    1    2    0    0  0.65121506147E+01 -0.12638285822E+01 -0.65461357050E+02  0.14125931699E+03  0.12500000000E+03 0.  0.
         25    1    1    2    0    0  0.37792092643E+02 -0.49404829636E+01 -0.53677809578E+03  0.55245667228E+03  0.12500000000E+03 0.  0.
         25    1    1    2    0    0 -0.44304243257E+02  0.62043115458E+01 -0.13913688596E+04  0.13976886860E+04  0.12500000000E+03 0.  0.
</event>
<event>
 5    0  0.5572507E-005  0.3628808E+03  0.7546771E-02  0.1057449E+00
         21   -1    0    0  502  501  0.00000000000E+00  0.00000000000E+00  0.22947080779E+03  0.22947080779E+03  0.00000000000E+00 0.  1.
         21   -1    0    0  501  502 -0.00000000000E+00 -0.00000000000E+00 -0.57385289691E+03  0.57385289691E+03  0.00000000000E+00 0.  1.
         25    1    1    2    0    0  0.18241975088E+03 -0.25323840345E+02 -0.32843588425E+03  0.39675356641E+03  0.12500000000E+03 0.  0.
         25    1    1    2    0    0 -0.20440513632E+03 -0.39284124841E+02  0.52736156659E+02  0.24845684623E+03  0.12500000000E+03 0.  0.
         25    1    1    2    0    0  0.21985385442E+02  0.64607965185E+02 -0.68682361533E+02  0.15811329205E+03  0.12500000000E+03 0.  0.
</event>
<event>
 5    0  0.5572507E-005  0.3173909E+03  0.7546771E-02  0.1076856E+00
         21   -1    0    0  502  501  0.00000000000E+00  0.00000000000E+00  0.74095613323E+03  0.74095613323E+03  0.00000000000E+00 0. -1.
         21   -1    0    0  501  502 -0.00000000000E+00 -0.00000000000E+00 -0.13595537206E+03  0.13595537206E+03  0.00000000000E+00 0. -1.
         25    1    1    2    0    0 -0.51089921899E+01  0.54177188325E+00  0.12414640050E+03  0.17624903993E+03  0.12500000000E+03 0.  0.
         25    1    1    2    0    0  0.77105284960E+02  0.20150038582E+03  0.31656081182E+03  0.40296820971E+03  0.12500000000E+03 0.  0.
         25    1    1    2    0    0 -0.71996292770E+02 -0.20204215770E+03  0.16429354884E+03  0.29769425566E+03  0.12500000000E+03 0.  0.
</event>
<event>
 5    0  0.5572507E-005  0.3367225E+03  0.7546771E-02  0.1068201E+00
         21   -1    0    0  502  501  0.00000000000E+00  0.00000000000E+00  0.11425065322E+03  0.11425065322E+03  0.00000000000E+00 0. -1.
         21   -1    0    0  501  502 -0.00000000000E+00 -0.00000000000E+00 -0.99239705790E+03  0.99239705790E+03  0.00000000000E+00 0.  1.
         25    1    1    2    0    0  0.14532273979E+03  0.12408099550E+03 -0.53057403468E+03  0.57762323224E+03  0.12500000000E+03 0.  0.
         25    1    1    2    0    0 -0.14192368040E+03 -0.12576087960E+03 -0.33305981721E+03  0.40312773626E+03  0.12500000000E+03 0.  0.
         25    1    1    2    0    0 -0.33990593885E+01  0.16798841066E+01 -0.14512552784E+02  0.12589674263E+03  0.12500000000E+03 0.  0.
</event>
<event>
 5    0  0.5572507E-005  0.5061902E+03  0.7546771E-02  0.1012176E+00
         21   -1    0    0  502  501  0.00000000000E+00  0.00000000000E+00  0.14874697247E+04  0.14874697247E+04  0.00000000000E+00 0.  1.
         21   -1    0    0  501  502 -0.00000000000E+00 -0.00000000000E+00 -0.17225798948E+03  0.17225798948E+03  0.00000000000E+00 0.  1.
         25    1    1    2    0    0  0.32507119709E+03 -0.62751553229E+02  0.89932002894E+03  0.96644221507E+03  0.12500000000E+03 0.  0.
         25    1    1    2    0    0 -0.35782976259E+03 -0.53286834264E+01  0.39196260588E+03  0.54527994486E+03  0.12500000000E+03 0.  0.
         25    1    1    2    0    0  0.32758565500E+02  0.68080236655E+02  0.23929100390E+02  0.14800555423E+03  0.12500000000E+03 0.  0.
</event>
<event>
 5    0  0.5865002E-005  0.2766483E+03  0.7546771E-02  0.1097534E+00
         21   -1    0    0  502  501  0.00000000000E+00  0.00000000000E+00  0.67926842575E+03  0.67926842575E+03  0.00000000000E+00 0.  1.
         21   -1    0    0  501  502 -0.00000000000E+00 -0.00000000000E+00 -0.11267159397E+03  0.11267159397E+03  0.00000000000E+00 0.  1.
         25    1    1    2    0    0  0.97838377285E+02  0.38464420089E+01  0.13755444014E+03  0.21007943066E+03  0.12500000000E+03 0.  0.
         25    1    1    2    0    0  0.67935717463E+02 -0.12645243632E+00  0.31339521155E+03  0.34417558937E+03  0.12500000000E+03 0.  0.
         25    1    1    2    0    0 -0.16577409475E+03 -0.37199895726E+01  0.11564718009E+03  0.23768499969E+03  0.12500000000E+03 0.  0.
</event>
<event>
 5    0  0.5572507E-005  0.2992276E+03  0.7546771E-02  0.1085627E+00
         21   -1    0    0  502  501  0.00000000000E+00  0.00000000000E+00  0.51147956693E+02  0.51147956693E+02  0.00000000000E+00 0.  1.
         21   -1    0    0  501  502 -0.00000000000E+00 -0.00000000000E+00 -0.17505524871E+04  0.17505524871E+04  0.00000000000E+00 0.  1.
         25    1    1    2    0    0  0.36211056669E+02 -0.28775661633E+02 -0.10659071017E+04  0.10742077215E+04  0.12500000000E+03 0.  0.
         25    1    1    2    0    0  0.57022676018E+02 -0.20645880419E+02 -0.10469315277E+03  0.17396406007E+03  0.12500000000E+03 0.  0.
         25    1    1    2    0    0 -0.93233732687E+02  0.49421542052E+02 -0.52880427591E+03  0.55352866226E+03  0.12500000000E+03 0.  0.
</event>
<event>
 5    0  0.5572507E-005  0.2869319E+03  0.7546771E-02  0.1091962E+00
         21   -1    0    0  502  501  0.00000000000E+00  0.00000000000E+00  0.39720819923E+02  0.39720819923E+02  0.00000000000E+00 0.  1.
         21   -1    0    0  501  502 -0.00000000000E+00 -0.00000000000E+00 -0.20727138505E+04  0.20727138505E+04  0.00000000000E+00 0.  1.
         25    1    1    2    0    0  0.11293157124E+03  0.26374145701E+02 -0.42803982250E+03  0.46075180411E+03  0.12500000000E+03 0.  0.
         25    1    1    2    0    0  0.60306508642E+02  0.64401706924E+02 -0.77074255892E+03  0.78578212436E+03  0.12500000000E+03 0.  0.
         25    1    1    2    0    0 -0.17323807988E+03 -0.90775852624E+02 -0.83421064916E+03  0.86590074195E+03  0.12500000000E+03 0.  0.
</event>
<event>
 5    0  0.5572507E-005  0.4685955E+03  0.7546771E-02  0.1022317E+00
         21   -1    0    0  502  501  0.00000000000E+00  0.00000000000E+00  0.36052811092E+03  0.36052811092E+03  0.00000000000E+00 0.  1.
         21   -1    0    0  501  502 -0.00000000000E+00 -0.00000000000E+00 -0.60905587240E+03  0.60905587240E+03  0.00000000000E+00 0.  1.
         25    1    1    2    0    0 -0.22001134363E+03  0.25649743671E+03 -0.21157084052E+03  0.41783148149E+03  0.12500000000E+03 0.  0.
         25    1    1    2    0    0  0.73446204536E+02 -0.23986403522E+03 -0.15985007617E+03  0.32265484222E+03  0.12500000000E+03 0.  0.
         25    1    1    2    0    0  0.14656513910E+03 -0.16633401489E+02  0.12289315521E+03  0.22909765961E+03  0.12500000000E+03 0.  0.
</event>
<event>
 5    0  0.5572507E-005  0.2501010E+03  0.7546771E-02  0.1113241E+00
         21   -1    0    0  502  501  0.00000000000E+00  0.00000000000E+00  0.37029673515E+03  0.37029673515E+03  0.00000000000E+00 0.  1.
         21   -1    0    0  501  502 -0.00000000000E+00 -0.00000000000E+00 -0.16891991949E+03  0.16891991949E+03  0.00000000000E+00 0.  1.
         25    1    1    2    0    0 -0.50332790179E+02  0.66725656668E+02  0.36886617219E+02  0.15482675982E+03  0.12500000000E+03 0.  0.
         25    1    1    2    0    0  0.13834700366E+03 -0.27740769778E+02  0.10500249086E+03  0.21577758645E+03  0.12500000000E+03 0.  0.
         25    1    1    2    0    0 -0.88014213477E+02 -0.38984886891E+02  0.59487707578E+02  0.16861230837E+03  0.12500000000E+03 0.  0.
</event>
<event>
 5    0  0.5572507E-005  0.4307018E+03  0.7546771E-02  0.1033638E+00
         21   -1    0    0  502  501  0.00000000000E+00  0.00000000000E+00  0.99539021241E+03  0.99539021241E+03  0.00000000000E+00 0.  1.
         21   -1    0    0  501  502 -0.00000000000E+00 -0.00000000000E+00 -0.18636316124E+03  0.18636316124E+03  0.00000000000E+00 0.  1.
         25    1    1    2    0    0  0.47847567921E+02 -0.10328557895E+03  0.51348273730E+03  0.54059857758E+03  0.12500000000E+03 0.  0.
         25    1    1    2    0    0  0.39207968979E+02  0.14294078283E+03  0.40528089947E+03  0.44927379148E+03  0.12500000000E+03 0.  0.
         25    1    1    2    0    0 -0.87055536900E+02 -0.39655203885E+02 -0.10973658561E+03  0.19188100459E+03  0.12500000000E+03 0.  0.
</event>
<event>
 5    0  0.5572507E-005  0.2263460E+03  0.7546771E-02  0.1129238E+00
         21   -1    0    0  502  501  0.00000000000E+00  0.00000000000E+00  0.25223823588E+03  0.25223823588E+03  0.00000000000E+00 0. -1.
         21   -1    0    0  501  502 -0.00000000000E+00 -0.00000000000E+00 -0.20311161742E+03  0.20311161742E+03  0.00000000000E+00 0. -1.
         25    1    1    2    0    0 -0.92843446459E+01 -0.93661076765E+02  0.22385837570E+02  0.15806556260E+03  0.12500000000E+03 0.  0.
         25    1    1    2    0    0  0.34082853592E+02  0.81227409898E+02  0.61160977547E+02  0.16469729264E+03  0.12500000000E+03 0.  0.
         25    1    1    2    0    0 -0.24798508946E+02  0.12433666867E+02 -0.34420196656E+02  0.13258699806E+03  0.12500000000E+03 0.  0.
</event>
<event>
 5    0  0.5572507E-005  0.5583526E+03  0.7546771E-02  0.9995789E-01
         21   -1    0    0  502  501  0.00000000000E+00  0.00000000000E+00  0.34723191926E+03  0.34723191926E+03  0.00000000000E+00 0. -1.
         21   -1    0    0  501  502 -0.00000000000E+00 -0.00000000000E+00 -0.89783695620E+03  0.89783695620E+03  0.00000000000E+00 0. -1.
         25    1    1    2    0    0  0.27161273587E+03 -0.16251261376E+03 -0.15099944722E+03  0.37230318422E+03  0.12500000000E+03 0.  0.
         25    1    1    2    0    0 -0.65105958495E+01 -0.19167744457E+03  0.44891893243E+02  0.23328718931E+03  0.12500000000E+03 0.  0.
         25    1    1    2    0    0 -0.26510214002E+03  0.35419005834E+03 -0.44449748297E+03  0.63947850193E+03  0.12500000000E+03 0.  0.
</event>
<event>
 5    0  0.5572507E-005  0.2624865E+03  0.7546771E-02  0.1105658E+00
         21   -1    0    0  502  501  0.00000000000E+00  0.00000000000E+00  0.17275442576E+04  0.17275442576E+04  0.00000000000E+00 0.  1.
         21   -1    0    0  501  502 -0.00000000000E+00 -0.00000000000E+00 -0.39882727973E+02  0.39882727973E+02  0.00000000000E+00 0.  1.
         25    1    1    2    0    0 -0.29015272378E+02  0.27571296673E+02  0.71158137951E+03  0.72358491008E+03  0.12500000000E+03 0.  0.
         25    1    1    2    0    0  0.62929145264E+02  0.62016170783E+02  0.76679045109E+03  0.78191986715E+03  0.12500000000E+03 0.  0.
         25    1    1    2    0    0 -0.33913872885E+02 -0.89587467457E+02  0.20928969899E+03  0.26192220830E+03  0.12500000000E+03 0.  0.
</event>
<event>
 5    0  0.5572507E-005  0.4286637E+03  0.7546771E-02  0.1034283E+00
         21   -1    0    0  502  501  0.00000000000E+00  0.00000000000E+00  0.27818876809E+03  0.27818876809E+03  0.00000000000E+00 0.  1.
         21   -1    0    0  501  502 -0.00000000000E+00 -0.00000000000E+00 -0.66053183455E+03  0.66053183455E+03  0.00000000000E+00 0.  1.
         25    1    1    2    0    0 -0.17468948724E+03  0.11123409168E+03 -0.15286025428E+03  0.28614803414E+03  0.12500000000E+03 0.  0.
         25    1    1    2    0    0  0.22654526284E+03 -0.23262996934E+03  0.14571212064E+02  0.34824815717E+03  0.12500000000E+03 0.  0.
         25    1    1    2    0    0 -0.51855775602E+02  0.12139587767E+03 -0.24405402425E+03  0.30432441133E+03  0.12500000000E+03 0.  0.
</event>
<event>
 5    0  0.5572507E-005  0.2847434E+03  0.7546771E-02  0.1093126E+00
         21   -1    0    0  502  501  0.00000000000E+00  0.00000000000E+00  0.14838615928E+03  0.14838615928E+03  0.00000000000E+00 0.  1.
         21   -1    0    0  501  502 -0.00000000000E+00 -0.00000000000E+00 -0.54640397174E+03  0.54640397174E+03  0.00000000000E+00 0.  1.
         25    1    1    2    0    0  0.15196368274E+02  0.40681948313E+02 -0.31214740491E+03  0.33903827648E+03  0.12500000000E+03 0.  0.
         25    1    1    2    0    0 -0.60562738375E+02  0.36210523652E+02  0.48656062760E+02  0.15156338524E+03  0.12500000000E+03 0.  0.
         25    1    1    2    0    0  0.45366370100E+02 -0.76892471965E+02 -0.13452647030E+03  0.20418846930E+03  0.12500000000E+03 0.  0.
</event>
<event>
 5    0  0.5572507E-005  0.3935783E+03  0.7546771E-02  0.1046026E+00
         21   -1    0    0  502  501  0.00000000000E+00  0.00000000000E+00  0.60593273550E+03  0.60593273550E+03  0.00000000000E+00 0.  1.
         21   -1    0    0  501  502 -0.00000000000E+00 -0.00000000000E+00 -0.25564533142E+03  0.25564533142E+03  0.00000000000E+00 0.  1.
         25    1    1    2    0    0 -0.12232485470E+03  0.24247454921E+03  0.43728939082E+01  0.29900066771E+03  0.12500000000E+03 0.  0.
         25    1    1    2    0    0  0.76057029149E+02 -0.33276792518E+01  0.39350000692E+02  0.15155582366E+03  0.12500000000E+03 0.  0.
         25    1    1    2    0    0  0.46267825554E+02 -0.23914686995E+03  0.30656450948E+03  0.41102157554E+03  0.12500000000E+03 0.  0.
</event>
<event>
 5    0  0.5572507E-005  0.2837888E+03  0.7546771E-02  0.1093637E+00
         21   -1    0    0  502  501  0.00000000000E+00  0.00000000000E+00  0.22735739632E+04  0.22735739632E+04  0.00000000000E+00 0.  1.
         21   -1    0    0  501  502 -0.00000000000E+00 -0.00000000000E+00 -0.35422670442E+02  0.35422670442E+02  0.00000000000E+00 0.  1.
         25    1    1    2    0    0  0.47547661429E+02  0.71044401414E+02  0.28273821425E+03  0.32073974633E+03  0.12500000000E+03 0.  0.
         25    1    1    2    0    0  0.82083391613E+02 -0.84798545956E+02  0.75435113542E+03  0.77369187154E+03  0.12500000000E+03 0.  0.
         25    1    1    2    0    0 -0.12963105304E+03  0.13754144542E+02  0.12010619431E+04  0.12145650158E+04  0.12500000000E+03 0.  0.
</event>
<event>
 5    0  0.5886590E-005  0.3434878E+03  0.7546771E-02  0.1065320E+00
         21   -1    0    0  502  501  0.00000000000E+00  0.00000000000E+00  0.14051355806E+03  0.14051355806E+03  0.00000000000E+00 0.  1.
         21   -1    0    0  501  502 -0.00000000000E+00 -0.00000000000E+00 -0.83966204469E+03  0.83966204469E+03  0.00000000000E+00 0.  1.
         25    1    1    2    0    0  0.52011168466E+01 -0.16398847337E+03 -0.20926626645E+03  0.29383097401E+03  0.12500000000E+03 0.  0.
         25    1    1    2    0    0 -0.49722842127E+02  0.10309288922E+03 -0.51141433747E+03  0.53876723119E+03  0.12500000000E+03 0.  0.
         25    1    1    2    0    0  0.44521725280E+02  0.60895584151E+02  0.21532117293E+02  0.14757739755E+03  0.12500000000E+03 0.  0.
</event>
<event>
 5    0  0.5572507E-005  0.2878047E+03  0.7546771E-02  0.1091501E+00
         21   -1    0    0  502  501  0.00000000000E+00  0.00000000000E+00  0.16867363203E+03  0.16867363203E+03  0.00000000000E+00 0.  1.
         21   -1    0    0  501  502 -0.00000000000E+00 -0.00000000000E+00 -0.49107573606E+03  0.49107573606E+03  0.00000000000E+00 0.  1.
         25    1    1    2    0    0  0.75245090633E+00  0.82202298389E+02 -0.84320903272E+02  0.17173467551E+03  0.12500000000E+03 0.  0.
         25    1    1    2    0    0  0.64152252549E+02  0.84266545643E+00 -0.28513519544E+03  0.31787308989E+03  0.12500000000E+03 0.  0.
         25    1    1    2    0    0 -0.64904703455E+02 -0.83044963845E+02  0.47053994684E+02  0.17014160269E+03  0.12500000000E+03 0.  0.
</event>
<event>
 5    0  0.5946065E-005  0.2955746E+03  0.7546771E-02  0.1087474E+00
         21   -1    0    0  502  501  0.00000000000E+00  0.00000000000E+00  0.44399295293E+03  0.44399295293E+03  0.00000000000E+00 0.  1.
         21   -1    0    0  501  502 -0.00000000000E+00 -0.00000000000E+00 -0.19676972144E+03  0.19676972144E+03  0.00000000000E+00 0.  1.
         25    1    1    2    0    0 -0.29412407501E+02 -0.14873531710E+02  0.18562016441E+03  0.22619937466E+03  0.12500000000E+03 0.  0.
         25    1    1    2    0    0 -0.28776381787E+02 -0.10394852606E+03 -0.80466790686E+02  0.18366622069E+03  0.12500000000E+03 0.  0.
         25    1    1    2    0    0  0.58188789288E+02  0.11882205777E+03  0.14206985777E+03  0.23089707902E+03  0.12500000000E+03 0.  0.
</event>
<event>
 5    0  0.5572507E-005  0.2811477E+03  0.7546771E-02  0.1095064E+00
         21   -1    0    0  502  501  0.00000000000E+00  0.00000000000E+00  0.29326035720E+03  0.29326035720E+03  0.00000000000E+00 0.  1.
         21   -1    0    0  501  502 -0.00000000000E+00 -0.00000000000E+00 -0.26953525635E+03  0.26953525635E+03  0.00000000000E+00 0. -1.
         25    1    1    2    0    0 -0.17311786884E+03 -0.67590303916E+02 -0.18252380731E+02  0.22471402960E+03  0.12500000000E+03 0.  0.
         25    1    1    2    0    0  0.28714760490E+02 -0.59817151244E+01 -0.34029952482E+01  0.12844025367E+03  0.12500000000E+03 0.  0.
         25    1    1    2    0    0  0.14440310835E+03  0.73572019040E+02  0.45380476823E+02  0.20964133029E+03  0.12500000000E+03 0.  0.
</event>
<event>
 5    0  0.5572507E-005  0.2278270E+03  0.7546771E-02  0.1128179E+00
         21   -1    0    0  502  501  0.00000000000E+00  0.00000000000E+00  0.24242915640E+03  0.24242915640E+03  0.00000000000E+00 0. -1.
         21   -1    0    0  501  502 -0.00000000000E+00 -0.00000000000E+00 -0.21410437474E+03  0.21410437474E+03  0.00000000000E+00 0. -1.
         25    1    1    2    0    0  0.54470223072E+02  0.23964849935E+02  0.38559907675E+02  0.14371216272E+03  0.12500000000E+03 0.  0.
         25    1    1    2    0    0 -0.11284291341E+03 -0.41026863463E+02  0.13473956042E+01  0.17333073042E+03  0.12500000000E+03 0.  0.
         25    1    1    2    0    0  0.58372690339E+02  0.17062013528E+02 -0.11582521623E+02  0.13949063800E+03  0.12500000000E+03 0.  0.
</event>
<event>
 5    0  0.5572507E-005  0.2530677E+03  0.7546771E-02  0.1111381E+00
         21   -1    0    0  502  501  0.00000000000E+00  0.00000000000E+00  0.26169605076E+03  0.26169605076E+03  0.00000000000E+00 0.  1.
         21   -1    0    0  501  502 -0.00000000000E+00 -0.00000000000E+00 -0.24472388436E+03  0.24472388436E+03  0.00000000000E+00 0.  1.
         25    1    1    2    0    0  0.46963778832E+00  0.77438914413E+02 -0.12199876786E+03  0.19106466283E+03  0.12500000000E+03 0.  0.
         25    1    1    2    0    0  0.51719471180E+02 -0.52190807011E+02  0.78470313994E+02  0.16486774765E+03  0.12500000000E+03 0.  0.
         25    1    1    2    0    0 -0.52189108968E+02 -0.25248107401E+02  0.60500620264E+02  0.15048752465E+03  0.12500000000E+03 0.  0.
</event>
<event>
 5    0  0.5572507E-005  0.3723187E+03  0.7546771E-02  0.1053810E+00
         21   -1    0    0  502  501  0.00000000000E+00  0.00000000000E+00  0.30980485728E+03  0.30980485728E+03  0.00000000000E+00 0. -1.
         21   -1    0    0  501  502 -0.00000000000E+00 -0.00000000000E+00 -0.44744688420E+03  0.44744688420E+03  0.00000000000E+00 0. -1.
         25    1    1    2    0    0  0.12558303350E+03 -0.72501818663E+02 -0.76584301819E+01  0.19160183602E+03  0.12500000000E+03 0.  0.
         25    1    1    2    0    0 -0.28131222106E+02 -0.11647757349E+03  0.12294754898E+03  0.21236640644E+03  0.12500000000E+03 0.  0.
         25    1    1    2    0    0 -0.97451811398E+02  0.18897939216E+03 -0.25293114572E+03  0.35328349902E+03  0.12500000000E+03 0.  0.
</event>
<event>
 5    0  0.5572507E-005  0.4308565E+03  0.7546771E-02  0.1033590E+00
         21   -1    0    0  502  501  0.00000000000E+00  0.00000000000E+00  0.16090819063E+04  0.16090819063E+04  0.00000000000E+00 0. -1.
         21   -1    0    0  501  502 -0.00000000000E+00 -0.00000000000E+00 -0.11536847376E+03  0.11536847376E+03  0.00000000000E+00 0. -1.
         25    1    1    2    0    0  0.78183669666E+02  0.97352924845E+02  0.42837895701E+03  0.46338300464E+03  0.12500000000E+03 0.  0.
         25    1    1    2    0    0 -0.16167116546E+03 -0.22097937588E+03  0.10168964058E+04  0.10605058937E+04  0.12500000000E+03 0.  0.
         25    1    1    2    0    0  0.83487495798E+02  0.12362645103E+03  0.48438069643E+02  0.20056148170E+03  0.12500000000E+03 0.  0.
</event>
<event>
 5    0  0.5572507E-005  0.3400817E+03  0.7546771E-02  0.1066761E+00
         21   -1    0    0  502  501  0.00000000000E+00  0.00000000000E+00  0.63337723529E+02  0.63337723529E+02  0.00000000000E+00 0. -1.
         21   -1    0    0  501  502 -0.00000000000E+00 -0.00000000000E+00 -0.18260136746E+04  0.18260136746E+04  0.00000000000E+00 0. -1.
         25    1    1    2    0    0 -0.12042783275E+03 -0.53050015213E+02 -0.14573735202E+03  0.23276929090E+03  0.12500000000E+03 0.  0.
         25    1    1    2    0    0 -0.54003482270E+02  0.42081050385E+02 -0.74914005484E+03  0.76257656184E+03  0.12500000000E+03 0.  0.
         25    1    1    2    0    0  0.17443131502E+03  0.10968964828E+02 -0.86779854421E+03  0.89400554538E+03  0.12500000000E+03 0.  0.
</event>
<event>
 5    0  0.5572507E-005  0.2555551E+03  0.7546771E-02  0.1109844E+00
         21   -1    0    0  502  501  0.00000000000E+00  0.00000000000E+00  0.36215239607E+03  0.36215239607E+03  0.00000000000E+00 0.  1.
         21   -1    0    0  501  502 -0.00000000000E+00 -0.00000000000E+00 -0.18033411088E+03  0.18033411088E+03  0.00000000000E+00 0.  1.
         25    1    1    2    0    0 -0.99984596161E+02 -0.23272790506E+02  0.10452057769E+03  0.19258269239E+03  0.12500000000E+03 0.  0.
         25    1    1    2    0    0 -0.45814225112E+01 -0.68936620487E+02  0.77836853755E+02  0.16265553442E+03  0.12500000000E+03 0.  0.
         25    1    1    2    0    0  0.10456601867E+03  0.92209410993E+02 -0.53914625210E+00  0.18724828014E+03  0.12500000000E+03 0.  0.
</event>
<event>
 5    0  0.5572507E-005  0.2837531E+03  0.7546771E-02  0.1093657E+00
         21   -1    0    0  502  501  0.00000000000E+00  0.00000000000E+00  0.50773523623E+03  0.50773523623E+03  0.00000000000E+00 0.  1.
         21   -1    0    0  501  502 -0.00000000000E+00 -0.00000000000E+00 -0.15857840425E+03  0.15857840425E+03  0.00000000000E+00 0.  1.
         25    1    1    2    0    0 -0.91714567431E+02  0.17521869925E+03  0.13056133881E+03  0.26792614213E+03  0.12500000000E+03 0.  0.
         25    1    1    2    0    0  0.79760868401E+02 -0.13592189615E+03  0.14081969138E+03  0.24554377097E+03  0.12500000000E+03 0.  0.
         25    1    1    2    0    0  0.11953699029E+02 -0.39296803101E+02  0.77775801793E+02  0.15284372738E+03  0.12500000000E+03 0.  0.
</event>
<event>
 5    0  0.6141370E-005  0.2475979E+03  0.7546771E-02  0.1114832E+00
         21   -1    0    0  502  501  0.00000000000E+00  0.00000000000E+00  0.22074794384E+03  0.22074794384E+03  0.00000000000E+00 0.  1.
         21   -1    0    0  501  502 -0.00000000000E+00 -0.00000000000E+00 -0.27771371927E+03  0.27771371927E+03  0.00000000000E+00 0.  1.
         25    1    1    2    0    0  0.24442861663E+02 -0.65238258451E+02 -0.56347250320E+01  0.14321394478E+03  0.12500000000E+03 0.  0.
         25    1    1    2    0    0  0.36747872674E+01  0.14401756538E+03  0.14039942716E+02  0.19125031553E+03  0.12500000000E+03 0.  0.
         25    1    1    2    0    0 -0.28117648930E+02 -0.78779306934E+02 -0.65370993112E+02  0.16399740279E+03  0.12500000000E+03 0.  0.
</event>
<event>
 5    0  0.5572507E-005  0.4382025E+03  0.7546771E-02  0.1031300E+00
         21   -1    0    0  502  501  0.00000000000E+00  0.00000000000E+00  0.66589936928E+03  0.66589936928E+03  0.00000000000E+00 0. -1.
         21   -1    0    0  501  502 -0.00000000000E+00 -0.00000000000E+00 -0.28836407533E+03  0.28836407533E+03  0.00000000000E+00 0. -1.
         25    1    1    2    0    0  0.18562512055E+03 -0.28147912295E+03  0.65623564269E+02  0.36553882725E+03  0.12500000000E+03 0.  0.
         25    1    1    2    0    0 -0.98310652350E+02  0.21036446563E+03  0.36827835696E+02  0.26626956688E+03  0.12500000000E+03 0.  0.
         25    1    1    2    0    0 -0.87314468203E+02  0.71114657323E+02  0.27508389399E+03  0.32245505047E+03  0.12500000000E+03 0.  0.
</event>
<event>
 5    0  0.5572507E-005  0.2515463E+03  0.7546771E-02  0.1112332E+00
         21   -1    0    0  502  501  0.00000000000E+00  0.00000000000E+00  0.48912463825E+03  0.48912463825E+03  0.00000000000E+00 0. -1.
         21   -1    0    0  501  502 -0.00000000000E+00 -0.00000000000E+00 -0.12936482695E+03  0.12936482695E+03  0.00000000000E+00 0. -1.
         25    1    1    2    0    0 -0.90885649713E+02 -0.87218161078E+02  0.14801284145E+03  0.23108442219E+03  0.12500000000E+03 0.  0.
         25    1    1    2    0    0  0.11843869443E+03  0.94072327958E+02  0.12644180957E+03  0.23343062874E+03  0.12500000000E+03 0.  0.
         25    1    1    2    0    0 -0.27553044718E+02 -0.68541668795E+01  0.85305160288E+02  0.15397441427E+03  0.12500000000E+03 0.  0.
</event>
<event>
 5    0  0.5572507E-005  0.2698237E+03  0.7546771E-02  0.1101381E+00
         21   -1    0    0  502  501  0.00000000000E+00  0.00000000000E+00  0.12460750122E+04  0.12460750122E+04  0.00000000000E+00 0.  1.
         21   -1    0    0  501  502 -0.00000000000E+00 -0.00000000000E+00 -0.58427338581E+02  0.58427338581E+02  0.00000000000E+00 0.  1.
         25    1    1    2    0    0  0.50976273544E+02  0.10736282216E+02  0.80537597349E+03  0.81668188844E+03  0.12500000000E+03 0.  0.
         25    1    1    2    0    0  0.53311981851E+02  0.15489515592E+02  0.19665209707E+03  0.23953943262E+03  0.12500000000E+03 0.  0.
         25    1    1    2    0    0 -0.10428825540E+03 -0.26225797808E+02  0.18561960311E+03  0.24828102977E+03  0.12500000000E+03 0.  0.
</event>
<event>
 5    0  0.5572507E-005  0.6835353E+03  0.7546771E-02  0.9745811E-01
         21   -1    0    0  502  501  0.00000000000E+00  0.00000000000E+00  0.10773907100E+04  0.10773907100E+04  0.00000000000E+00 0. -1.
         21   -1    0    0  501  502 -0.00000000000E+00 -0.00000000000E+00 -0.43365925457E+03  0.43365925457E+03  0.00000000000E+00 0.  1.
         25    1    1    2    0    0  0.20829197188E+03 -0.12794031686E+03  0.82662862038E+02  0.28672708102E+03  0.12500000000E+03 0.  0.
         25    1    1    2    0    0 -0.33199876123E+03  0.19655384546E+03 -0.19145511972E+03  0.44848261337E+03  0.12500000000E+03 0.  0.
         25    1    1    2    0    0  0.12370678935E+03 -0.68613528605E+02  0.75252371307E+03  0.77584027014E+03  0.12500000000E+03 0.  0.
</event>
<event>
 5    0  0.5572507E-005  0.4073974E+03  0.7546771E-02  0.1041248E+00
         21   -1    0    0  502  501  0.00000000000E+00  0.00000000000E+00  0.49707143527E+03  0.49707143527E+03  0.00000000000E+00 0. -1.
         21   -1    0    0  501  502 -0.00000000000E+00 -0.00000000000E+00 -0.33390093124E+03  0.33390093124E+03  0.00000000000E+00 0. -1.
         25    1    1    2    0    0 -0.15151567213E+03  0.74203157535E+02  0.35083704843E+02  0.21288253530E+03  0.12500000000E+03 0.  0.
         25    1    1    2    0    0 -0.19306782376E+03 -0.59372931747E+02  0.59492650060E+02  0.24487691807E+03  0.12500000000E+03 0.  0.
         25    1    1    2    0    0  0.34458349588E+03 -0.14830225788E+02  0.68594149128E+02  0.37321291313E+03  0.12500000000E+03 0.  0.
</event>
<event>
 5    0  0.5572507E-005  0.3850377E+03  0.7546771E-02  0.1049087E+00
         21   -1    0    0  502  501  0.00000000000E+00  0.00000000000E+00  0.92294862831E+02  0.92294862831E+02  0.00000000000E+00 0.  1.
         21   -1    0    0  501  502 -0.00000000000E+00 -0.00000000000E+00 -0.16063089961E+04  0.16063089961E+04  0.00000000000E+00 0.  1.
         25    1    1    2    0    0  0.13703313308E+03  0.15622704166E+03 -0.68748975358E+03  0.72900763329E+03  0.12500000000E+03 0.  0.
         25    1    1    2    0    0 -0.87855675876E+02  0.65486482973E+02 -0.60873089159E+03  0.63101933220E+03  0.12500000000E+03 0.  0.
         25    1    1    2    0    0 -0.49177457208E+02 -0.22171352464E+03 -0.21779348805E+03  0.33857689339E+03  0.12500000000E+03 0.  0.
</event>
<event>
 5    0  0.5572507E-005  0.2236518E+03  0.7546771E-02  0.1131189E+00
         21   -1    0    0  502  501  0.00000000000E+00  0.00000000000E+00  0.25237032142E+03  0.25237032142E+03  0.00000000000E+00 0.  1.
         21   -1    0    0  501  502 -0.00000000000E+00 -0.00000000000E+00 -0.19820122024E+03  0.19820122024E+03  0.00000000000E+00 0.  1.
         25    1    1    2    0    0 -0.82569109616E+02  0.33411073940E+02  0.40127669280E+01  0.15354172079E+03  0.12500000000E+03 0.  0.
         25    1    1    2    0    0  0.10193670683E+03 -0.12653397678E+02  0.48250688617E+02  0.16883225291E+03  0.12500000000E+03 0.  0.
         25    1    1    2    0    0 -0.19367597212E+02 -0.20757676262E+02  0.19056456282E+01  0.12819756796E+03  0.12500000000E+03 0.  0.
</event>
<event>
 5    0  0.5572507E-005  0.2849217E+03  0.7546771E-02  0.1093031E+00
         21   -1    0    0  502  501  0.00000000000E+00  0.00000000000E+00  0.20270170331E+03  0.20270170331E+03  0.00000000000E+00 0.  1.
         21   -1    0    0  501  502 -0.00000000000E+00 -0.00000000000E+00 -0.40049172152E+03  0.40049172152E+03  0.00000000000E+00 0.  1.
         25    1    1    2    0    0 -0.69598871231E+02  0.11848523981E+03 -0.82063310199E+02  0.20308161367E+03  0.12500000000E+03 0.  0.
         25    1    1    2    0    0  0.12952862681E+03 -0.36135751236E+01 -0.12605014494E+03  0.21978253372E+03  0.12500000000E+03 0.  0.
         25    1    1    2    0    0 -0.59929755576E+02 -0.11487166469E+03  0.10323436935E+02  0.18032927744E+03  0.12500000000E+03 0.  0.
</event>
<event>
 5    0  0.5572507E-005  0.3630126E+03  0.7546771E-02  0.1057397E+00
         21   -1    0    0  502  501  0.00000000000E+00  0.00000000000E+00  0.15635978249E+03  0.15635978249E+03  0.00000000000E+00 0.  1.
         21   -1    0    0  501  502 -0.00000000000E+00 -0.00000000000E+00 -0.84278812319E+03  0.84278812319E+03  0.00000000000E+00 0.  1.
         25    1    1    2    0    0  0.26480357432E+03  0.96818798651E+02 -0.31132286300E+03  0.43822566991E+03  0.12500000000E+03 0.  0.
         25    1    1    2    0    0 -0.71038393970E+02 -0.76510099386E+02 -0.68344335090E+02  0.17662445149E+03  0.12500000000E+03 0.  0.
         25    1    1    2    0    0 -0.19376518035E+03 -0.20308699264E+02 -0.30676114261E+03  0.38429778427E+03  0.12500000000E+03 0.  0.
</event>
<event>
 5    0  0.6232252E-005  0.2678826E+03  0.7546771E-02  0.1102498E+00
         21   -1    0    0  502  501  0.00000000000E+00  0.00000000000E+00  0.11557353520E+03  0.11557353520E+03  0.00000000000E+00 0. -1.
         21   -1    0    0  501  502 -0.00000000000E+00 -0.00000000000E+00 -0.62091263506E+03  0.62091263506E+03  0.00000000000E+00 0. -1.
         25    1    1    2    0    0  0.74992104057E+01 -0.83350231788E+02 -0.19522602396E+02  0.15168925901E+03  0.12500000000E+03 0.  0.
         25    1    1    2    0    0 -0.12954627356E+02  0.12084196594E+03 -0.37484318920E+03  0.41340418429E+03  0.12500000000E+03 0.  0.
         25    1    1    2    0    0  0.54554169499E+01 -0.37491734153E+02 -0.11097330827E+03  0.17139272696E+03  0.12500000000E+03 0.  0.
</event>
<event>
 5    0  0.5572507E-005  0.2449716E+03  0.7546771E-02  0.1116524E+00
         21   -1    0    0  502  501  0.00000000000E+00  0.00000000000E+00  0.12822321633E+03  0.12822321633E+03  0.00000000000E+00 0. -1.
         21   -1    0    0  501  502 -0.00000000000E+00 -0.00000000000E+00 -0.46802059407E+03  0.46802059407E+03  0.00000000000E+00 0. -1.
         25    1    1    2    0    0  0.63330420068E+02  0.39639446902E+02 -0.77050406273E+02  0.16475373429E+03  0.12500000000E+03 0.  0.
         25    1    1    2    0    0 -0.54011898171E+02 -0.11207132294E+03 -0.68419780516E+02  0.18916535871E+03  0.12500000000E+03 0.  0.
         25    1    1    2    0    0 -0.93185218967E+01  0.72431876035E+02 -0.19432719095E+03  0.24232471739E+03  0.12500000000E+03 0.  0.
</event>
<event>
 5    0  0.5572507E-005  0.3325947E+03  0.7546771E-02  0.1069995E+00
         21   -1    0    0  502  501  0.00000000000E+00  0.00000000000E+00  0.47836031613E+03  0.47836031613E+03  0.00000000000E+00 0. -1.
         21   -1    0    0  501  502 -0.00000000000E+00 -0.00000000000E+00 -0.23124666448E+03  0.23124666448E+03  0.00000000000E+00 0. -1.
         25    1    1    2    0    0  0.23695105590E+02  0.10133001947E+03  0.27982439008E+02  0.16503711027E+03  0.12500000000E+03 0.  0.
         25    1    1    2    0    0  0.11459619654E+03 -0.18755362733E+03  0.22590978454E+03  0.33907061527E+03  0.12500000000E+03 0.  0.
         25    1    1    2    0    0 -0.13829130213E+03  0.86223607855E+02 -0.67785718967E+01  0.20549925507E+03  0.12500000000E+03 0.  0.
</event>
<event>
 5    0  0.5572507E-005  0.2724941E+03  0.7546771E-02  0.1099861E+00
         21   -1    0    0  502  501  0.00000000000E+00  0.00000000000E+00  0.41107773570E+03  0.41107773570E+03  0.00000000000E+00 0. -1.
         21   -1    0    0  501  502 -0.00000000000E+00 -0.00000000000E+00 -0.18063016140E+03  0.18063016140E+03  0.00000000000E+00 0. -1.
         25    1    1    2    0    0 -0.90178838708E+02 -0.15647211287E+02  0.18725219840E+03  0.24303383299E+03  0.12500000000E+03 0.  0.
         25    1    1    2    0    0  0.80991986048E+02  0.44682875614E+02  0.12213315311E+03  0.19773155607E+03  0.12500000000E+03 0.  0.
         25    1    1    2    0    0  0.91868526608E+01 -0.29035664327E+02 -0.78937777203E+02  0.15094250804E+03  0.12500000000E+03 0.  0.
</event>
<event>
 5    0  0.5572507E-005  0.2626071E+03  0.7546771E-02  0.1105587E+00
         21   -1    0    0  502  501  0.00000000000E+00  0.00000000000E+00  0.13362721482E+03  0.13362721482E+03  0.00000000000E+00 0.  1.
         21   -1    0    0  501  502 -0.00000000000E+00 -0.00000000000E+00 -0.51608132472E+03  0.51608132472E+03  0.00000000000E+00 0.  1.
         25    1    1    2    0    0  0.15727259566E+01  0.39937582749E+02 -0.17310225641E+03  0.21722540173E+03  0.12500000000E+03 0.  0.
         25    1    1    2    0    0  0.99295014339E+02 -0.59837364631E+02 -0.33651698242E+01  0.17051784202E+03  0.12500000000E+03 0.  0.
         25    1    1    2    0    0 -0.10086774030E+03  0.19899781882E+02 -0.20598668367E+03  0.26196529579E+03  0.12500000000E+03 0.  0.
</event>
<event>
 5    0  0.5572507E-005  0.2698165E+03  0.7546771E-02  0.1101385E+00
         21   -1    0    0  502  501  0.00000000000E+00  0.00000000000E+00  0.32877704056E+03  0.32877704056E+03  0.00000000000E+00 0. -1.
         21   -1    0    0  501  502 -0.00000000000E+00 -0.00000000000E+00 -0.22142959709E+03  0.22142959709E+03  0.00000000000E+00 0. -1.
         25    1    1    2    0    0  0.42945368853E+01 -0.57659960902E+02  0.53195953784E+02  0.14764119898E+03  0.12500000000E+03 0.  0.
         25    1    1    2    0    0  0.45293240139E+02  0.12920365415E+03  0.13573526632E+03  0.22976972031E+03  0.12500000000E+03 0.  0.
         25    1    1    2    0    0 -0.49587777024E+02 -0.71543693250E+02 -0.81583776635E+02  0.17279571836E+03  0.12500000000E+03 0.  0.
</event>
<event>
 5    0  0.5572507E-005  0.4172778E+03  0.7546771E-02  0.1037956E+00
         21   -1    0    0  502  501  0.00000000000E+00  0.00000000000E+00  0.82221285945E+03  0.82221285945E+03  0.00000000000E+00 0. -1.
         21   -1    0    0  501  502 -0.00000000000E+00 -0.00000000000E+00 -0.21177094216E+03  0.21177094216E+03  0.00000000000E+00 0. -1.
         25    1    1    2    0    0 -0.13359784722E+03  0.10580579122E+03  0.20012036409E+02  0.21229397504E+03  0.12500000000E+03 0.  0.
         25    1    1    2    0    0  0.44365065896E+02 -0.20725397231E+02 -0.60678238599E+02  0.14732498024E+03  0.12500000000E+03 0.  0.
         25    1    1    2    0    0  0.89232781327E+02 -0.85080393992E+02  0.65110811948E+03  0.67436484632E+03  0.12500000000E+03 0.  0.
</event>
<event>
 5    0  0.5572507E-005  0.4190882E+03  0.7546771E-02  0.1037363E+00
         21   -1    0    0  502  501  0.00000000000E+00  0.00000000000E+00  0.15043533044E+03  0.15043533044E+03  0.00000000000E+00 0. -1.
         21   -1    0    0  501  502 -0.00000000000E+00 -0.00000000000E+00 -0.11675111736E+04  0.11675111736E+04  0.00000000000E+00 0. -1.
         25    1    1    2    0    0  0.48960424222E+02  0.44952884626E+02 -0.10457791799E+03  0.17600973242E+03  0.12500000000E+03 0.  0.
         25    1    1    2    0    0 -0.11363092829E+03  0.18434530780E+03 -0.82025473792E+03  0.85751852193E+03  0.12500000000E+03 0.  0.
         25    1    1    2    0    0  0.64670504067E+02 -0.22929819243E+03 -0.92243187197E+02  0.28441824964E+03  0.12500000000E+03 0.  0.
</event>
<event>
 5    0  0.5572507E-005  0.3281103E+03  0.7546771E-02  0.1071976E+00
         21   -1    0    0  502  501  0.00000000000E+00  0.00000000000E+00  0.52982534779E+03  0.52982534779E+03  0.00000000000E+00 0. -1.
         21   -1    0    0  501  502 -0.00000000000E+00 -0.00000000000E+00 -0.20319214571E+03  0.20319214571E+03  0.00000000000E+00 0. -1.
         25    1    1    2    0    0  0.23566564157E+02 -0.19638172170E+03  0.59885186448E+02  0.24152101176E+03  0.12500000000E+03 0.  0.
         25    1    1    2    0    0  0.26565036452E+02  0.42092630258E+02  0.25261206534E+03  0.28620857122E+03  0.12500000000E+03 0.  0.
         25    1    1    2    0    0 -0.50131600610E+02  0.15428909144E+03  0.14135950282E+02  0.20528791052E+03  0.12500000000E+03 0.  0.
</event>
<event>
 5    0  0.5572507E-005  0.3636131E+03  0.7546771E-02  0.1057162E+00
         21   -1    0    0  502  501  0.00000000000E+00  0.00000000000E+00  0.13715238501E+03  0.13715238501E+03  0.00000000000E+00 0.  1.
         21   -1    0    0  501  502 -0.00000000000E+00 -0.00000000000E+00 -0.96399681037E+03  0.96399681037E+03  0.00000000000E+00 0.  1.
         25    1    1    2    0    0  0.13390347302E+03  0.28928276531E+01 -0.45118546619E+02  0.18867748087E+03  0.12500000000E+03 0.  0.
         25    1    1    2    0    0 -0.17474317771E+03  0.28470391304E+02 -0.73985560182E+03  0.77094555766E+03  0.12500000000E+03 0.  0.
         25    1    1    2    0    0  0.40839704690E+02 -0.31363218957E+02 -0.41870276919E+02  0.14152615685E+03  0.12500000000E+03 0.  0.
</event>
<event>
 5    0  0.5572507E-005  0.2669061E+03  0.7546771E-02  0.1103063E+00
         21   -1    0    0  502  501  0.00000000000E+00  0.00000000000E+00  0.11058760764E+04  0.11058760764E+04  0.00000000000E+00 0. -1.
         21   -1    0    0  501  502 -0.00000000000E+00 -0.00000000000E+00 -0.64418486809E+02  0.64418486809E+02  0.00000000000E+00 0. -1.
         25    1    1    2    0    0  0.10174007045E+03 -0.74788267898E+02  0.20589963135E+03  0.27196320549E+03  0.12500000000E+03 0.  0.
         25    1    1    2    0    0 -0.99160921924E+02 -0.33954915427E+02  0.45090108421E+03  0.47950246345E+03  0.12500000000E+03 0.  0.
         25    1    1    2    0    0 -0.25791485276E+01  0.10874318333E+03  0.38465687399E+03  0.41882889422E+03  0.12500000000E+03 0.  0.
</event>
<event>
 5    0  0.5572507E-005  0.2437737E+03  0.7546771E-02  0.1117304E+00
         21   -1    0    0  502  501  0.00000000000E+00  0.00000000000E+00  0.54316064421E+03  0.54316064421E+03  0.00000000000E+00 0. -1.
         21   -1    0    0  501  502 -0.00000000000E+00 -0.00000000000E+00 -0.10940705768E+03  0.10940705768E+03  0.00000000000E+00 0. -1.
         25    1    1    2    0    0  0.11778955456E+02  0.42295352765E+02  0.13978669489E+03  0.19259532893E+03  0.12500000000E+03 0.  0.
         25    1    1    2    0    0 -0.12409677216E+03  0.12600489690E+02  0.15783418012E+03  0.23684469514E+03  0.12500000000E+03 0.  0.
         25    1    1    2    0    0  0.11231781670E+03 -0.54895842454E+02  0.13613271152E+03  0.22312767783E+03  0.12500000000E+03 0.  0.
</event>
<event>
 5    0  0.5572507E-005  0.3847339E+03  0.7546771E-02  0.1049198E+00
         21   -1    0    0  502  501  0.00000000000E+00  0.00000000000E+00  0.20375880734E+04  0.20375880734E+04  0.00000000000E+00 0. -1.
         21   -1    0    0  501  502 -0.00000000000E+00 -0.00000000000E+00 -0.72644785116E+02  0.72644785116E+02  0.00000000000E+00 0. -1.
         25    1    1    2    0    0 -0.79201338573E+02 -0.12596606130E+02  0.40567972359E+03  0.43200991268E+03  0.12500000000E+03 0.  0.
         25    1    1    2    0    0  0.10128696095E+03 -0.26390190338E+03  0.91367232559E+03  0.96453376386E+03  0.12500000000E+03 0.  0.
         25    1    1    2    0    0 -0.22085622374E+02  0.27649850950E+03  0.64559123906E+03  0.71368918195E+03  0.12500000000E+03 0.  0.
</event>
<event>
 5    0  0.5572507E-005  0.2787191E+03  0.7546771E-02  0.1096391E+00
         21   -1    0    0  502  501  0.00000000000E+00  0.00000000000E+00  0.87918417696E+03  0.87918417696E+03  0.00000000000E+00 0. -1.
         21   -1    0    0  501  502 -0.00000000000E+00 -0.00000000000E+00 -0.88359551461E+02  0.88359551461E+02  0.00000000000E+00 0. -1.
         25    1    1    2    0    0 -0.11440327285E+03  0.30336089985E+02  0.11685256930E+03  0.20805746837E+03  0.12500000000E+03 0.  0.
         25    1    1    2    0    0  0.31320264137E+02  0.35694547360E+02  0.51135418950E+03  0.52854816883E+03  0.12500000000E+03 0.  0.
         25    1    1    2    0    0  0.83083008710E+02 -0.66030637345E+02  0.16261786670E+03  0.23093809121E+03  0.12500000000E+03 0.  0.
</event>
<event>
 5    0  0.5572507E-005  0.3574104E+03  0.7546771E-02  0.1059614E+00
         21   -1    0    0  502  501  0.00000000000E+00  0.00000000000E+00  0.88725207680E+03  0.88725207680E+03  0.00000000000E+00 0. -1.
         21   -1    0    0  501  502 -0.00000000000E+00 -0.00000000000E+00 -0.14397506191E+03  0.14397506191E+03  0.00000000000E+00 0. -1.
         25    1    1    2    0    0 -0.89973489894E+02  0.11575074714E+03  0.30832386767E+03  0.36356852411E+03  0.12500000000E+03 0.  0.
         25    1    1    2    0    0  0.60224088047E+02 -0.25551269588E+03  0.15524528632E+03  0.32960548761E+03  0.12500000000E+03 0.  0.
         25    1    1    2    0    0  0.29749401847E+02  0.13976194874E+03  0.27970786090E+03  0.33805312700E+03  0.12500000000E+03 0.  0.
</event>
<event>
 5    0  0.5572507E-005  0.3740155E+03  0.7546771E-02  0.1053168E+00
         21   -1    0    0  502  501  0.00000000000E+00  0.00000000000E+00  0.14706099723E+03  0.14706099723E+03  0.00000000000E+00 0. -1.
         21   -1    0    0  501  502 -0.00000000000E+00 -0.00000000000E+00 -0.95122164687E+03  0.95122164687E+03  0.00000000000E+00 0. -1.
         25    1    1    2    0    0 -0.14226198093E+03  0.17384758119E+03 -0.38833991130E+03  0.46571916367E+03  0.12500000000E+03 0.  0.
         25    1    1    2    0    0  0.24207066721E+02 -0.25597779275E+03 -0.23950383589E+03  0.37295804035E+03  0.12500000000E+03 0.  0.
         25    1    1    2    0    0  0.11805491421E+03  0.82130211556E+02 -0.17631690246E+03  0.25960544007E+03  0.12500000000E+03 0.  0.
</event>
<event>
 5    0  0.5572507E-005  0.2801132E+03  0.7546771E-02  0.1095627E+00
         21   -1    0    0  502  501  0.00000000000E+00  0.00000000000E+00  0.55995269146E+02  0.55995269146E+02  0.00000000000E+00 0. -1.
         21   -1    0    0  501  502 -0.00000000000E+00 -0.00000000000E+00 -0.14012503830E+04  0.14012503830E+04  0.00000000000E+00 0. -1.
         25    1    1    2    0    0  0.93037285804E+02  0.89999361606E+02 -0.34255569511E+03  0.38694344017E+03  0.12500000000E+03 0.  0.
         25    1    1    2    0    0  0.56068741980E+02 -0.96532186687E+02 -0.60074844063E+03  0.62368730612E+03  0.12500000000E+03 0.  0.
         25    1    1    2    0    0 -0.14910602778E+03  0.65328250809E+01 -0.40195097811E+03  0.44661490585E+03  0.12500000000E+03 0.  0.
</event>
<event>
 5    0  0.5572507E-005  0.2654993E+03  0.7546771E-02  0.1103883E+00
         21   -1    0    0  502  501  0.00000000000E+00  0.00000000000E+00  0.26216272966E+03  0.26216272966E+03  0.00000000000E+00 0. -1.
         21   -1    0    0  501  502 -0.00000000000E+00 -0.00000000000E+00 -0.26887824253E+03  0.26887824253E+03  0.00000000000E+00 0. -1.
         25    1    1    2    0    0 -0.21660691979E+02  0.82410389852E+02  0.87798547360E+01  0.15153462899E+03  0.12500000000E+03 0.  0.
         25    1    1    2    0    0 -0.12169646016E+03 -0.40169503819E+02  0.24258281803E+02  0.18065735990E+03  0.12500000000E+03 0.  0.
         25    1    1    2    0    0  0.14335715214E+03 -0.42240886033E+02 -0.39753649409E+02  0.19884898331E+03  0.12500000000E+03 0.  0.
</event>
<event>
 5    0  0.5572507E-005  0.3505971E+03  0.7546771E-02  0.1062370E+00
         21   -1    0    0  502  501  0.00000000000E+00  0.00000000000E+00  0.47139919276E+03  0.47139919276E+03  0.00000000000E+00 0. -1.
         21   -1    0    0  501  502 -0.00000000000E+00 -0.00000000000E+00 -0.26075204006E+03  0.26075204006E+03  0.00000000000E+00 0. -1.
         25    1    1    2    0    0 -0.81575159903E+02  0.20960911887E+03  0.10805213233E+03  0.27908914835E+03  0.12500000000E+03 0.  0.
         25    1    1    2    0    0 -0.85273227008E+02 -0.45101564148E+02 -0.22529824854E+02  0.15949378465E+03  0.12500000000E+03 0.  0.
         25    1    1    2    0    0  0.16684838691E+03 -0.16450755472E+03  0.12512484522E+03  0.29356829983E+03  0.12500000000E+03 0.  0.
</event>
<event>
 5    0  0.5572507E-005  0.2331407E+03  0.7546771E-02  0.1124449E+00
         21   -1    0    0  502  501  0.00000000000E+00  0.00000000000E+00  0.22093740777E+03  0.22093740777E+03  0.00000000000E+00 0.  1.
         21   -1    0    0  501  502 -0.00000000000E+00 -0.00000000000E+00 -0.24601798411E+03  0.24601798411E+03  0.00000000000E+00 0.  1.
         25    1    1    2    0    0 -0.31495623604E+02 -0.53225182803E+02 -0.72388118793E+02  0.15713030940E+03  0.12500000000E+03 0.  0.
         25    1    1    2    0    0 -0.34230930209E+02 -0.33151074389E+02  0.53709405684E+02  0.14415425965E+03  0.12500000000E+03 0.  0.
         25    1    1    2    0    0  0.65726553813E+02  0.86376257192E+02 -0.64018632272E+01  0.16567082282E+03  0.12500000000E+03 0.  0.
</event>
<event>
 5    0  0.5572507E-005  0.3158455E+03  0.7546771E-02  0.1077577E+00
         21   -1    0    0  502  501  0.00000000000E+00  0.00000000000E+00  0.88617911872E+03  0.88617911872E+03  0.00000000000E+00 0. -1.
         21   -1    0    0  501  502 -0.00000000000E+00 -0.00000000000E+00 -0.11257132599E+03  0.11257132599E+03  0.00000000000E+00 0. -1.
         25    1    1    2    0    0 -0.28020548959E+02  0.64373077653E+02  0.22899059810E+03  0.27016798165E+03  0.12500000000E+03 0.  0.
         25    1    1    2    0    0 -0.67223553189E+02 -0.89059535902E+02  0.54429695920E+03  0.56950398316E+03  0.12500000000E+03 0.  0.
         25    1    1    2    0    0  0.95244102148E+02  0.24686458249E+02  0.32023543189E+00  0.15907847989E+03  0.12500000000E+03 0.  0.
</event>
<event>
 5    0  0.5572507E-005  0.2662236E+03  0.7546771E-02  0.1103461E+00
         21   -1    0    0  502  501  0.00000000000E+00  0.00000000000E+00  0.11152321312E+04  0.11152321312E+04  0.00000000000E+00 0. -1.
         21   -1    0    0  501  502 -0.00000000000E+00 -0.00000000000E+00 -0.63551780856E+02  0.63551780856E+02  0.00000000000E+00 0. -1.
         25    1    1    2    0    0  0.12630937794E+03  0.77104292752E+02  0.39478818188E+03  0.43975202043E+03  0.12500000000E+03 0.  0.
         25    1    1    2    0    0 -0.42423949280E+02 -0.59366702484E+02  0.50143664536E+03  0.52190794796E+03  0.12500000000E+03 0.  0.
         25    1    1    2    0    0 -0.83885428659E+02 -0.17737590268E+02  0.15545552310E+03  0.21712394366E+03  0.12500000000E+03 0.  0.
</event>
<event>
 5    0  0.5572507E-005  0.2966332E+03  0.7546771E-02  0.1086936E+00
         21   -1    0    0  502  501  0.00000000000E+00  0.00000000000E+00  0.11201395752E+04  0.11201395752E+04  0.00000000000E+00 0. -1.
         21   -1    0    0  501  502 -0.00000000000E+00 -0.00000000000E+00 -0.78553815662E+02  0.78553815662E+02  0.00000000000E+00 0. -1.
         25    1    1    2    0    0  0.74650803101E+02 -0.89911712689E+02  0.69080067523E+03  0.71167930375E+03  0.12500000000E+03 0.  0.
         25    1    1    2    0    0 -0.12104536018E+03  0.29578313409E+01  0.22311839894E+03  0.28296209628E+03  0.12500000000E+03 0.  0.
         25    1    1    2    0    0  0.46394557083E+02  0.86953881348E+02  0.12766668536E+03  0.20405199083E+03  0.12500000000E+03 0.  0.
</event>
<event>
 5    0  0.5572507E-005  0.2923724E+03  0.7546771E-02  0.1089117E+00
         21   -1    0    0  502  501  0.00000000000E+00  0.00000000000E+00  0.26510045030E+04  0.26510045030E+04  0.00000000000E+00 0. -1.
         21   -1    0    0  501  502 -0.00000000000E+00 -0.00000000000E+00 -0.32244993461E+02  0.32244993461E+02  0.00000000000E+00 0. -1.
         25    1    1    2    0    0 -0.79597826218E+02  0.36222248813E+02  0.29184883947E+03  0.32931536610E+03  0.12500000000E+03 0.  0.
         25    1    1    2    0    0  0.56580751161E+02 -0.12672656817E+03  0.15727247869E+04  0.15837768972E+04  0.12500000000E+03 0.  0.
         25    1    1    2    0    0  0.23017075057E+02  0.90504319353E+02  0.75418588317E+03  0.77015723326E+03  0.12500000000E+03 0.  0.
</event>
<event>
 5    0  0.5572507E-005  0.2731438E+03  0.7546771E-02  0.1099494E+00
         21   -1    0    0  502  501  0.00000000000E+00  0.00000000000E+00  0.55109965232E+03  0.55109965232E+03  0.00000000000E+00 0. -1.
         21   -1    0    0  501  502 -0.00000000000E+00 -0.00000000000E+00 -0.13537941654E+03  0.13537941654E+03  0.00000000000E+00 0. -1.
         25    1    1    2    0    0  0.88758856744E+02  0.41137484010E+02  0.75274828154E+02  0.17567506082E+03  0.12500000000E+03 0.  0.
         25    1    1    2    0    0 -0.17331928201E+03 -0.57740048137E+02  0.15066553941E+03  0.26776592659E+03  0.12500000000E+03 0.  0.
         25    1    1    2    0    0  0.84560425270E+02  0.16602564127E+02  0.18977986821E+03  0.24303808145E+03  0.12500000000E+03 0.  0.
</event>
<event>
 5    0  0.5572507E-005  0.3426802E+03  0.7546771E-02  0.1065660E+00
         21   -1    0    0  502  501  0.00000000000E+00  0.00000000000E+00  0.13481376061E+03  0.13481376061E+03  0.00000000000E+00 0.  1.
         21   -1    0    0  501  502 -0.00000000000E+00 -0.00000000000E+00 -0.87105156441E+03  0.87105156441E+03  0.00000000000E+00 0.  1.
         25    1    1    2    0    0  0.67740786731E+02  0.98081597919E+02 -0.20458789062E+03  0.26774991881E+03  0.12500000000E+03 0.  0.
         25    1    1    2    0    0 -0.20451466178E+03  0.38718180435E+02 -0.41287742234E+03  0.47897610615E+03  0.12500000000E+03 0.  0.
         25    1    1    2    0    0  0.13677387505E+03 -0.13679977835E+03 -0.11877249084E+03  0.25913930006E+03  0.12500000000E+03 0.  0.
</event>
<event>
 5    0  0.5572507E-005  0.3541934E+03  0.7546771E-02  0.1060907E+00
         21   -1    0    0  502  501  0.00000000000E+00  0.00000000000E+00  0.17173540090E+04  0.17173540090E+04  0.00000000000E+00 0.  1.
         21   -1    0    0  501  502 -0.00000000000E+00 -0.00000000000E+00 -0.73050131871E+02  0.73050131871E+02  0.00000000000E+00 0.  1.
         25    1    1    2    0    0 -0.11096980482E+03 -0.12454755043E+03  0.81550565496E+03  0.84172493320E+03  0.12500000000E+03 0.  0.
         25    1    1    2    0    0  0.64970960189E+02  0.23532192369E+03  0.38878100984E+03  0.47578703960E+03  0.12500000000E+03 0.  0.
         25    1    1    2    0    0  0.45998844629E+02 -0.11077437326E+03  0.44001721237E+03  0.47289216811E+03  0.12500000000E+03 0.  0.
</event>
<event>
 5    0  0.5572507E-005  0.3436894E+03  0.7546771E-02  0.1065235E+00
         21   -1    0    0  502  501  0.00000000000E+00  0.00000000000E+00  0.78220797060E+02  0.78220797060E+02  0.00000000000E+00 0. -1.
         21   -1    0    0  501  502 -0.00000000000E+00 -0.00000000000E+00 -0.15101146269E+04  0.15101146269E+04  0.00000000000E+00 0. -1.
         25    1    1    2    0    0 -0.66759670521E+02  0.17520494428E+03 -0.20872259178E+03  0.30715427138E+03  0.12500000000E+03 0.  0.
         25    1    1    2    0    0  0.54319410180E+02 -0.19714901442E+03 -0.62078054022E+03  0.66544106525E+03  0.12500000000E+03 0.  0.
         25    1    1    2    0    0  0.12440260341E+02  0.21944070136E+02 -0.60239069789E+03  0.61574008737E+03  0.12500000000E+03 0.  0.
</event>
<event>
 5    0  0.5572507E-005  0.3563175E+03  0.7546771E-02  0.1060052E+00
         21   -1    0    0  502  501  0.00000000000E+00  0.00000000000E+00  0.24620033908E+04  0.24620033908E+04  0.00000000000E+00 0. -1.
         21   -1    0    0  501  502 -0.00000000000E+00 -0.00000000000E+00 -0.51568631743E+02  0.51568631743E+02  0.00000000000E+00 0. -1.
         25    1    1    2    0    0  0.88056275718E+02  0.40546972155E+02  0.11266712442E+04  0.11377218716E+04  0.12500000000E+03 0.  0.
         25    1    1    2    0    0 -0.68452673255E+02  0.16630536560E+03  0.36537295745E+03  0.42598784154E+03  0.12500000000E+03 0.  0.
         25    1    1    2    0    0 -0.19603602463E+02 -0.20685233775E+03  0.91839055739E+03  0.94986230938E+03  0.12500000000E+03 0.  0.
</event>
<event>
 5    0  0.5572507E-005  0.2046361E+03  0.7546771E-02  0.1145885E+00
         21   -1    0    0  502  501  0.00000000000E+00  0.00000000000E+00  0.37946095848E+03  0.37946095848E+03  0.00000000000E+00 0.  1.
         21   -1    0    0  501  502 -0.00000000000E+00 -0.00000000000E+00 -0.11035641155E+03  0.11035641155E+03  0.00000000000E+00 0.  1.
         25    1    1    2    0    0 -0.28829332196E+02 -0.44986181504E+02  0.69312636425E+02  0.15259137751E+03  0.12500000000E+03 0.  0.
         25    1    1    2    0    0 -0.64102524985E+01  0.32550491424E+02  0.50187520579E+02  0.13872423383E+03  0.12500000000E+03 0.  0.
         25    1    1    2    0    0  0.35239584694E+02  0.12435690080E+02  0.14960438993E+03  0.19850175869E+03  0.12500000000E+03 0.  0.
</event>
<event>
 5    0  0.5572507E-005  0.2546568E+03  0.7546771E-02  0.1110397E+00
         21   -1    0    0  502  501  0.00000000000E+00  0.00000000000E+00  0.13962939619E+03  0.13962939619E+03  0.00000000000E+00 0.  1.
         21   -1    0    0  501  502 -0.00000000000E+00 -0.00000000000E+00 -0.46444442193E+03  0.46444442193E+03  0.00000000000E+00 0.  1.
         25    1    1    2    0    0 -0.35448949887E+02 -0.10743516267E+03 -0.14879849995E+02  0.16924937861E+03  0.12500000000E+03 0.  0.
         25    1    1    2    0    0  0.56544046860E+02  0.11337626066E+03 -0.17558496341E+03  0.25001296984E+03  0.12500000000E+03 0.  0.
         25    1    1    2    0    0 -0.21095096973E+02 -0.59410979868E+01 -0.13435021234E+03  0.18481146966E+03  0.12500000000E+03 0.  0.
</event>
<event>
 5    0  0.5572507E-005  0.1977862E+03  0.7546771E-02  0.1151620E+00
         21   -1    0    0  502  501  0.00000000000E+00  0.00000000000E+00  0.22135785065E+02  0.22135785065E+02  0.00000000000E+00 0.  1.
         21   -1    0    0  501  502 -0.00000000000E+00 -0.00000000000E+00 -0.17672457904E+04  0.17672457904E+04  0.00000000000E+00 0.  1.
         25    1    1    2    0    0 -0.19294111849E+02 -0.39928546034E+02 -0.51821234314E+03  0.53491642723E+03  0.12500000000E+03 0.  0.
         25    1    1    2    0    0 -0.14356527865E+02  0.20340954244E+02 -0.50814839767E+03  0.52388897523E+03  0.12500000000E+03 0.  0.
         25    1    1    2    0    0  0.33650639714E+02  0.19587591791E+02 -0.71874926456E+03  0.73057617303E+03  0.12500000000E+03 0.  0.
</event>
<event>
 5    0  0.5572507E-005  0.2934779E+03  0.7546771E-02  0.1088547E+00
         21   -1    0    0  502  501  0.00000000000E+00  0.00000000000E+00  0.37564237684E+02  0.37564237684E+02  0.00000000000E+00 0. -1.
         21   -1    0    0  501  502 -0.00000000000E+00 -0.00000000000E+00 -0.22928528316E+04  0.22928528316E+04  0.00000000000E+00 0. -1.
         25    1    1    2    0    0 -0.14388650059E+03  0.79225894089E+02 -0.58961867563E+03  0.62470412997E+03  0.12500000000E+03 0.  0.
         25    1    1    2    0    0  0.17504681011E+03 -0.94154759756E+02 -0.96609587151E+03  0.99421966258E+03  0.12500000000E+03 0.  0.
         25    1    1    2    0    0 -0.31160309525E+02  0.14928865667E+02 -0.69957404682E+03  0.71149327678E+03  0.12500000000E+03 0.  0.
</event>
<event>
 5    0  0.5572507E-005  0.4619993E+03  0.7546771E-02  0.1024203E+00
         21   -1    0    0  502  501  0.00000000000E+00  0.00000000000E+00  0.36796297303E+03  0.36796297303E+03  0.00000000000E+00 0.  1.
         21   -1    0    0  501  502 -0.00000000000E+00 -0.00000000000E+00 -0.58006752383E+03  0.58006752383E+03  0.00000000000E+00 0.  1.
         25    1    1    2    0    0 -0.11851868621E+02  0.25938598341E+03 -0.26276367898E+03  0.38998885390E+03  0.12500000000E+03 0.  0.
         25    1    1    2    0    0 -0.78543022757E+02  0.63513813466E+02  0.11075042882E+03  0.19517599342E+03  0.12500000000E+03 0.  0.
         25    1    1    2    0    0  0.90394891378E+02 -0.32289979687E+03 -0.60091300641E+02  0.36286564954E+03  0.12500000000E+03 0.  0.
</event>
<event>
 5    0  0.5572507E-005  0.2222463E+03  0.7546771E-02  0.1132219E+00
         21   -1    0    0  502  501  0.00000000000E+00  0.00000000000E+00  0.99405549719E+03  0.99405549719E+03  0.00000000000E+00 0.  1.
         21   -1    0    0  501  502 -0.00000000000E+00 -0.00000000000E+00 -0.49688792937E+02  0.49688792937E+02  0.00000000000E+00 0.  1.
         25    1    1    2    0    0  0.62567193712E+02 -0.47490247560E+02  0.25637944944E+03  0.29584691892E+03  0.12500000000E+03 0.  0.
         25    1    1    2    0    0 -0.57795104232E+02  0.77336348349E+01  0.20273994212E+03  0.24521127077E+03  0.12500000000E+03 0.  0.
         25    1    1    2    0    0 -0.47720894802E+01  0.39756612725E+02  0.48524731269E+03  0.50268610043E+03  0.12500000000E+03 0.  0.
</event>
<event>
 5    0  0.5572507E-005  0.2760298E+03  0.7546771E-02  0.1097877E+00
         21   -1    0    0  502  501  0.00000000000E+00  0.00000000000E+00  0.43773335826E+03  0.43773335826E+03  0.00000000000E+00 0. -1.
         21   -1    0    0  501  502 -0.00000000000E+00 -0.00000000000E+00 -0.17406131324E+03  0.17406131324E+03  0.00000000000E+00 0. -1.
         25    1    1    2    0    0  0.25225883959E+02  0.21234252533E+02  0.17338561932E+02  0.13043337162E+03  0.12500000000E+03 0.  0.
         25    1    1    2    0    0  0.16754273849E+01  0.15161954932E+03  0.93829096556E+02  0.21776178304E+03  0.12500000000E+03 0.  0.
         25    1    1    2    0    0 -0.26901311344E+02 -0.17285380186E+03  0.15250438653E+03  0.26359951684E+03  0.12500000000E+03 0.  0.
</event>
<event>
 5    0  0.5572507E-005  0.3911329E+03  0.7546771E-02  0.1046894E+00
         21   -1    0    0  502  501  0.00000000000E+00  0.00000000000E+00  0.92531534917E+03  0.92531534917E+03  0.00000000000E+00 0.  1.
         21   -1    0    0  501  502 -0.00000000000E+00 -0.00000000000E+00 -0.16533279381E+03  0.16533279381E+03  0.00000000000E+00 0.  1.
         25    1    1    2    0    0  0.18781798297E+03 -0.19700756634E+03  0.39681817231E+03  0.49716922450E+03  0.12500000000E+03 0.  0.
         25    1    1    2    0    0 -0.11388133442E+03 -0.33147099780E+02  0.23825469040E+03  0.29403738887E+03  0.12500000000E+03 0.  0.
         25    1    1    2    0    0 -0.73936648548E+02  0.23015466612E+03  0.12490969266E+03  0.29944152961E+03  0.12500000000E+03 0.  0.
</event>
<event>
 5    0  0.5572507E-005  0.2823819E+03  0.7546771E-02  0.1094395E+00
         21   -1    0    0  502  501  0.00000000000E+00  0.00000000000E+00  0.60484764839E+03  0.60484764839E+03  0.00000000000E+00 0.  1.
         21   -1    0    0  501  502 -0.00000000000E+00 -0.00000000000E+00 -0.13183411754E+03  0.13183411754E+03  0.00000000000E+00 0.  1.
         25    1    1    2    0    0  0.13864986996E+03 -0.79648589867E+02  0.14316133673E+03  0.24837039405E+03  0.12500000000E+03 0.  0.
         25    1    1    2    0    0 -0.16004013173E+03  0.15740450582E+02  0.12476017242E+03  0.23885289651E+03  0.12500000000E+03 0.  0.
         25    1    1    2    0    0  0.21390261768E+02  0.63908139285E+02  0.20509202171E+03  0.24945847537E+03  0.12500000000E+03 0.  0.
</event>
<event>
 5    0  0.5572507E-005  0.3098272E+03  0.7546771E-02  0.1080429E+00
         21   -1    0    0  502  501  0.00000000000E+00  0.00000000000E+00  0.42958020285E+03  0.42958020285E+03  0.00000000000E+00 0.  1.
         21   -1    0    0  501  502 -0.00000000000E+00 -0.00000000000E+00 -0.22345748729E+03  0.22345748729E+03  0.00000000000E+00 0.  1.
         25    1    1    2    0    0 -0.66702117348E+02 -0.51557015488E+02  0.24137477894E+03  0.28459459273E+03  0.12500000000E+03 0.  0.
         25    1    1    2    0    0 -0.40847602576E+02  0.90945545796E+02  0.63732784178E+02  0.17212346358E+03  0.12500000000E+03 0.  0.
         25    1    1    2    0    0  0.10754971992E+03 -0.39388530307E+02 -0.98984847563E+02  0.19631963382E+03  0.12500000000E+03 0.  0.
</event>
<event>
 5    0  0.5572507E-005  0.6372535E+03  0.7546771E-02  0.9830996E-01
         21   -1    0    0  502  501  0.00000000000E+00  0.00000000000E+00  0.59137249196E+03  0.59137249196E+03  0.00000000000E+00 0. -1.
         21   -1    0    0  501  502 -0.00000000000E+00 -0.00000000000E+00 -0.68669404401E+03  0.68669404401E+03  0.00000000000E+00 0. -1.
         25    1    1    2    0    0  0.12982395579E+03  0.95115924054E+02  0.44219081508E+03  0.48688706642E+03  0.12500000000E+03 0.  0.
         25    1    1    2    0    0  0.39965011574E+02 -0.26356668368E+03 -0.18693241534E+03  0.34875969779E+03  0.12500000000E+03 0.  0.
         25    1    1    2    0    0 -0.16978896737E+03  0.16845075963E+03 -0.35057995178E+03  0.44241977176E+03  0.12500000000E+03 0.  0.
</event>
<event>
 5    0  0.5572507E-005  0.5311697E+03  0.7546771E-02  0.1005949E+00
         21   -1    0    0  502  501  0.00000000000E+00  0.00000000000E+00  0.38528525983E+03  0.38528525983E+03  0.00000000000E+00 0.  1.
         21   -1    0    0  501  502 -0.00000000000E+00 -0.00000000000E+00 -0.73229176572E+03  0.73229176572E+03  0.00000000000E+00 0.  1.
         25    1    1    2    0    0 -0.52433896188E+02 -0.41839024441E+03  0.38826545940E+01  0.43981789992E+03  0.12500000000E+03 0.  0.
         25    1    1    2    0    0 -0.26956235197E+02  0.45126754010E+02  0.12506711037E+02  0.13617811999E+03  0.12500000000E+03 0.  0.
         25    1    1    2    0    0  0.79390131385E+02  0.37326349040E+03 -0.36339587152E+03  0.54158100563E+03  0.12500000000E+03 0.  0.
</event>
<event>
 5    0  0.5572507E-005  0.6953132E+03  0.7546771E-02  0.9725281E-01
         21   -1    0    0  502  501  0.00000000000E+00  0.00000000000E+00  0.19017467605E+04  0.19017467605E+04  0.00000000000E+00 0.  1.
         21   -1    0    0  501  502 -0.00000000000E+00 -0.00000000000E+00 -0.25421913518E+03  0.25421913518E+03  0.00000000000E+00 0.  1.
         25    1    1    2    0    0 -0.80003738025E+02  0.30595743121E+03 -0.79863335145E+02  0.34930459503E+03  0.12500000000E+03 0.  0.
         25    1    1    2    0    0 -0.87747370515E+02  0.15773250194E+01  0.61738857792E+03  0.63599979964E+03  0.12500000000E+03 0.  0.
         25    1    1    2    0    0  0.16775110854E+03 -0.30753475623E+03  0.11100023825E+04  0.11706615010E+04  0.12500000000E+03 0.  0.
</event>
<event>
 5    0  0.6038106E-005  0.4182976E+03  0.7546771E-02  0.1037622E+00
         21   -1    0    0  502  501  0.00000000000E+00  0.00000000000E+00  0.22385241151E+03  0.22385241151E+03  0.00000000000E+00 0.  1.
         21   -1    0    0  501  502 -0.00000000000E+00 -0.00000000000E+00 -0.78164403561E+03  0.78164403561E+03  0.00000000000E+00 0.  1.
         25    1    1    2    0    0  0.33253214487E+02 -0.17276438919E+03 -0.41320977050E+03  0.46617660268E+03  0.12500000000E+03 0.  0.
         25    1    1    2    0    0 -0.22535747387E+03  0.11817838957E+03 -0.67565138626E+02  0.29144840152E+03  0.12500000000E+03 0.  0.
         25    1    1    2    0    0  0.19210425939E+03  0.54585999620E+02 -0.77016714966E+02  0.24787144292E+03  0.12500000000E+03 0.  0.
</event>
<event>
 5    0  0.5572507E-005  0.3245229E+03  0.7546771E-02  0.1073586E+00
         21   -1    0    0  502  501  0.00000000000E+00  0.00000000000E+00  0.42985866179E+03  0.42985866179E+03  0.00000000000E+00 0.  1.
         21   -1    0    0  501  502 -0.00000000000E+00 -0.00000000000E+00 -0.24499944368E+03  0.24499944368E+03  0.00000000000E+00 0.  1.
         25    1    1    2    0    0 -0.17566754745E+03 -0.10827828879E+02 -0.24481177913E+02  0.21725712227E+03  0.12500000000E+03 0.  0.
         25    1    1    2    0    0  0.97454938957E+02  0.17230997273E+02  0.25705874245E+03  0.30248730463E+03  0.12500000000E+03 0.  0.
         25    1    1    2    0    0  0.78212608496E+02 -0.64031683940E+01 -0.47718346423E+02  0.15511367857E+03  0.12500000000E+03 0.  0.
</event>
<event>
 5    0  0.5572507E-005  0.5809557E+03  0.7546771E-02  0.9945724E-01
         21   -1    0    0  502  501  0.00000000000E+00  0.00000000000E+00  0.32948601285E+03  0.32948601285E+03  0.00000000000E+00 0. -1.
         21   -1    0    0  501  502 -0.00000000000E+00 -0.00000000000E+00 -0.10243514609E+04  0.10243514609E+04  0.00000000000E+00 0. -1.
         25    1    1    2    0    0  0.83879663979E+02 -0.18843491433E+03 -0.93576657801E+02  0.25869887099E+03  0.12500000000E+03 0.  0.
         25    1    1    2    0    0  0.17694734361E+03 -0.19049951168E+02  0.14972561984E+03  0.26403792206E+03  0.12500000000E+03 0.  0.
         25    1    1    2    0    0 -0.26082700759E+03  0.20748486549E+03 -0.75101441011E+03  0.83110068072E+03  0.12500000000E+03 0.  0.
</event>
<event>
 5    0  0.5572507E-005  0.3838609E+03  0.7546771E-02  0.1049516E+00
         21   -1    0    0  502  501  0.00000000000E+00  0.00000000000E+00  0.16583567421E+03  0.16583567421E+03  0.00000000000E+00 0.  1.
         21   -1    0    0  501  502 -0.00000000000E+00 -0.00000000000E+00 -0.88852506182E+03  0.88852506182E+03  0.00000000000E+00 0.  1.
         25    1    1    2    0    0 -0.90035660721E+02  0.30858747909E+02 -0.36902479844E+02  0.16138610703E+03  0.12500000000E+03 0.  0.
         25    1    1    2    0    0  0.21320497695E+03  0.15878683617E+03 -0.24717048543E+03  0.38391127934E+03  0.12500000000E+03 0.  0.
         25    1    1    2    0    0 -0.12316931623E+03 -0.18964558408E+03 -0.43861642234E+03  0.50906334966E+03  0.12500000000E+03 0.  0.
</event>
<event>
 5    0  0.5572507E-005  0.6823106E+03  0.7546771E-02  0.9747971E-01
         21   -1    0    0  502  501  0.00000000000E+00  0.00000000000E+00  0.21662983305E+04  0.21662983305E+04  0.00000000000E+00 0. -1.
         21   -1    0    0  501  502 -0.00000000000E+00 -0.00000000000E+00 -0.21490471786E+03  0.21490471786E+03  0.00000000000E+00 0. -1.
         25    1    1    2    0    0 -0.13115270088E+03 -0.25351165727E+02  0.37481242494E+03  0.41707681120E+03  0.12500000000E+03 0.  0.
         25    1    1    2    0    0  0.16878172086E+03  0.22722940233E+03  0.16757424017E+04  0.17040710277E+04  0.12500000000E+03 0.  0.
         25    1    1    2    0    0 -0.37629019987E+02 -0.20187823661E+03 -0.99161214068E+02  0.26005520940E+03  0.12500000000E+03 0.  0.
</event>
<event>
 5    0  0.5572507E-005  0.4902313E+03  0.7546771E-02  0.1016361E+00
         21   -1    0    0  502  501  0.00000000000E+00  0.00000000000E+00  0.12325382888E+03  0.12325382888E+03  0.00000000000E+00 0.  1.
         21   -1    0    0  501  502 -0.00000000000E+00 -0.00000000000E+00 -0.19498521526E+04  0.19498521526E+04  0.00000000000E+00 0.  1.
         25    1    1    2    0    0  0.87002298669E+01  0.38324474186E+03 -0.44516389241E+03  0.60062310750E+03  0.12500000000E+03 0.  0.
         25    1    1    2    0    0  0.48602539573E+02 -0.12656043180E+03 -0.29664392307E+03  0.34928837204E+03  0.12500000000E+03 0.  0.
         25    1    1    2    0    0 -0.57302769440E+02 -0.25668431006E+03 -0.10847905082E+04  0.11231945019E+04  0.12500000000E+03 0.  0.
</event>
<event>
 5    0  0.5572507E-005  0.3277790E+03  0.7546771E-02  0.1072124E+00
         21   -1    0    0  502  501  0.00000000000E+00  0.00000000000E+00  0.20550983348E+03  0.20550983348E+03  0.00000000000E+00 0. -1.
         21   -1    0    0  501  502 -0.00000000000E+00 -0.00000000000E+00 -0.52279295287E+03  0.52279295287E+03  0.00000000000E+00 0. -1.
         25    1    1    2    0    0  0.16673402274E+03  0.35881646181E+02 -0.27902750491E+03  0.35009866519E+03  0.12500000000E+03 0.  0.
         25    1    1    2    0    0 -0.18714402978E+03  0.17454252021E+02 -0.71561151116E+02  0.23679851592E+03  0.12500000000E+03 0.  0.
         25    1    1    2    0    0  0.20410007034E+02 -0.53335898202E+02  0.33305536636E+02  0.14140560524E+03  0.12500000000E+03 0.  0.
</event>
<event>
 5    0  0.5763270E-005  0.3721177E+03  0.7546771E-02  0.1053886E+00
         21   -1    0    0  502  501  0.00000000000E+00  0.00000000000E+00  0.75879348702E+03  0.75879348702E+03  0.00000000000E+00 0.  1.
         21   -1    0    0  501  502 -0.00000000000E+00 -0.00000000000E+00 -0.18248914292E+03  0.18248914292E+03  0.00000000000E+00 0.  1.
         25    1    1    2    0    0 -0.18771023555E+03 -0.15286749444E+03  0.11372165051E+03  0.29523078630E+03  0.12500000000E+03 0.  0.
         25    1    1    2    0    0 -0.15464712230E+02  0.11911563067E+03  0.32568836834E+03  0.36895203492E+03  0.12500000000E+03 0.  0.
         25    1    1    2    0    0  0.20317494778E+03  0.33751863765E+02  0.13689432525E+03  0.27709980873E+03  0.12500000000E+03 0.  0.
</event>
<event>
 5    0  0.5590366E-005  0.3107490E+03  0.7546771E-02  0.1079987E+00
         21   -1    0    0  502  501  0.00000000000E+00  0.00000000000E+00  0.46753493407E+03  0.46753493407E+03  0.00000000000E+00 0. -1.
         21   -1    0    0  501  502 -0.00000000000E+00 -0.00000000000E+00 -0.20654055027E+03  0.20654055027E+03  0.00000000000E+00 0. -1.
         25    1    1    2    0    0  0.14177439136E+02  0.18479711336E+03  0.72401965736E+02  0.23498514321E+03  0.12500000000E+03 0.  0.
         25    1    1    2    0    0  0.89720654353E+02 -0.94515191877E+02  0.17690586226E+03  0.25279161658E+03  0.12500000000E+03 0.  0.
         25    1    1    2    0    0 -0.10389809349E+03 -0.90281921486E+02  0.11686555804E+02  0.18629872454E+03  0.12500000000E+03 0.  0.
</event>
<event>
 5    0  0.5572507E-005  0.3046321E+03  0.7546771E-02  0.1082948E+00
         21   -1    0    0  502  501  0.00000000000E+00  0.00000000000E+00  0.10147006603E+03  0.10147006603E+03  0.00000000000E+00 0. -1.
         21   -1    0    0  501  502 -0.00000000000E+00 -0.00000000000E+00 -0.91456259967E+03  0.91456259967E+03  0.00000000000E+00 0. -1.
         25    1    1    2    0    0  0.33841693211E+01  0.22263102467E+03 -0.40901799438E+03  0.48217916325E+03  0.12500000000E+03 0.  0.
         25    1    1    2    0    0 -0.28888377121E+02 -0.61985531465E+02 -0.14354953787E+03  0.20225779161E+03  0.12500000000E+03 0.  0.
         25    1    1    2    0    0  0.25504207800E+02 -0.16064549320E+03 -0.26052500138E+03  0.33159571084E+03  0.12500000000E+03 0.  0.
</event>
<event>
 5    0  0.5572507E-005  0.3603349E+03  0.7546771E-02  0.1058451E+00
         21   -1    0    0  502  501  0.00000000000E+00  0.00000000000E+00  0.21749872502E+04  0.21749872502E+04  0.00000000000E+00 0. -1.
         21   -1    0    0  501  502 -0.00000000000E+00 -0.00000000000E+00 -0.59697487568E+02  0.59697487568E+02  0.00000000000E+00 0. -1.
         25    1    1    2    0    0 -0.12831568699E+02 -0.16161397762E+03  0.49796424435E+03  0.53840237330E+03  0.12500000000E+03 0.  0.
         25    1    1    2    0    0 -0.22975828708E+02  0.31384485805E+02  0.92264657625E+02  0.16015817713E+03  0.12500000000E+03 0.  0.
         25    1    1    2    0    0  0.35807397407E+02  0.13022949181E+03  0.15250608606E+04  0.15361241873E+04  0.12500000000E+03 0.  0.
</event>
<event>
 5    0  0.5572507E-005  0.3077535E+03  0.7546771E-02  0.1081428E+00
         21   -1    0    0  502  501  0.00000000000E+00  0.00000000000E+00  0.10193216742E+04  0.10193216742E+04  0.00000000000E+00 0.  1.
         21   -1    0    0  501  502 -0.00000000000E+00 -0.00000000000E+00 -0.92916903750E+02  0.92916903750E+02  0.00000000000E+00 0.  1.
         25    1    1    2    0    0  0.15497142216E+02 -0.71215002706E+02  0.27509940601E+03  0.31083182143E+03  0.12500000000E+03 0.  0.
         25    1    1    2    0    0  0.23236396502E+02  0.74203842464E+02  0.10738445152E+02  0.14760235284E+03  0.12500000000E+03 0.  0.
         25    1    1    2    0    0 -0.38733538717E+02 -0.29888397581E+01  0.64056691925E+03  0.65380440364E+03  0.12500000000E+03 0.  0.
</event>
<event>
 5    0  0.5572507E-005  0.6902623E+03  0.7546771E-02  0.9734031E-01
         21   -1    0    0  502  501  0.00000000000E+00  0.00000000000E+00  0.95456602846E+03  0.95456602846E+03  0.00000000000E+00 0.  1.
         21   -1    0    0  501  502 -0.00000000000E+00 -0.00000000000E+00 -0.49914002333E+03  0.49914002333E+03  0.00000000000E+00 0.  1.
         25    1    1    2    0    0 -0.22202409249E+03  0.41428674409E+03  0.39904933321E+03  0.62912127154E+03  0.12500000000E+03 0.  0.
         25    1    1    2    0    0  0.11386466613E+03 -0.57051777362E+03  0.33446752947E+02  0.59598605478E+03  0.12500000000E+03 0.  0.
         25    1    1    2    0    0  0.10815942636E+03  0.15623102953E+03  0.22929918969E+02  0.22859872546E+03  0.12500000000E+03 0.  0.
</event>
<event>
 5    0  0.6217223E-005  0.4897762E+03  0.7546771E-02  0.1016482E+00
         21   -1    0    0  502  501  0.00000000000E+00  0.00000000000E+00  0.13205825694E+04  0.13205825694E+04  0.00000000000E+00 0. -1.
         21   -1    0    0  501  502 -0.00000000000E+00 -0.00000000000E+00 -0.18164762941E+03  0.18164762941E+03  0.00000000000E+00 0. -1.
         25    1    1    2    0    0  0.18363478700E+03  0.29552744440E+03  0.34175826577E+03  0.50346987756E+03  0.12500000000E+03 0.  0.
         25    1    1    2    0    0 -0.28832044343E+03 -0.11953394503E+03  0.60182722023E+03  0.68937511206E+03  0.12500000000E+03 0.  0.
         25    1    1    2    0    0  0.10468565643E+03 -0.17599349937E+03  0.19534945395E+03  0.30938520915E+03  0.12500000000E+03 0.  0.
</event>
<event>
 5    0  0.5572507E-005  0.3659966E+03  0.7546771E-02  0.1056234E+00
         21   -1    0    0  502  501  0.00000000000E+00  0.00000000000E+00  0.20324644234E+04  0.20324644234E+04  0.00000000000E+00 0.  1.
         21   -1    0    0  501  502 -0.00000000000E+00 -0.00000000000E+00 -0.65906929894E+02  0.65906929894E+02  0.00000000000E+00 0.  1.
         25    1    1    2    0    0 -0.20646594191E+03 -0.12801227613E+03  0.11800332713E+04  0.12112468160E+04  0.12500000000E+03 0.  0.
         25    1    1    2    0    0  0.93057824356E+02  0.16369045954E+03  0.33829817077E+03  0.40684760976E+03  0.12500000000E+03 0.  0.
         25    1    1    2    0    0  0.11340811756E+03 -0.35678183401E+02  0.44822605152E+03  0.48027692758E+03  0.12500000000E+03 0.  0.
</event>
<event>
 5    0  0.5572507E-005  0.2490364E+03  0.7546771E-02  0.1113915E+00
         21   -1    0    0  502  501  0.00000000000E+00  0.00000000000E+00  0.13009705612E+03  0.13009705612E+03  0.00000000000E+00 0.  1.
         21   -1    0    0  501  502 -0.00000000000E+00 -0.00000000000E+00 -0.47671449120E+03  0.47671449120E+03  0.00000000000E+00 0.  1.
         25    1    1    2    0    0 -0.96322970236E+02 -0.29010349369E+02 -0.18714386459E+03  0.24651073206E+03  0.12500000000E+03 0.  0.
         25    1    1    2    0    0  0.72593904806E+02 -0.61211858665E+02 -0.35208872466E+02  0.16087706908E+03  0.12500000000E+03 0.  0.
         25    1    1    2    0    0  0.23729065430E+02  0.90222208034E+02 -0.12426469802E+03  0.19942374618E+03  0.12500000000E+03 0.  0.
</event>
<event>
 5    0  0.5935243E-005  0.3824588E+03  0.7546771E-02  0.1050029E+00
         21   -1    0    0  502  501  0.00000000000E+00  0.00000000000E+00  0.69119678418E+03  0.69119678418E+03  0.00000000000E+00 0.  1.
         21   -1    0    0  501  502 -0.00000000000E+00 -0.00000000000E+00 -0.21162528735E+03  0.21162528735E+03  0.00000000000E+00 0.  1.
         25    1    1    2    0    0  0.85416255426E+02 -0.16417202645E+03 -0.62193690893E+01  0.22341009716E+03  0.12500000000E+03 0.  0.
         25    1    1    2    0    0  0.50141034974E+02  0.23628832998E+03  0.23171307600E+03  0.35729854165E+03  0.12500000000E+03 0.  0.
         25    1    1    2    0    0 -0.13555729040E+03 -0.72116303528E+02  0.25407778992E+03  0.32211343273E+03  0.12500000000E+03 0.  0.
</event>
<event>
 5    0  0.5572507E-005  0.3749606E+03  0.7546771E-02  0.1052812E+00
         21   -1    0    0  502  501  0.00000000000E+00  0.00000000000E+00  0.24426884239E+03  0.24426884239E+03  0.00000000000E+00 0.  1.
         21   -1    0    0  501  502 -0.00000000000E+00 -0.00000000000E+00 -0.57557682473E+03  0.57557682473E+03  0.00000000000E+00 0.  1.
         25    1    1    2    0    0  0.66280858825E+02 -0.27976737547E+03 -0.22031831203E+03  0.38318154345E+03  0.12500000000E+03 0.  0.
         25    1    1    2    0    0 -0.11434026369E+03  0.10965739558E+03 -0.23535881722E+02  0.20316834900E+03  0.12500000000E+03 0.  0.
         25    1    1    2    0    0  0.48059404867E+02  0.17010997989E+03 -0.87453788583E+02  0.23349577468E+03  0.12500000000E+03 0.  0.
</event>
<event>
 5    0  0.5572507E-005  0.4245263E+03  0.7546771E-02  0.1035603E+00
         21   -1    0    0  502  501  0.00000000000E+00  0.00000000000E+00  0.21519360067E+03  0.21519360067E+03  0.00000000000E+00 0.  1.
         21   -1    0    0  501  502 -0.00000000000E+00 -0.00000000000E+00 -0.83749031885E+03  0.83749031885E+03  0.00000000000E+00 0.  1.
         25    1    1    2    0    0  0.22502297958E+02 -0.26334940289E+03 -0.14388463324E+02  0.29273074538E+03  0.12500000000E+03 0.  0.
         25    1    1    2    0    0 -0.11713806949E+03  0.13078328192E+03 -0.45658804837E+03  0.50489923754E+03  0.12500000000E+03 0.  0.
         25    1    1    2    0    0  0.94635771536E+02  0.13256612097E+03 -0.15132020648E+03  0.25505393659E+03  0.12500000000E+03 0.  0.
</event>
<event>
 5    0  0.5572507E-005  0.2625972E+03  0.7546771E-02  0.1105593E+00
         21   -1    0    0  502  501  0.00000000000E+00  0.00000000000E+00  0.43759018731E+03  0.43759018731E+03  0.00000000000E+00 0.  1.
         21   -1    0    0  501  502 -0.00000000000E+00 -0.00000000000E+00 -0.15758419477E+03  0.15758419477E+03  0.00000000000E+00 0.  1.
         25    1    1    2    0    0 -0.43555223806E+02  0.10436106032E+03  0.16775976205E+03  0.23781637075E+03  0.12500000000E+03 0.  0.
         25    1    1    2    0    0 -0.27782259070E+01 -0.11799645548E+03 -0.14988773174E+02  0.17257040698E+03  0.12500000000E+03 0.  0.
         25    1    1    2    0    0  0.46333449713E+02  0.13635395164E+02  0.12723500366E+03  0.18478760435E+03  0.12500000000E+03 0.  0.
</event>
<event>
 5    0  0.5904767E-005  0.3684028E+03  0.7546771E-02  0.1055305E+00
         21   -1    0    0  502  501  0.00000000000E+00  0.00000000000E+00  0.22219661943E+03  0.22219661943E+03  0.00000000000E+00 0. -1.
         21   -1    0    0  501  502 -0.00000000000E+00 -0.00000000000E+00 -0.61081309924E+03  0.61081309924E+03  0.00000000000E+00 0. -1.
         25    1    1    2    0    0  0.15440079204E+03 -0.53365054735E+02 -0.37604049697E+03  0.42862441486E+03  0.12500000000E+03 0.  0.
         25    1    1    2    0    0 -0.12865330119E+03  0.15808741866E+03 -0.70517039078E+01  0.23920290629E+03  0.12500000000E+03 0.  0.
         25    1    1    2    0    0 -0.25747490846E+02 -0.10472236393E+03 -0.55242789258E+01  0.16518239752E+03  0.12500000000E+03 0.  0.
</event>
<event>
 5    0  0.5811238E-005  0.2832185E+03  0.7546771E-02  0.1093944E+00
         21   -1    0    0  502  501  0.00000000000E+00  0.00000000000E+00  0.61627491429E+03  0.61627491429E+03  0.00000000000E+00 0.  1.
         21   -1    0    0  501  502 -0.00000000000E+00 -0.00000000000E+00 -0.13015740776E+03  0.13015740776E+03  0.00000000000E+00 0.  1.
         25    1    1    2    0    0  0.26089648143E+02 -0.35450785890E+02  0.38420082910E+03  0.40641444984E+03  0.12500000000E+03 0.  0.
         25    1    1    2    0    0  0.60925632094E+02 -0.37351035728E+02  0.22950287496E+01  0.14400451268E+03  0.12500000000E+03 0.  0.
         25    1    1    2    0    0 -0.87015280237E+02  0.72801821618E+02  0.99621648685E+02  0.19601335953E+03  0.12500000000E+03 0.  0.
</event>
<event>
 5    0  0.6043623E-005  0.3775523E+03  0.7546771E-02  0.1051842E+00
         21   -1    0    0  502  501  0.00000000000E+00  0.00000000000E+00  0.35806556636E+03  0.35806556636E+03  0.00000000000E+00 0. -1.
         21   -1    0    0  501  502 -0.00000000000E+00 -0.00000000000E+00 -0.39809950312E+03  0.39809950312E+03  0.00000000000E+00 0. -1.
         25    1    1    2    0    0  0.52033390356E+02  0.18052104488E+03  0.59432402479E+02  0.23335066278E+03  0.12500000000E+03 0.  0.
         25    1    1    2    0    0 -0.15538608006E+03 -0.10095859445E+03  0.10755307908E+03  0.24805268894E+03  0.12500000000E+03 0.  0.
         25    1    1    2    0    0  0.10335268970E+03 -0.79562450430E+02 -0.20701941832E+03  0.27476171777E+03  0.12500000000E+03 0.  0.
</event>
<event>
 5    0  0.5572507E-005  0.3661145E+03  0.7546771E-02  0.1056189E+00
         21   -1    0    0  502  501  0.00000000000E+00  0.00000000000E+00  0.60909601132E+03  0.60909601132E+03  0.00000000000E+00 0. -1.
         21   -1    0    0  501  502 -0.00000000000E+00 -0.00000000000E+00 -0.22006359456E+03  0.22006359456E+03  0.00000000000E+00 0. -1.
         25    1    1    2    0    0 -0.18859031129E+03  0.37550212551E+02  0.22388853586E+03  0.32051115497E+03  0.12500000000E+03 0.  0.
         25    1    1    2    0    0  0.12847781949E+03 -0.13537690082E+02 -0.10200092493E+03  0.20668577077E+03  0.12500000000E+03 0.  0.
         25    1    1    2    0    0  0.60112491798E+02 -0.24012522468E+02  0.26714480584E+03  0.30196268013E+03  0.12500000000E+03 0.  0.
</event>
<event>
 5    0  0.5572507E-005  0.3189350E+03  0.7546771E-02  0.1076141E+00
         21   -1    0    0  502  501  0.00000000000E+00  0.00000000000E+00  0.23627965032E+03  0.23627965032E+03  0.00000000000E+00 0. -1.
         21   -1    0    0  501  502 -0.00000000000E+00 -0.00000000000E+00 -0.43050471808E+03  0.43050471808E+03  0.00000000000E+00 0. -1.
         25    1    1    2    0    0  0.59813226715E+02  0.13724599036E+03 -0.67439954485E+02  0.20636674011E+03  0.12500000000E+03 0.  0.
         25    1    1    2    0    0  0.20230855072E+02 -0.19409139104E+03  0.34122348520E+02  0.23424365572E+03  0.12500000000E+03 0.  0.
         25    1    1    2    0    0 -0.80044081787E+02  0.56845400682E+02 -0.16090746180E+03  0.22617397258E+03  0.12500000000E+03 0.  0.
</event>
<event>
 5    0  0.7017887E-005  0.3085161E+03  0.7546771E-02  0.1081059E+00
         21   -1    0    0  502  501  0.00000000000E+00  0.00000000000E+00  0.35962590949E+03  0.35962590949E+03  0.00000000000E+00 0. -1.
         21   -1    0    0  501  502 -0.00000000000E+00 -0.00000000000E+00 -0.26466990315E+03  0.26466990315E+03  0.00000000000E+00 0. -1.
         25    1    1    2    0    0  0.26078316410E+02 -0.10362800990E+03  0.15838408471E+02  0.16521107168E+03  0.12500000000E+03 0.  0.
         25    1    1    2    0    0  0.25992539952E+02  0.22069474863E+03 -0.17701725271E+02  0.25557804148E+03  0.12500000000E+03 0.  0.
         25    1    1    2    0    0 -0.52070856362E+02 -0.11706673874E+03  0.96819323144E+02  0.20350669948E+03  0.12500000000E+03 0.  0.
</event>
<event>
 5    0  0.5572507E-005  0.2914704E+03  0.7546771E-02  0.1089584E+00
         21   -1    0    0  502  501  0.00000000000E+00  0.00000000000E+00  0.77218439040E+02  0.77218439040E+02  0.00000000000E+00 0. -1.
         21   -1    0    0  501  502 -0.00000000000E+00 -0.00000000000E+00 -0.11001904543E+04  0.11001904543E+04  0.00000000000E+00 0. -1.
         25    1    1    2    0    0 -0.25587103939E+02  0.79273209297E+02 -0.99744311076E+02  0.18031325296E+03  0.12500000000E+03 0.  0.
         25    1    1    2    0    0  0.11068225694E+03 -0.11345583096E+03 -0.35796121644E+03  0.41095500977E+03  0.12500000000E+03 0.  0.
         25    1    1    2    0    0 -0.85095153000E+02  0.34182621666E+02 -0.56526648776E+03  0.58614063063E+03  0.12500000000E+03 0.  0.
</event>
<event>
 5    0  0.5572507E-005  0.2325540E+03  0.7546771E-02  0.1124855E+00
         21   -1    0    0  502  501  0.00000000000E+00  0.00000000000E+00  0.44012583372E+03  0.44012583372E+03  0.00000000000E+00 0. -1.
         21   -1    0    0  501  502 -0.00000000000E+00 -0.00000000000E+00 -0.12287700129E+03  0.12287700129E+03  0.00000000000E+00 0. -1.
         25    1    1    2    0    0 -0.33093745556E+02  0.54677681046E+02  0.18944319423E+03  0.23579348727E+03  0.12500000000E+03 0.  0.
         25    1    1    2    0    0  0.83166596628E+02 -0.37576465828E+02  0.24645806821E+02  0.15671977977E+03  0.12500000000E+03 0.  0.
         25    1    1    2    0    0 -0.50072851072E+02 -0.17101215219E+02  0.10315983137E+03  0.17048956796E+03  0.12500000000E+03 0.  0.
</event>
<event>
 5    0  0.6100947E-005  0.2474034E+03  0.7546771E-02  0.1114957E+00
         21   -1    0    0  502  501  0.00000000000E+00  0.00000000000E+00  0.31076005092E+03  0.31076005092E+03  0.00000000000E+00 0.  1.
         21   -1    0    0  501  502 -0.00000000000E+00 -0.00000000000E+00 -0.19696367428E+03  0.19696367428E+03  0.00000000000E+00 0.  1.
         25    1    1    2    0    0 -0.35137655841E+02  0.36711506973E+02 -0.39278019244E+02  0.14053523543E+03  0.12500000000E+03 0.  0.
         25    1    1    2    0    0  0.11529050300E+03  0.13154447451E+01  0.12572827199E+03  0.21148576514E+03  0.12500000000E+03 0.  0.
         25    1    1    2    0    0 -0.80152847164E+02 -0.38026951718E+02  0.27346123885E+02  0.15570272463E+03  0.12500000000E+03 0.  0.
</event>
<event>
 5    0  0.5572507E-005  0.3296496E+03  0.7546771E-02  0.1071292E+00
         21   -1    0    0  502  501  0.00000000000E+00  0.00000000000E+00  0.10284295379E+03  0.10284295379E+03  0.00000000000E+00 0. -1.
         21   -1    0    0  501  502 -0.00000000000E+00 -0.00000000000E+00 -0.10566487400E+04  0.10566487400E+04  0.00000000000E+00 0. -1.
         25    1    1    2    0    0 -0.42845221959E+02 -0.82267106179E+02 -0.19109408383E+03  0.24646610047E+03  0.12500000000E+03 0.  0.
         25    1    1    2    0    0  0.80811879163E+02  0.15057745519E+03 -0.10007503840E+03  0.23418826430E+03  0.12500000000E+03 0.  0.
         25    1    1    2    0    0 -0.37966657204E+02 -0.68310349013E+02 -0.66263666401E+03  0.67883732907E+03  0.12500000000E+03 0.  0.
</event>
<event>
 5    0  0.5572507E-005  0.3575860E+03  0.7546771E-02  0.1059544E+00
         21   -1    0    0  502  501  0.00000000000E+00  0.00000000000E+00  0.11714263361E+03  0.11714263361E+03  0.00000000000E+00 0. -1.
         21   -1    0    0  501  502 -0.00000000000E+00 -0.00000000000E+00 -0.10915563091E+04  0.10915563091E+04  0.00000000000E+00 0. -1.
         25    1    1    2    0    0  0.35962713275E+02  0.34946885558E+02 -0.91865563737E+03  0.92847605334E+03  0.12500000000E+03 0.  0.
         25    1    1    2    0    0 -0.24878902790E+02  0.18864950898E+02  0.88971415554E+01  0.12914722337E+03  0.12500000000E+03 0.  0.
         25    1    1    2    0    0 -0.11083810485E+02 -0.53811836456E+02 -0.64655179671E+02  0.15107566600E+03  0.12500000000E+03 0.  0.
</event>
<event>
 5    0  0.5572507E-005  0.3719415E+03  0.7546771E-02  0.1053953E+00
         21   -1    0    0  502  501  0.00000000000E+00  0.00000000000E+00  0.22577064950E+03  0.22577064950E+03  0.00000000000E+00 0.  1.
         21   -1    0    0  501  502 -0.00000000000E+00 -0.00000000000E+00 -0.61274782735E+03  0.61274782735E+03  0.00000000000E+00 0.  1.
         25    1    1    2    0    0 -0.35433859793E+02  0.29144250013E+02  0.70878334407E+00  0.13315572876E+03  0.12500000000E+03 0.  0.
         25    1    1    2    0    0 -0.19211369819E+03 -0.13436068888E+03 -0.32232680748E+03  0.41770807817E+03  0.12500000000E+03 0.  0.
         25    1    1    2    0    0  0.22754755799E+03  0.10521643887E+03 -0.65359153717E+02  0.28765466992E+03  0.12500000000E+03 0.  0.
</event>
<event>
 5    0  0.5572507E-005  0.3938013E+03  0.7546771E-02  0.1045947E+00
         21   -1    0    0  502  501  0.00000000000E+00  0.00000000000E+00  0.70223631212E+03  0.70223631212E+03  0.00000000000E+00 0. -1.
         21   -1    0    0  501  502 -0.00000000000E+00 -0.00000000000E+00 -0.22083657686E+03  0.22083657686E+03  0.00000000000E+00 0. -1.
         25    1    1    2    0    0 -0.57237128656E+02  0.57140533988E+02  0.20789776420E+03  0.25571001130E+03  0.12500000000E+03 0.  0.
         25    1    1    2    0    0  0.89752265172E+02 -0.23658479324E+03  0.33484193416E+03  0.43791774840E+03  0.12500000000E+03 0.  0.
         25    1    1    2    0    0 -0.32515136517E+02  0.17944425925E+03 -0.61339963097E+02  0.22944512928E+03  0.12500000000E+03 0.  0.
</event>
<event>
 5    0  0.5572507E-005  0.2820177E+03  0.7546771E-02  0.1094592E+00
         21   -1    0    0  502  501  0.00000000000E+00  0.00000000000E+00  0.56580598048E+02  0.56580598048E+02  0.00000000000E+00 0.  1.
         21   -1    0    0  501  502 -0.00000000000E+00 -0.00000000000E+00 -0.14056763666E+04  0.14056763666E+04  0.00000000000E+00 0.  1.
         25    1    1    2    0    0  0.99806151960E+02 -0.93702797936E+02 -0.51782967788E+03  0.55001277950E+03  0.12500000000E+03 0.  0.
         25    1    1    2    0    0 -0.70767475177E+02  0.15543642485E+03 -0.33766271579E+03  0.39850925629E+03  0.12500000000E+03 0.  0.
         25    1    1    2    0    0 -0.29038676783E+02 -0.61733626916E+02 -0.49360337485E+03  0.51373492883E+03  0.12500000000E+03 0.  0.
</event>
<event>
 5    0  0.5572507E-005  0.4201409E+03  0.7546771E-02  0.1037020E+00
         21   -1    0    0  502  501  0.00000000000E+00  0.00000000000E+00  0.13287962982E+04  0.13287962982E+04  0.00000000000E+00 0. -1.
         21   -1    0    0  501  502 -0.00000000000E+00 -0.00000000000E+00 -0.13284079520E+03  0.13284079520E+03  0.00000000000E+00 0. -1.
         25    1    1    2    0    0  0.61347210000E+02 -0.21913332371E+03  0.19784926006E+03  0.32642338066E+03  0.12500000000E+03 0.  0.
         25    1    1    2    0    0 -0.20422700035E+03  0.57930518833E+02  0.72446968224E+03  0.76520973149E+03  0.12500000000E+03 0.  0.
         25    1    1    2    0    0  0.14287979035E+03  0.16120280488E+03  0.27363656070E+03  0.37000398125E+03  0.12500000000E+03 0.  0.
</event>
<event>
 5    0  0.5572507E-005  0.3982374E+03  0.7546771E-02  0.1044392E+00
         21   -1    0    0  502  501  0.00000000000E+00  0.00000000000E+00  0.42966399702E+03  0.42966399702E+03  0.00000000000E+00 0.  1.
         21   -1    0    0  501  502 -0.00000000000E+00 -0.00000000000E+00 -0.36910932730E+03  0.36910932730E+03  0.00000000000E+00 0.  1.
         25    1    1    2    0    0  0.57679702704E+02  0.62444100045E+02  0.55727048986E+02  0.16111088642E+03  0.12500000000E+03 0.  0.
         25    1    1    2    0    0 -0.51650782222E+02  0.15005205191E+03 -0.22372352802E+03  0.30143098476E+03  0.12500000000E+03 0.  0.
         25    1    1    2    0    0 -0.60289204822E+01 -0.21249615195E+03  0.22855114876E+03  0.33623145313E+03  0.12500000000E+03 0.  0.
</event>
<event>
 5    0  0.5572507E-005  0.2841018E+03  0.7546771E-02  0.1093469E+00
         21   -1    0    0  502  501  0.00000000000E+00  0.00000000000E+00  0.60019763581E+03  0.60019763581E+03  0.00000000000E+00 0.  1.
         21   -1    0    0  501  502 -0.00000000000E+00 -0.00000000000E+00 -0.13447875476E+03  0.13447875476E+03  0.00000000000E+00 0.  1.
         25    1    1    2    0    0 -0.15713097947E+03 -0.34414776193E+02  0.25603185083E+03  0.32718775981E+03  0.12500000000E+03 0.  0.
         25    1    1    2    0    0  0.16522596012E+03  0.68123981178E+02  0.14998900774E+03  0.26469264657E+03  0.12500000000E+03 0.  0.
         25    1    1    2    0    0 -0.80949806418E+01 -0.33709204985E+02  0.59698022476E+02  0.14279598419E+03  0.12500000000E+03 0.  0.
</event>
<event>
 5    0  0.5572507E-005  0.3275884E+03  0.7546771E-02  0.1072209E+00
         21   -1    0    0  502  501  0.00000000000E+00  0.00000000000E+00  0.86477898808E+03  0.86477898808E+03  0.00000000000E+00 0.  1.
         21   -1    0    0  501  502 -0.00000000000E+00 -0.00000000000E+00 -0.12409434161E+03  0.12409434161E+03  0.00000000000E+00 0.  1.
         25    1    1    2    0    0  0.16685899020E+03 -0.15025357454E+03  0.17891608332E+03  0.31313579186E+03  0.12500000000E+03 0.  0.
         25    1    1    2    0    0 -0.69844686380E+02  0.11555249567E+03  0.42721323666E+03  0.46515245786E+03  0.12500000000E+03 0.  0.
         25    1    1    2    0    0 -0.97014303820E+02  0.34701078871E+02  0.13455532650E+03  0.21058507998E+03  0.12500000000E+03 0.  0.
</event>
<event>
 5    0  0.5572507E-005  0.2898407E+03  0.7546771E-02  0.1090432E+00
         21   -1    0    0  502  501  0.00000000000E+00  0.00000000000E+00  0.14965054051E+03  0.14965054051E+03  0.00000000000E+00 0.  1.
         21   -1    0    0  501  502 -0.00000000000E+00 -0.00000000000E+00 -0.56135866884E+03  0.56135866884E+03  0.00000000000E+00 0.  1.
         25    1    1    2    0    0  0.13715571877E+03  0.92362121883E+01 -0.24081706920E+03  0.30416255460E+03  0.12500000000E+03 0.  0.
         25    1    1    2    0    0 -0.12160178532E+02 -0.92904904293E+02 -0.13816808966E+03  0.20855361945E+03  0.12500000000E+03 0.  0.
         25    1    1    2    0    0 -0.12499554023E+03  0.83668692105E+02 -0.32722969467E+02  0.19829303530E+03  0.12500000000E+03 0.  0.
</event>
<event>
 5    0  0.5572507E-005  0.3011780E+03  0.7546771E-02  0.1084653E+00
         21   -1    0    0  502  501  0.00000000000E+00  0.00000000000E+00  0.18709813447E+03  0.18709813447E+03  0.00000000000E+00 0. -1.
         21   -1    0    0  501  502 -0.00000000000E+00 -0.00000000000E+00 -0.48481610369E+03  0.48481610369E+03  0.00000000000E+00 0. -1.
         25    1    1    2    0    0  0.43469716712E+02 -0.16175572599E+02 -0.23522642910E+03  0.27038442701E+03  0.12500000000E+03 0.  0.
         25    1    1    2    0    0 -0.35260408294E+01  0.14742310388E+03 -0.91159617801E+02  0.21373132770E+03  0.12500000000E+03 0.  0.
         25    1    1    2    0    0 -0.39943675882E+02 -0.13124753128E+03  0.28668077688E+02  0.18779848346E+03  0.12500000000E+03 0.  0.
</event>
<event>
 5    0  0.5572507E-005  0.5622963E+03  0.7546771E-02  0.9986872E-01
         21   -1    0    0  502  501  0.00000000000E+00  0.00000000000E+00  0.46686406177E+03  0.46686406177E+03  0.00000000000E+00 0. -1.
         21   -1    0    0  501  502 -0.00000000000E+00 -0.00000000000E+00 -0.67723588027E+03  0.67723588027E+03  0.00000000000E+00 0. -1.
         25    1    1    2    0    0 -0.33509729086E+03 -0.86995411584E+02 -0.47906547970E+02  0.37118517389E+03  0.12500000000E+03 0.  0.
         25    1    1    2    0    0 -0.11179550596E+03  0.17927792390E+03  0.55979651744E+02  0.25178866249E+03  0.12500000000E+03 0.  0.
         25    1    1    2    0    0  0.44689279682E+03 -0.92282512319E+02 -0.21844492228E+03  0.52112610565E+03  0.12500000000E+03 0.  0.
</event>
<event>
 5    0  0.5572507E-005  0.3365734E+03  0.7546771E-02  0.1068265E+00
         21   -1    0    0  502  501  0.00000000000E+00  0.00000000000E+00  0.27325710520E+04  0.27325710520E+04  0.00000000000E+00 0.  1.
         21   -1    0    0  501  502 -0.00000000000E+00 -0.00000000000E+00 -0.41456057311E+02  0.41456057311E+02  0.00000000000E+00 0.  1.
         25    1    1    2    0    0 -0.34088927950E+02 -0.11479221273E+03  0.38352646266E+03  0.42078124325E+03  0.12500000000E+03 0.  0.
         25    1    1    2    0    0 -0.14511114197E+02  0.24295988156E+03  0.12609877436E+04  0.12903314171E+04  0.12500000000E+03 0.  0.
         25    1    1    2    0    0  0.48600042147E+02 -0.12816766883E+03  0.10466007884E+04  0.10629144489E+04  0.12500000000E+03 0.  0.
</event>
<event>
 5    0  0.5572507E-005  0.2901293E+03  0.7546771E-02  0.1090282E+00
         21   -1    0    0  502  501  0.00000000000E+00  0.00000000000E+00  0.27951256832E+03  0.27951256832E+03  0.00000000000E+00 0.  1.
         21   -1    0    0  501  502 -0.00000000000E+00 -0.00000000000E+00 -0.30114922100E+03  0.30114922100E+03  0.00000000000E+00 0.  1.
         25    1    1    2    0    0  0.49427708370E+02 -0.10340571478E+03 -0.12433261928E+03  0.21028418966E+03  0.12500000000E+03 0.  0.
         25    1    1    2    0    0 -0.12356361873E+03 -0.22945809972E+01  0.42316254064E+02  0.18080071442E+03  0.12500000000E+03 0.  0.
         25    1    1    2    0    0  0.74135910359E+02  0.10570029578E+03  0.60379712530E+02  0.18957688524E+03  0.12500000000E+03 0.  0.
</event>
<event>
 5    0  0.5572507E-005  0.3323336E+03  0.7546771E-02  0.1070109E+00
         21   -1    0    0  502  501  0.00000000000E+00  0.00000000000E+00  0.85720494219E+02  0.85720494219E+02  0.00000000000E+00 0. -1.
         21   -1    0    0  501  502 -0.00000000000E+00 -0.00000000000E+00 -0.12884392987E+04  0.12884392987E+04  0.00000000000E+00 0. -1.
         25    1    1    2    0    0 -0.12227090320E+03  0.10692444549E+03 -0.31224853934E+03  0.37350657441E+03  0.12500000000E+03 0.  0.
         25    1    1    2    0    0  0.45061453046E+02 -0.22458510782E+03 -0.60299650229E+03  0.65703788854E+03  0.12500000000E+03 0.  0.
         25    1    1    2    0    0  0.77209450156E+02  0.11766066233E+03 -0.28747376282E+03  0.34361532993E+03  0.12500000000E+03 0.  0.
</event>
<event>
 5    0  0.5612188E-005  0.2391100E+03  0.7546771E-02  0.1120387E+00
         21   -1    0    0  502  501  0.00000000000E+00  0.00000000000E+00  0.26404959776E+03  0.26404959776E+03  0.00000000000E+00 0.  1.
         21   -1    0    0  501  502 -0.00000000000E+00 -0.00000000000E+00 -0.21652589176E+03  0.21652589176E+03  0.00000000000E+00 0.  1.
         25    1    1    2    0    0 -0.17658882525E+02 -0.35211879863E+02 -0.22131169981E+02  0.13291539151E+03  0.12500000000E+03 0.  0.
         25    1    1    2    0    0  0.82366208266E+02  0.68183323075E+02  0.10961877430E+03  0.19767254106E+03  0.12500000000E+03 0.  0.
         25    1    1    2    0    0 -0.64707325740E+02 -0.32971443212E+02 -0.39963898321E+02  0.14998755695E+03  0.12500000000E+03 0.  0.
</event>
<event>
 5    0  0.5572507E-005  0.2515605E+03  0.7546771E-02  0.1112323E+00
         21   -1    0    0  502  501  0.00000000000E+00  0.00000000000E+00  0.22826207855E+03  0.22826207855E+03  0.00000000000E+00 0. -1.
         21   -1    0    0  501  502 -0.00000000000E+00 -0.00000000000E+00 -0.27723695819E+03  0.27723695819E+03  0.00000000000E+00 0. -1.
         25    1    1    2    0    0  0.34215148555E+02  0.68922708472E+02  0.23573502633E+02  0.14866649306E+03  0.12500000000E+03 0.  0.
         25    1    1    2    0    0 -0.22101411915E+02 -0.14518653831E+03 -0.82082701290E+02  0.20959526036E+03  0.12500000000E+03 0.  0.
         25    1    1    2    0    0 -0.12113736640E+02  0.76263829839E+02  0.95343190185E+01  0.14723728331E+03  0.12500000000E+03 0.  0.
</event>
<event>
 5    0  0.5572507E-005  0.2971035E+03  0.7546771E-02  0.1086698E+00
         21   -1    0    0  502  501  0.00000000000E+00  0.00000000000E+00  0.15411564433E+03  0.15411564433E+03  0.00000000000E+00 0.  1.
         21   -1    0    0  501  502 -0.00000000000E+00 -0.00000000000E+00 -0.57275499278E+03  0.57275499278E+03  0.00000000000E+00 0.  1.
         25    1    1    2    0    0 -0.72019668448E+02 -0.11193621263E+03 -0.14314016479E+03  0.23201434248E+03  0.12500000000E+03 0.  0.
         25    1    1    2    0    0  0.12842431912E+03 -0.12932478564E+02 -0.24966062754E+03  0.30759629986E+03  0.12500000000E+03 0.  0.
         25    1    1    2    0    0 -0.56404650674E+02  0.12486869119E+03 -0.25838556112E+02  0.18725999477E+03  0.12500000000E+03 0.  0.
</event>
<event>
 5    0  0.5572507E-005  0.4790518E+03  0.7546771E-02  0.1019396E+00
         21   -1    0    0  502  501  0.00000000000E+00  0.00000000000E+00  0.15996497430E+04  0.15996497430E+04  0.00000000000E+00 0. -1.
         21   -1    0    0  501  502 -0.00000000000E+00 -0.00000000000E+00 -0.14346303617E+03  0.14346303617E+03  0.00000000000E+00 0. -1.
         25    1    1    2    0    0 -0.26531120183E+02 -0.89576794391E+02  0.46629221415E+01  0.15612381392E+03  0.12500000000E+03 0.  0.
         25    1    1    2    0    0  0.20290250105E+02 -0.24719266312E+03  0.54057322058E+03  0.60775020671E+03  0.12500000000E+03 0.  0.
         25    1    1    2    0    0  0.62408700779E+01  0.33676945751E+03  0.91095056408E+03  0.97923875851E+03  0.12500000000E+03 0.  0.
</event>
<event>
 5    0  0.5572507E-005  0.3686804E+03  0.7546771E-02  0.1055199E+00
         21   -1    0    0  502  501  0.00000000000E+00  0.00000000000E+00  0.49935065926E+03  0.49935065926E+03  0.00000000000E+00 0.  1.
         21   -1    0    0  501  502 -0.00000000000E+00 -0.00000000000E+00 -0.27220391758E+03  0.27220391758E+03  0.00000000000E+00 0.  1.
         25    1    1    2    0    0 -0.70937226686E+02 -0.76948808670E+02  0.72987485124E+02  0.17862077782E+03  0.12500000000E+03 0.  0.
         25    1    1    2    0    0 -0.15637448482E+03  0.20369637112E+02  0.24064360656E+03  0.31369132439E+03  0.12500000000E+03 0.  0.
         25    1    1    2    0    0  0.22731171150E+03  0.56579171559E+02 -0.86484349998E+02  0.27924247463E+03  0.12500000000E+03 0.  0.
</event>
<event>
 5    0  0.5666019E-005  0.2589812E+03  0.7546771E-02  0.1107757E+00
         21   -1    0    0  502  501  0.00000000000E+00  0.00000000000E+00  0.31514333150E+03  0.31514333150E+03  0.00000000000E+00 0. -1.
         21   -1    0    0  501  502 -0.00000000000E+00 -0.00000000000E+00 -0.21282772917E+03  0.21282772917E+03  0.00000000000E+00 0. -1.
         25    1    1    2    0    0  0.60469823118E+01  0.10406895216E+03 -0.85956911716E+02  0.18406657348E+03  0.12500000000E+03 0.  0.
         25    1    1    2    0    0  0.18667778249E+02 -0.74269982819E+01  0.67298552280E+02  0.14337971051E+03  0.12500000000E+03 0.  0.
         25    1    1    2    0    0 -0.24714760561E+02 -0.96641953882E+02  0.12097396176E+03  0.20052477669E+03  0.12500000000E+03 0.  0.
</event>
<event>
 5    0  0.6846972E-005  0.2991391E+03  0.7546771E-02  0.1085672E+00
         21   -1    0    0  502  501  0.00000000000E+00  0.00000000000E+00  0.43659231740E+03  0.43659231740E+03  0.00000000000E+00 0.  1.
         21   -1    0    0  501  502 -0.00000000000E+00 -0.00000000000E+00 -0.20496051891E+03  0.20496051891E+03  0.00000000000E+00 0.  1.
         25    1    1    2    0    0  0.56948648371E+02 -0.29024400469E+02 -0.16078622756E+02  0.14131201819E+03  0.12500000000E+03 0.  0.
         25    1    1    2    0    0 -0.46973885012E+02 -0.15642945674E+03  0.80706293619E+02  0.22094168153E+03  0.12500000000E+03 0.  0.
         25    1    1    2    0    0 -0.99747633587E+01  0.18545385721E+03  0.16700412763E+03  0.27929913659E+03  0.12500000000E+03 0.  0.
</event>
<event>
 5    0  0.5572507E-005  0.2386387E+03  0.7546771E-02  0.1120703E+00
         21   -1    0    0  502  501  0.00000000000E+00  0.00000000000E+00  0.15222714543E+03  0.15222714543E+03  0.00000000000E+00 0.  1.
         21   -1    0    0  501  502 -0.00000000000E+00 -0.00000000000E+00 -0.37410160806E+03  0.37410160806E+03  0.00000000000E+00 0.  1.
         25    1    1    2    0    0 -0.10346249826E+03  0.24373427990E+02 -0.96694515199E+02  0.19045572139E+03  0.12500000000E+03 0.  0.
         25    1    1    2    0    0  0.82706795270E+02  0.20598026953E+02 -0.13264964421E+03  0.20121038941E+03  0.12500000000E+03 0.  0.
         25    1    1    2    0    0  0.20755702995E+02 -0.44971454943E+02  0.74696967829E+01  0.13466264269E+03  0.12500000000E+03 0.  0.
</event>
<event>
 5    0  0.5572507E-005  0.3446246E+03  0.7546771E-02  0.1064843E+00
         21   -1    0    0  502  501  0.00000000000E+00  0.00000000000E+00  0.32729962453E+03  0.32729962453E+03  0.00000000000E+00 0. -1.
         21   -1    0    0  501  502 -0.00000000000E+00 -0.00000000000E+00 -0.36286671871E+03  0.36286671871E+03  0.00000000000E+00 0. -1.
         25    1    1    2    0    0 -0.15491250181E+00  0.15432650851E+03  0.78975095997E+02  0.21372590160E+03  0.12500000000E+03 0.  0.
         25    1    1    2    0    0 -0.86656965988E+02 -0.23457974307E+03 -0.20404187494E+02  0.28031841980E+03  0.12500000000E+03 0.  0.
         25    1    1    2    0    0  0.86811878489E+02  0.80253234558E+02 -0.94138002682E+02  0.19612202185E+03  0.12500000000E+03 0.  0.
</event>
<event>
 5    0  0.5572507E-005  0.2384693E+03  0.7546771E-02  0.1120817E+00
         21   -1    0    0  502  501  0.00000000000E+00  0.00000000000E+00  0.91840803931E+03  0.91840803931E+03  0.00000000000E+00 0. -1.
         21   -1    0    0  501  502 -0.00000000000E+00 -0.00000000000E+00 -0.61919781692E+02  0.61919781692E+02  0.00000000000E+00 0. -1.
         25    1    1    2    0    0  0.11667004556E+03  0.12557045150E+02  0.33481965504E+03  0.37616323626E+03  0.12500000000E+03 0.  0.
         25    1    1    2    0    0 -0.90262336031E+02 -0.61122834178E+02  0.32187027455E+03  0.36208944172E+03  0.12500000000E+03 0.  0.
         25    1    1    2    0    0 -0.26407709531E+02  0.48565789029E+02  0.19979832803E+03  0.24207514302E+03  0.12500000000E+03 0.  0.
</event>
<event>
 5    0  0.5572507E-005  0.2655077E+03  0.7546771E-02  0.1103879E+00
         21   -1    0    0  502  501  0.00000000000E+00  0.00000000000E+00  0.44679194525E+03  0.44679194525E+03  0.00000000000E+00 0.  1.
         21   -1    0    0  501  502 -0.00000000000E+00 -0.00000000000E+00 -0.15777886712E+03  0.15777886712E+03  0.00000000000E+00 0.  1.
         25    1    1    2    0    0 -0.73966618741E+02  0.57471601192E+01  0.37996902470E+02  0.15024265418E+03  0.12500000000E+03 0.  0.
         25    1    1    2    0    0  0.11160095919E+03  0.84351816055E+02  0.22605194004E+03  0.29375922549E+03  0.12500000000E+03 0.  0.
         25    1    1    2    0    0 -0.37634340445E+02 -0.90098976174E+02  0.24964235621E+02  0.16056893270E+03  0.12500000000E+03 0.  0.
</event>
<event>
 5    0  0.5572507E-005  0.2617735E+03  0.7546771E-02  0.1106082E+00
         21   -1    0    0  502  501  0.00000000000E+00  0.00000000000E+00  0.53560320189E+03  0.53560320189E+03  0.00000000000E+00 0.  1.
         21   -1    0    0  501  502 -0.00000000000E+00 -0.00000000000E+00 -0.12794056544E+03  0.12794056544E+03  0.00000000000E+00 0.  1.
         25    1    1    2    0    0 -0.68002615564E+02  0.10427271946E+03  0.17753618001E+03  0.25028234248E+03  0.12500000000E+03 0.  0.
         25    1    1    2    0    0  0.87754392920E+01 -0.57309252848E+02  0.22890731145E+03  0.26717955767E+03  0.12500000000E+03 0.  0.
         25    1    1    2    0    0  0.59227176272E+02 -0.46963466607E+02  0.12191449899E+01  0.14608186718E+03  0.12500000000E+03 0.  0.
</event>
<event>
 5    0  0.5572507E-005  0.2223443E+03  0.7546771E-02  0.1132147E+00
         21   -1    0    0  502  501  0.00000000000E+00  0.00000000000E+00  0.21667704877E+03  0.21667704877E+03  0.00000000000E+00 0. -1.
         21   -1    0    0  501  502 -0.00000000000E+00 -0.00000000000E+00 -0.22815986353E+03  0.22815986353E+03  0.00000000000E+00 0. -1.
         25    1    1    2    0    0 -0.53648491841E+02 -0.28532713710E+02  0.43620370528E+02  0.14567090702E+03  0.12500000000E+03 0.  0.
         25    1    1    2    0    0 -0.21047761415E+02 -0.32164436511E+02  0.36277753051E+01  0.13082706138E+03  0.12500000000E+03 0.  0.
         25    1    1    2    0    0  0.74696253255E+02  0.60697150221E+02 -0.58730960595E+02  0.16833894388E+03  0.12500000000E+03 0.  0.
</event>
<event>
 5    0  0.5572507E-005  0.2210252E+03  0.7546771E-02  0.1133121E+00
         21   -1    0    0  502  501  0.00000000000E+00  0.00000000000E+00  0.15341872765E+02  0.15341872765E+02  0.00000000000E+00 0. -1.
         21   -1    0    0  501  502 -0.00000000000E+00 -0.00000000000E+00 -0.31842364789E+04  0.31842364789E+04  0.00000000000E+00 0. -1.
         25    1    1    2    0    0  0.69400927314E+02  0.19665382697E+02 -0.12717723495E+04  0.12799348128E+04  0.12500000000E+03 0.  0.
         25    1    1    2    0    0 -0.10669739820E+01 -0.44523490388E+02 -0.12234282714E+04  0.12306035978E+04  0.12500000000E+03 0.  0.
         25    1    1    2    0    0 -0.68333953332E+02  0.24858107691E+02 -0.67369398517E+03  0.68903994104E+03  0.12500000000E+03 0.  0.
</event>
<event>
 5    0  0.5572507E-005  0.2139432E+03  0.7546771E-02  0.1138481E+00
         21   -1    0    0  502  501  0.00000000000E+00  0.00000000000E+00  0.15449585690E+02  0.15449585690E+02  0.00000000000E+00 0.  1.
         21   -1    0    0  501  502 -0.00000000000E+00 -0.00000000000E+00 -0.29626484423E+04  0.29626484423E+04  0.00000000000E+00 0.  1.
         25    1    1    2    0    0 -0.72491226964E+02 -0.45731586483E+01 -0.84811998638E+03  0.86035365000E+03  0.12500000000E+03 0.  0.
         25    1    1    2    0    0  0.64569112171E+02 -0.42008271752E+02 -0.10721286914E+04  0.10821362188E+04  0.12500000000E+03 0.  0.
         25    1    1    2    0    0  0.79221147935E+01  0.46581430400E+02 -0.10269501789E+04  0.10356081592E+04  0.12500000000E+03 0.  0.
</event>
<event>
 5    0  0.5572507E-005  0.3470198E+03  0.7546771E-02  0.1063845E+00
         21   -1    0    0  502  501  0.00000000000E+00  0.00000000000E+00  0.11692615500E+04  0.11692615500E+04  0.00000000000E+00 0.  1.
         21   -1    0    0  501  502 -0.00000000000E+00 -0.00000000000E+00 -0.10299041464E+03  0.10299041464E+03  0.00000000000E+00 0.  1.
         25    1    1    2    0    0  0.14482500278E+01 -0.28049956663E+02  0.41295228257E+03  0.43236961639E+03  0.12500000000E+03 0.  0.
         25    1    1    2    0    0  0.16489113720E+03  0.10455118227E+03  0.54683058958E+03  0.59394337318E+03  0.12500000000E+03 0.  0.
         25    1    1    2    0    0 -0.16633938723E+03 -0.76501225604E+02  0.10648826324E+03  0.24593897510E+03  0.12500000000E+03 0.  0.
</event>
<event>
 5    0  0.5572507E-005  0.3127545E+03  0.7546771E-02  0.1079033E+00
         21   -1    0    0  502  501  0.00000000000E+00  0.00000000000E+00  0.37020863316E+03  0.37020863316E+03  0.00000000000E+00 0. -1.
         21   -1    0    0  501  502 -0.00000000000E+00 -0.00000000000E+00 -0.26421695250E+03  0.26421695250E+03  0.00000000000E+00 0. -1.
         25    1    1    2    0    0 -0.18166319448E+02 -0.89469432497E+02  0.25800385589E+03  0.30087503081E+03  0.12500000000E+03 0.  0.
         25    1    1    2    0    0 -0.21165948612E+02  0.47439137712E+02 -0.14105224823E+03  0.19549732964E+03  0.12500000000E+03 0.  0.
         25    1    1    2    0    0  0.39332268060E+02  0.42030294785E+02 -0.10959926998E+02  0.13805322521E+03  0.12500000000E+03 0.  0.
</event>
<event>
 5    0  0.5572507E-005  0.2829361E+03  0.7546771E-02  0.1094096E+00
         21   -1    0    0  502  501  0.00000000000E+00  0.00000000000E+00  0.16227127813E+03  0.16227127813E+03  0.00000000000E+00 0.  1.
         21   -1    0    0  501  502 -0.00000000000E+00 -0.00000000000E+00 -0.49332709199E+03  0.49332709199E+03  0.00000000000E+00 0.  1.
         25    1    1    2    0    0  0.91321198356E+02  0.47920663610E+02  0.13670176540E+00  0.16205236795E+03  0.12500000000E+03 0.  0.
         25    1    1    2    0    0 -0.13677714904E+03 -0.10916958684E+03 -0.15867918712E+03  0.26726404849E+03  0.12500000000E+03 0.  0.
         25    1    1    2    0    0  0.45455950683E+02  0.61248923231E+02 -0.17251332850E+03  0.22628195368E+03  0.12500000000E+03 0.  0.
</event>
<event>
 5    0  0.5572507E-005  0.2885951E+03  0.7546771E-02  0.1091085E+00
         21   -1    0    0  502  501  0.00000000000E+00  0.00000000000E+00  0.16899183993E+04  0.16899183993E+04  0.00000000000E+00 0.  1.
         21   -1    0    0  501  502 -0.00000000000E+00 -0.00000000000E+00 -0.49284722910E+02  0.49284722910E+02  0.00000000000E+00 0.  1.
         25    1    1    2    0    0 -0.11897372371E+03  0.21725904688E+02  0.72531027148E+03  0.74587314725E+03  0.12500000000E+03 0.  0.
         25    1    1    2    0    0  0.70831747745E+01 -0.12258374081E+03  0.57071526602E+03  0.59700742017E+03  0.12500000000E+03 0.  0.
         25    1    1    2    0    0  0.11189054893E+03  0.10085783612E+03  0.34460813892E+03  0.39632255481E+03  0.12500000000E+03 0.  0.
</event>
<event>
 5    0  0.5572507E-005  0.3488764E+03  0.7546771E-02  0.1063077E+00
         21   -1    0    0  502  501  0.00000000000E+00  0.00000000000E+00  0.11863275530E+04  0.11863275530E+04  0.00000000000E+00 0.  1.
         21   -1    0    0  501  502 -0.00000000000E+00 -0.00000000000E+00 -0.10259792651E+03  0.10259792651E+03  0.00000000000E+00 0.  1.
         25    1    1    2    0    0 -0.57957102150E+01 -0.26474429465E+02  0.48259215665E+02  0.13670566034E+03  0.12500000000E+03 0.  0.
         25    1    1    2    0    0  0.87752370805E+02  0.90104856371E-01  0.97810695579E+03  0.98995894040E+03  0.12500000000E+03 0.  0.
         25    1    1    2    0    0 -0.81956660590E+02  0.26384324609E+02  0.57363454985E+02  0.16226087873E+03  0.12500000000E+03 0.  0.
</event>
<event>
 5    0  0.5984120E-005  0.2705043E+03  0.7546771E-02  0.1100991E+00
         21   -1    0    0  502  501  0.00000000000E+00  0.00000000000E+00  0.60704039189E+03  0.60704039189E+03  0.00000000000E+00 0.  1.
         21   -1    0    0  501  502 -0.00000000000E+00 -0.00000000000E+00 -0.12053986597E+03  0.12053986597E+03  0.00000000000E+00 0.  1.
         25    1    1    2    0    0  0.32434492430E+02 -0.13602032507E+03  0.35244331532E+03  0.39924280287E+03  0.12500000000E+03 0.  0.
         25    1    1    2    0    0 -0.41622210034E+01  0.52361850569E+02  0.19100632857E+02  0.13692670176E+03  0.12500000000E+03 0.  0.
         25    1    1    2    0    0 -0.28272271427E+02  0.83658474504E+02  0.11495657774E+03  0.19141075323E+03  0.12500000000E+03 0.  0.
</event>
<event>
 5    0  0.5572507E-005  0.3177443E+03  0.7546771E-02  0.1076692E+00
         21   -1    0    0  502  501  0.00000000000E+00  0.00000000000E+00  0.31763859264E+03  0.31763859264E+03  0.00000000000E+00 0. -1.
         21   -1    0    0  501  502 -0.00000000000E+00 -0.00000000000E+00 -0.31785001558E+03  0.31785001558E+03  0.00000000000E+00 0. -1.
         25    1    1    2    0    0 -0.10406481346E+03  0.10429804008E+03  0.77847343237E+02  0.20830932628E+03  0.12500000000E+03 0.  0.
         25    1    1    2    0    0  0.73492054924E+02 -0.16438222978E+03 -0.15231060008E+03  0.26691968549E+03  0.12500000000E+03 0.  0.
         25    1    1    2    0    0  0.30572758535E+02  0.60084189699E+02  0.74251833909E+02  0.16025959645E+03  0.12500000000E+03 0.  0.
</event>
<event>
 5    0  0.5572507E-005  0.4203887E+03  0.7546771E-02  0.1036940E+00
         21   -1    0    0  502  501  0.00000000000E+00  0.00000000000E+00  0.51222449571E+03  0.51222449571E+03  0.00000000000E+00 0.  1.
         21   -1    0    0  501  502 -0.00000000000E+00 -0.00000000000E+00 -0.34501798268E+03  0.34501798268E+03  0.00000000000E+00 0.  1.
         25    1    1    2    0    0  0.60680770926E+01 -0.16480016961E+02 -0.27275612369E+03  0.30054835806E+03  0.12500000000E+03 0.  0.
         25    1    1    2    0    0  0.61569369792E+02  0.10158877553E+03  0.18757022609E+03  0.25479139767E+03  0.12500000000E+03 0.  0.
         25    1    1    2    0    0 -0.67637446885E+02 -0.85108758571E+02  0.25239241063E+03  0.30190272266E+03  0.12500000000E+03 0.  0.
</event>
<event>
 5    0  0.5572507E-005  0.2865369E+03  0.7546771E-02  0.1092171E+00
         21   -1    0    0  502  501  0.00000000000E+00  0.00000000000E+00  0.10101774524E+04  0.10101774524E+04  0.00000000000E+00 0.  1.
         21   -1    0    0  501  502 -0.00000000000E+00 -0.00000000000E+00 -0.81276216084E+02  0.81276216084E+02  0.00000000000E+00 0.  1.
         25    1    1    2    0    0  0.41925169218E+02  0.83320774955E+02  0.10940535824E+03  0.19051142686E+03  0.12500000000E+03 0.  0.
         25    1    1    2    0    0  0.55696556130E+02  0.68626280812E+02  0.29629846889E+03  0.33351080260E+03  0.12500000000E+03 0.  0.
         25    1    1    2    0    0 -0.97621725347E+02 -0.15194705577E+03  0.52319740918E+03  0.56743143902E+03  0.12500000000E+03 0.  0.
</event>
<event>
 5    0  0.7697476E-005  0.2697679E+03  0.7546771E-02  0.1101413E+00
         21   -1    0    0  502  501  0.00000000000E+00  0.00000000000E+00  0.48687167827E+03  0.48687167827E+03  0.00000000000E+00 0.  1.
         21   -1    0    0  501  502 -0.00000000000E+00 -0.00000000000E+00 -0.14947413677E+03  0.14947413677E+03  0.00000000000E+00 0.  1.
         25    1    1    2    0    0  0.26789804612E+02  0.16255684276E+03  0.92384005648E+02  0.22649994539E+03  0.12500000000E+03 0.  0.
         25    1    1    2    0    0 -0.74934314950E+02 -0.93365221615E+02  0.16515902440E+03  0.23923778862E+03  0.12500000000E+03 0.  0.
         25    1    1    2    0    0  0.48144510339E+02 -0.69191621148E+02  0.79854511454E+02  0.17060808103E+03  0.12500000000E+03 0.  0.
</event>
<event>
 5    0  0.5572507E-005  0.2697047E+03  0.7546771E-02  0.1101449E+00
         21   -1    0    0  502  501  0.00000000000E+00  0.00000000000E+00  0.32832741543E+03  0.32832741543E+03  0.00000000000E+00 0. -1.
         21   -1    0    0  501  502 -0.00000000000E+00 -0.00000000000E+00 -0.22154906570E+03  0.22154906570E+03  0.00000000000E+00 0. -1.
         25    1    1    2    0    0  0.69797506949E+02 -0.11401807465E+02  0.12349719507E+02  0.14414995235E+03  0.12500000000E+03 0.  0.
         25    1    1    2    0    0  0.47375943359E+02  0.97351922881E+02  0.13052624820E+03  0.21067505398E+03  0.12500000000E+03 0.  0.
         25    1    1    2    0    0 -0.11717345031E+03 -0.85950115417E+02 -0.36097617984E+02  0.19505147480E+03  0.12500000000E+03 0.  0.
</event>
<event>
 5    0  0.5572507E-005  0.2824748E+03  0.7546771E-02  0.1094345E+00
         21   -1    0    0  502  501  0.00000000000E+00  0.00000000000E+00  0.69461377130E+02  0.69461377130E+02  0.00000000000E+00 0.  1.
         21   -1    0    0  501  502 -0.00000000000E+00 -0.00000000000E+00 -0.11487248287E+04  0.11487248287E+04  0.00000000000E+00 0.  1.
         25    1    1    2    0    0 -0.90637657286E+02 -0.10433160855E+03 -0.48241346393E+03  0.51715376789E+03  0.12500000000E+03 0.  0.
         25    1    1    2    0    0  0.57335054371E+02  0.11772864337E+03 -0.51851920551E+03  0.54921262587E+03  0.12500000000E+03 0.  0.
         25    1    1    2    0    0  0.33302602915E+02 -0.13397034824E+02 -0.78330782090E+02  0.15181981203E+03  0.12500000000E+03 0.  0.
</event>
<event>
 5    0  0.5572507E-005  0.2591791E+03  0.7546771E-02  0.1107637E+00
         21   -1    0    0  502  501  0.00000000000E+00  0.00000000000E+00  0.41640809046E+03  0.41640809046E+03  0.00000000000E+00 0.  1.
         21   -1    0    0  501  502 -0.00000000000E+00 -0.00000000000E+00 -0.16131729738E+03  0.16131729738E+03  0.00000000000E+00 0.  1.
         25    1    1    2    0    0  0.58368425336E+01 -0.85962733497E+02  0.10316554748E+03  0.18355323606E+03  0.12500000000E+03 0.  0.
         25    1    1    2    0    0 -0.53420302046E+02  0.13716371219E+03  0.11277139852E+02  0.19344194606E+03  0.12500000000E+03 0.  0.
         25    1    1    2    0    0  0.47583459513E+02 -0.51200978693E+02  0.14064810575E+03  0.20073020572E+03  0.12500000000E+03 0.  0.
</event>
<event>
 5    0  0.5572507E-005  0.2642184E+03  0.7546771E-02  0.1104635E+00
         21   -1    0    0  502  501  0.00000000000E+00  0.00000000000E+00  0.77325284832E+02  0.77325284832E+02  0.00000000000E+00 0. -1.
         21   -1    0    0  501  502 -0.00000000000E+00 -0.00000000000E+00 -0.90282691108E+03  0.90282691108E+03  0.00000000000E+00 0. -1.
         25    1    1    2    0    0 -0.75236901933E+02  0.58477292400E+02 -0.43074095758E+03  0.45852258143E+03  0.12500000000E+03 0.  0.
         25    1    1    2    0    0  0.13912889687E+03 -0.52417482373E+02 -0.27687621263E+03  0.33821572927E+03  0.12500000000E+03 0.  0.
         25    1    1    2    0    0 -0.63891994940E+02 -0.60598100267E+01 -0.11788445603E+03  0.18341388521E+03  0.12500000000E+03 0.  0.
</event>
<event>
 5    0  0.5572507E-005  0.2632575E+03  0.7546771E-02  0.1105202E+00
         21   -1    0    0  502  501  0.00000000000E+00  0.00000000000E+00  0.50561791145E+03  0.50561791145E+03  0.00000000000E+00 0. -1.
         21   -1    0    0  501  502 -0.00000000000E+00 -0.00000000000E+00 -0.13706896144E+03  0.13706896144E+03  0.00000000000E+00 0. -1.
         25    1    1    2    0    0 -0.22547047258E+02  0.10325040592E+03  0.23242396384E+03  0.28427964160E+03  0.12500000000E+03 0.  0.
         25    1    1    2    0    0  0.51825177678E+02  0.34514833977E+02  0.84190127125E+02  0.16306471204E+03  0.12500000000E+03 0.  0.
         25    1    1    2    0    0 -0.29278130421E+02 -0.13776523989E+03  0.51934859051E+02  0.19534251925E+03  0.12500000000E+03 0.  0.
</event>
<event>
 5    0  0.5572507E-005  0.3311872E+03  0.7546771E-02  0.1070613E+00
         21   -1    0    0  502  501  0.00000000000E+00  0.00000000000E+00  0.69009070539E+03  0.69009070539E+03  0.00000000000E+00 0. -1.
         21   -1    0    0  501  502 -0.00000000000E+00 -0.00000000000E+00 -0.15894282151E+03  0.15894282151E+03  0.00000000000E+00 0. -1.
         25    1    1    2    0    0  0.51104673070E+02  0.12352313322E+03  0.39467119372E+03  0.43504023171E+03  0.12500000000E+03 0.  0.
         25    1    1    2    0    0 -0.17551231936E+02 -0.19383863452E+03  0.32245181327E+02  0.23355130848E+03  0.12500000000E+03 0.  0.
         25    1    1    2    0    0 -0.33553441133E+02  0.70315501301E+02  0.10423150882E+03  0.18044198671E+03  0.12500000000E+03 0.  0.
</event>
<event>
 5    0  0.5572507E-005  0.2288322E+03  0.7546771E-02  0.1127464E+00
         21   -1    0    0  502  501  0.00000000000E+00  0.00000000000E+00  0.18856897640E+03  0.18856897640E+03  0.00000000000E+00 0. -1.
         21   -1    0    0  501  502 -0.00000000000E+00 -0.00000000000E+00 -0.27769247730E+03  0.27769247730E+03  0.00000000000E+00 0. -1.
         25    1    1    2    0    0 -0.42817706908E+02 -0.21537479421E+02 -0.30601180325E+02  0.13732680467E+03  0.12500000000E+03 0.  0.
         25    1    1    2    0    0  0.28905268475E+02  0.11063225678E+03 -0.25728523549E+02  0.17135334170E+03  0.12500000000E+03 0.  0.
         25    1    1    2    0    0  0.13912438433E+02 -0.89094777362E+02 -0.32793797018E+02  0.15758130733E+03  0.12500000000E+03 0.  0.
</event>
<event>
 5    0  0.6296498E-005  0.2617357E+03  0.7546771E-02  0.1106105E+00
         21   -1    0    0  502  501  0.00000000000E+00  0.00000000000E+00  0.28539026177E+03  0.28539026177E+03  0.00000000000E+00 0.  1.
         21   -1    0    0  501  502 -0.00000000000E+00 -0.00000000000E+00 -0.24004169170E+03  0.24004169170E+03  0.00000000000E+00 0.  1.
         25    1    1    2    0    0  0.58677110644E+02  0.95222056504E+02  0.85991352297E+02  0.18849338457E+03  0.12500000000E+03 0.  0.
         25    1    1    2    0    0 -0.70536163874E+02 -0.14063883821E+03 -0.25612376324E+02  0.20257252293E+03  0.12500000000E+03 0.  0.
         25    1    1    2    0    0  0.11859053230E+02  0.45416781704E+02 -0.15030405906E+02  0.13436604596E+03  0.12500000000E+03 0.  0.
</event>
<event>
 5    0  0.5572507E-005  0.2845470E+03  0.7546771E-02  0.1093231E+00
         21   -1    0    0  502  501  0.00000000000E+00  0.00000000000E+00  0.29318728112E+03  0.29318728112E+03  0.00000000000E+00 0. -1.
         21   -1    0    0  501  502 -0.00000000000E+00 -0.00000000000E+00 -0.27616136464E+03  0.27616136464E+03  0.00000000000E+00 0. -1.
         25    1    1    2    0    0  0.15236279740E+02  0.46529322790E+02  0.88207618976E+02  0.16063220768E+03  0.12500000000E+03 0.  0.
         25    1    1    2    0    0 -0.82439976990E+02 -0.16069446972E+03 -0.27037303912E+02  0.22130313646E+03  0.12500000000E+03 0.  0.
         25    1    1    2    0    0  0.67203697250E+02  0.11416514693E+03 -0.44144398581E+02  0.18741330162E+03  0.12500000000E+03 0.  0.
</event>
<event>
 5    0  0.5572507E-005  0.3456772E+03  0.7546771E-02  0.1064403E+00
         21   -1    0    0  502  501  0.00000000000E+00  0.00000000000E+00  0.13222687587E+04  0.13222687587E+04  0.00000000000E+00 0. -1.
         21   -1    0    0  501  502 -0.00000000000E+00 -0.00000000000E+00 -0.90369459152E+02  0.90369459152E+02  0.00000000000E+00 0. -1.
         25    1    1    2    0    0  0.11860128233E+03 -0.19082509900E+03  0.75855033696E+03  0.80093950851E+03  0.12500000000E+03 0.  0.
         25    1    1    2    0    0 -0.83140783042E+02  0.19814649679E+03  0.36882168370E+03  0.44477956154E+03  0.12500000000E+03 0.  0.
         25    1    1    2    0    0 -0.35460499289E+02 -0.73213977934E+01  0.10452727890E+03  0.16691914782E+03  0.12500000000E+03 0.  0.
</event>
<event>
 5    0  0.5572507E-005  0.2460878E+03  0.7546771E-02  0.1115802E+00
         21   -1    0    0  502  501  0.00000000000E+00  0.00000000000E+00  0.13849359431E+03  0.13849359431E+03  0.00000000000E+00 0. -1.
         21   -1    0    0  501  502 -0.00000000000E+00 -0.00000000000E+00 -0.43727076404E+03  0.43727076404E+03  0.00000000000E+00 0. -1.
         25    1    1    2    0    0  0.53551006778E+02 -0.20841597489E+02 -0.12729344267E+03  0.18743186244E+03  0.12500000000E+03 0.  0.
         25    1    1    2    0    0 -0.84131992816E+02 -0.91955407724E+02 -0.74119781275E+02  0.19144903030E+03  0.12500000000E+03 0.  0.
         25    1    1    2    0    0  0.30580986038E+02  0.11279700521E+03 -0.97363945783E+02  0.19688346561E+03  0.12500000000E+03 0.  0.
</event>
<event>
 5    0  0.5572507E-005  0.3987420E+03  0.7546771E-02  0.1044216E+00
         21   -1    0    0  502  501  0.00000000000E+00  0.00000000000E+00  0.19777313170E+03  0.19777313170E+03  0.00000000000E+00 0. -1.
         21   -1    0    0  501  502 -0.00000000000E+00 -0.00000000000E+00 -0.80392696872E+03  0.80392696872E+03  0.00000000000E+00 0. -1.
         25    1    1    2    0    0 -0.62872330213E+02 -0.31062333312E+03 -0.21892352621E+03  0.40495962184E+03  0.12500000000E+03 0.  0.
         25    1    1    2    0    0  0.92389222637E+02  0.26914791974E+03 -0.31947714261E+03  0.44572078234E+03  0.12500000000E+03 0.  0.
         25    1    1    2    0    0 -0.29516892424E+02  0.41475413382E+02 -0.67753168196E+02  0.15101969625E+03  0.12500000000E+03 0.  0.
</event>
<event>
 5    0  0.5572507E-005  0.3950956E+03  0.7546771E-02  0.1045491E+00
         21   -1    0    0  502  501  0.00000000000E+00  0.00000000000E+00  0.31122138751E+03  0.31122138751E+03  0.00000000000E+00 0. -1.
         21   -1    0    0  501  502 -0.00000000000E+00 -0.00000000000E+00 -0.50157383855E+03  0.50157383855E+03  0.00000000000E+00 0. -1.
         25    1    1    2    0    0 -0.64874897145E+02 -0.18552314312E+03 -0.33768684276E+03  0.41022553880E+03  0.12500000000E+03 0.  0.
         25    1    1    2    0    0  0.62553687516E+02  0.19857239922E+03  0.61952748952E+02  0.25061345666E+03  0.12500000000E+03 0.  0.
         25    1    1    2    0    0  0.23212096285E+01 -0.13049256107E+02  0.85381642768E+02  0.15195623061E+03  0.12500000000E+03 0.  0.
</event>
<event>
 5    0  0.5572507E-005  0.4045473E+03  0.7546771E-02  0.1042216E+00
         21   -1    0    0  502  501  0.00000000000E+00  0.00000000000E+00  0.10374322512E+03  0.10374322512E+03  0.00000000000E+00 0.  1.
         21   -1    0    0  501  502 -0.00000000000E+00 -0.00000000000E+00 -0.15775345264E+04  0.15775345264E+04  0.00000000000E+00 0.  1.
         25    1    1    2    0    0 -0.96614818705E+02 -0.22522595803E+03 -0.24192342640E+03  0.36635106061E+03  0.12500000000E+03 0.  0.
         25    1    1    2    0    0  0.10469563879E+02  0.12578376777E+03 -0.20117805602E+03  0.26838177700E+03  0.12500000000E+03 0.  0.
         25    1    1    2    0    0  0.86145254826E+02  0.99442190263E+02 -0.10306898188E+04  0.10465449139E+04  0.12500000000E+03 0.  0.
</event>
<event>
 5    0  0.5572507E-005  0.2521099E+03  0.7546771E-02  0.1111979E+00
         21   -1    0    0  502  501  0.00000000000E+00  0.00000000000E+00  0.99289769389E+02  0.99289769389E+02  0.00000000000E+00 0. -1.
         21   -1    0    0  501  502 -0.00000000000E+00 -0.00000000000E+00 -0.64014068979E+03  0.64014068979E+03  0.00000000000E+00 0. -1.
         25    1    1    2    0    0  0.10599761962E+02  0.12655701544E+03 -0.13832284723E+03  0.22558200987E+03  0.12500000000E+03 0.  0.
         25    1    1    2    0    0 -0.13056311116E+02 -0.13927483499E+03 -0.28866438100E+03  0.34426744223E+03  0.12500000000E+03 0.  0.
         25    1    1    2    0    0  0.24565491536E+01  0.12717819549E+02 -0.11386369216E+03  0.16958100707E+03  0.12500000000E+03 0.  0.
</event>
<event>
 5    0  0.5572507E-005  0.5197903E+03  0.7546771E-02  0.1008739E+00
         21   -1    0    0  502  501  0.00000000000E+00  0.00000000000E+00  0.25755500417E+03  0.25755500417E+03  0.00000000000E+00 0.  1.
         21   -1    0    0  501  502 -0.00000000000E+00 -0.00000000000E+00 -0.10490260981E+04  0.10490260981E+04  0.00000000000E+00 0.  1.
         25    1    1    2    0    0  0.10063987942E+03  0.45770679652E+03 -0.33837639779E+03  0.59139452440E+03  0.12500000000E+03 0.  0.
         25    1    1    2    0    0 -0.73709229638E+02 -0.27522222838E+03 -0.35406687191E+03  0.47134772229E+03  0.12500000000E+03 0.  0.
         25    1    1    2    0    0 -0.26930649786E+02 -0.18248456814E+03 -0.99027824190E+02  0.24383885554E+03  0.12500000000E+03 0.  0.
</event>
<event>
 5    0  0.5572507E-005  0.2720369E+03  0.7546771E-02  0.1100119E+00
         21   -1    0    0  502  501  0.00000000000E+00  0.00000000000E+00  0.47115156613E+03  0.47115156613E+03  0.00000000000E+00 0.  1.
         21   -1    0    0  501  502 -0.00000000000E+00 -0.00000000000E+00 -0.15707063502E+03  0.15707063502E+03  0.00000000000E+00 0.  1.
         25    1    1    2    0    0 -0.17250990273E+03  0.54786859300E+02  0.97275193295E+02  0.24051762872E+03  0.12500000000E+03 0.  0.
         25    1    1    2    0    0  0.34176347167E+02 -0.27955865552E+02  0.79123065369E+02  0.15438592098E+03  0.12500000000E+03 0.  0.
         25    1    1    2    0    0  0.13833355556E+03 -0.26830993748E+02  0.13768267245E+03  0.23331865145E+03  0.12500000000E+03 0.  0.
</event>
<event>
 5    0  0.5572507E-005  0.3422520E+03  0.7546771E-02  0.1065841E+00
         21   -1    0    0  502  501  0.00000000000E+00  0.00000000000E+00  0.43522819963E+03  0.43522819963E+03  0.00000000000E+00 0.  1.
         21   -1    0    0  501  502 -0.00000000000E+00 -0.00000000000E+00 -0.26913793855E+03  0.26913793855E+03  0.00000000000E+00 0.  1.
         25    1    1    2    0    0 -0.11194206381E+03  0.50714986909E+02  0.67473872836E+02  0.18783173072E+03  0.12500000000E+03 0.  0.
         25    1    1    2    0    0 -0.11968341671E+03  0.85754101445E+02 -0.26095523001E+02  0.19489449061E+03  0.12500000000E+03 0.  0.
         25    1    1    2    0    0  0.23162548052E+03 -0.13646908835E+03  0.12471191124E+03  0.32163991685E+03  0.12500000000E+03 0.  0.
</event>
<event>
 5    0  0.5572507E-005  0.4499287E+03  0.7546771E-02  0.1027743E+00
         21   -1    0    0  502  501  0.00000000000E+00  0.00000000000E+00  0.12381810524E+04  0.12381810524E+04  0.00000000000E+00 0.  1.
         21   -1    0    0  501  502 -0.00000000000E+00 -0.00000000000E+00 -0.16349450949E+03  0.16349450949E+03  0.00000000000E+00 0.  1.
         25    1    1    2    0    0  0.23318823201E+03  0.26326578980E+03  0.35113599995E+03  0.51245206418E+03  0.12500000000E+03 0.  0.
         25    1    1    2    0    0 -0.12203110745E+03 -0.29655537263E+03  0.52111058952E+03  0.62451415254E+03  0.12500000000E+03 0.  0.
         25    1    1    2    0    0 -0.11115712456E+03  0.33289582828E+02  0.20243995341E+03  0.26470934513E+03  0.12500000000E+03 0.  0.
</event>
<event>
 5    0  0.5572507E-005  0.6088456E+03  0.7546771E-02  0.9887222E-01
         21   -1    0    0  502  501  0.00000000000E+00  0.00000000000E+00  0.37270327125E+03  0.37270327125E+03  0.00000000000E+00 0. -1.
         21   -1    0    0  501  502 -0.00000000000E+00 -0.00000000000E+00 -0.99460604181E+03  0.99460604181E+03  0.00000000000E+00 0. -1.
         25    1    1    2    0    0  0.11544910262E+02  0.13414380634E+03 -0.67433789285E+03  0.69891661839E+03  0.12500000000E+03 0.  0.
         25    1    1    2    0    0  0.22552942976E+03 -0.14655863488E+02 -0.16207090265E+03  0.30491030732E+03  0.12500000000E+03 0.  0.
         25    1    1    2    0    0 -0.23707434002E+03 -0.11948794285E+03  0.21450602493E+03  0.36348238735E+03  0.12500000000E+03 0.  0.
</event>
<event>
 5    0  0.5572507E-005  0.3156332E+03  0.7546771E-02  0.1077677E+00
         21   -1    0    0  502  501  0.00000000000E+00  0.00000000000E+00  0.47158181721E+03  0.47158181721E+03  0.00000000000E+00 0.  1.
         21   -1    0    0  501  502 -0.00000000000E+00 -0.00000000000E+00 -0.21125565367E+03  0.21125565367E+03  0.00000000000E+00 0.  1.
         25    1    1    2    0    0 -0.22783027784E+02  0.50637686734E+02  0.25000412186E+03  0.28497421396E+03  0.12500000000E+03 0.  0.
         25    1    1    2    0    0 -0.13142536545E+03  0.25879006156E+02  0.23481682002E+02  0.18471258493E+03  0.12500000000E+03 0.  0.
         25    1    1    2    0    0  0.15420839323E+03 -0.76516692890E+02 -0.13159640321E+02  0.21315067198E+03  0.12500000000E+03 0.  0.
</event>
<event>
 5    0  0.5572507E-005  0.3224258E+03  0.7546771E-02  0.1074538E+00
         21   -1    0    0  502  501  0.00000000000E+00  0.00000000000E+00  0.62415885679E+03  0.62415885679E+03  0.00000000000E+00 0. -1.
         21   -1    0    0  501  502 -0.00000000000E+00 -0.00000000000E+00 -0.16655763229E+03  0.16655763229E+03  0.00000000000E+00 0. -1.
         25    1    1    2    0    0 -0.54515667560E+02  0.18738785782E+03  0.87491076643E+02  0.24772132681E+03  0.12500000000E+03 0.  0.
         25    1    1    2    0    0  0.11773185887E+03 -0.47221100312E+02  0.89077803903E+02  0.19912427792E+03  0.12500000000E+03 0.  0.
         25    1    1    2    0    0 -0.63216191314E+02 -0.14016675750E+03  0.28103234395E+03  0.34387088434E+03  0.12500000000E+03 0.  0.
</event>
<event>
 5    0  0.5572507E-005  0.3416555E+03  0.7546771E-02  0.1066093E+00
         21   -1    0    0  502  501  0.00000000000E+00  0.00000000000E+00  0.46595213958E+03  0.46595213958E+03  0.00000000000E+00 0.  1.
         21   -1    0    0  501  502 -0.00000000000E+00 -0.00000000000E+00 -0.25051596621E+03  0.25051596621E+03  0.00000000000E+00 0.  1.
         25    1    1    2    0    0 -0.10319233224E+03  0.59770109378E+02  0.84307199504E+02  0.19223378292E+03  0.12500000000E+03 0.  0.
         25    1    1    2    0    0  0.24724189938E+03 -0.12417010207E+03  0.10500376410E+03  0.32124377275E+03  0.12500000000E+03 0.  0.
         25    1    1    2    0    0 -0.14404956714E+03  0.64399992687E+02  0.26125209759E+02  0.20299055011E+03  0.12500000000E+03 0.  0.
</event>
<event>
 5    0  0.5572507E-005  0.3222149E+03  0.7546771E-02  0.1074634E+00
         21   -1    0    0  502  501  0.00000000000E+00  0.00000000000E+00  0.23569367734E+04  0.23569367734E+04  0.00000000000E+00 0. -1.
         21   -1    0    0  501  502 -0.00000000000E+00 -0.00000000000E+00 -0.44049735205E+02  0.44049735205E+02  0.00000000000E+00 0. -1.
         25    1    1    2    0    0 -0.10901161735E+03 -0.19534975375E+02  0.11772261752E+04  0.11890128744E+04  0.12500000000E+03 0.  0.
         25    1    1    2    0    0  0.14802718434E+03  0.13295476177E+03  0.48925555436E+03  0.54275686403E+03  0.12500000000E+03 0.  0.
         25    1    1    2    0    0 -0.39015566991E+02 -0.11341978639E+03  0.64640530867E+03  0.66921677018E+03  0.12500000000E+03 0.  0.
</event>
<event>
 5    0  0.5572507E-005  0.2656118E+03  0.7546771E-02  0.1103818E+00
         21   -1    0    0  502  501  0.00000000000E+00  0.00000000000E+00  0.30907282919E+04  0.30907282919E+04  0.00000000000E+00 0.  1.
         21   -1    0    0  501  502 -0.00000000000E+00 -0.00000000000E+00 -0.22826220480E+02  0.22826220480E+02  0.00000000000E+00 0.  1.
         25    1    1    2    0    0  0.27737632351E+02 -0.70544621063E+02  0.56739516395E+03  0.58592507361E+03  0.12500000000E+03 0.  0.
         25    1    1    2    0    0 -0.13632999443E+03 -0.54273722147E+01  0.13935420123E+04  0.14057736887E+04  0.12500000000E+03 0.  0.
         25    1    1    2    0    0  0.10859236208E+03  0.75971993278E+02  0.11069648952E+04  0.11218557501E+04  0.12500000000E+03 0.  0.
</event>
<event>
 5    0  0.5909810E-005  0.4774434E+03  0.7546771E-02  0.1019840E+00
         21   -1    0    0  502  501  0.00000000000E+00  0.00000000000E+00  0.46784495510E+03  0.46784495510E+03  0.00000000000E+00 0. -1.
         21   -1    0    0  501  502 -0.00000000000E+00 -0.00000000000E+00 -0.48723876764E+03  0.48723876764E+03  0.00000000000E+00 0. -1.
         25    1    1    2    0    0 -0.44556837504E+02  0.18271519035E+02 -0.34188698120E+03  0.36719322991E+03  0.12500000000E+03 0.  0.
         25    1    1    2    0    0  0.38332073935E+02 -0.20660093312E+03  0.25180506082E+03  0.35097589961E+03  0.12500000000E+03 0.  0.
         25    1    1    2    0    0  0.62247635685E+01  0.18832941408E+03  0.70688107844E+02  0.23691459322E+03  0.12500000000E+03 0.  0.
</event>
<event>
 5    0  0.5684581E-005  0.3109389E+03  0.7546771E-02  0.1079897E+00
         21   -1    0    0  502  501  0.00000000000E+00  0.00000000000E+00  0.25318949332E+03  0.25318949332E+03  0.00000000000E+00 0.  1.
         21   -1    0    0  501  502 -0.00000000000E+00 -0.00000000000E+00 -0.38186019105E+03  0.38186019105E+03  0.00000000000E+00 0.  1.
         25    1    1    2    0    0  0.82399875596E+02 -0.10003239426E+03 -0.19830710473E+01  0.18006985303E+03  0.12500000000E+03 0.  0.
         25    1    1    2    0    0 -0.15844545069E+03 -0.13962432150E+02 -0.17030519656E+03  0.26444048542E+03  0.12500000000E+03 0.  0.
         25    1    1    2    0    0  0.76045575090E+02  0.11399482641E+03  0.43617569879E+02  0.19053934591E+03  0.12500000000E+03 0.  0.
</event>
<event>
 5    0  0.5572507E-005  0.3667483E+03  0.7546771E-02  0.1055943E+00
         21   -1    0    0  502  501  0.00000000000E+00  0.00000000000E+00  0.80303682683E+03  0.80303682683E+03  0.00000000000E+00 0.  1.
         21   -1    0    0  501  502 -0.00000000000E+00 -0.00000000000E+00 -0.16749457712E+03  0.16749457712E+03  0.00000000000E+00 0.  1.
         25    1    1    2    0    0 -0.88182213788E+02 -0.45394221492E+02  0.39506862793E+02  0.16438531072E+03  0.12500000000E+03 0.  0.
         25    1    1    2    0    0 -0.71231712589E+02 -0.11292298772E+03  0.49879329174E+03  0.53126764058E+03  0.12500000000E+03 0.  0.
         25    1    1    2    0    0  0.15941392638E+03  0.15831720921E+03  0.97242095183E+02  0.27487845265E+03  0.12500000000E+03 0.  0.
</event>
<event>
 5    0  0.5572507E-005  0.3472500E+03  0.7546771E-02  0.1063749E+00
         21   -1    0    0  502  501  0.00000000000E+00  0.00000000000E+00  0.55111737734E+03  0.55111737734E+03  0.00000000000E+00 0.  1.
         21   -1    0    0  501  502 -0.00000000000E+00 -0.00000000000E+00 -0.21879646283E+03  0.21879646283E+03  0.00000000000E+00 0.  1.
         25    1    1    2    0    0  0.12035164593E+03 -0.17998955717E+03  0.11982437127E+03  0.27724292474E+03  0.12500000000E+03 0.  0.
         25    1    1    2    0    0 -0.99155274429E+02  0.15651263855E+03  0.27083514244E+03  0.35114761690E+03  0.12500000000E+03 0.  0.
         25    1    1    2    0    0 -0.21196371497E+02  0.23476918623E+02 -0.58338599197E+02  0.14152329854E+03  0.12500000000E+03 0.  0.
</event>
<event>
 5    0  0.5572507E-005  0.4226697E+03  0.7546771E-02  0.1036201E+00
         21   -1    0    0  502  501  0.00000000000E+00  0.00000000000E+00  0.27079655522E+04  0.27079655522E+04  0.00000000000E+00 0. -1.
         21   -1    0    0  501  502 -0.00000000000E+00 -0.00000000000E+00 -0.65971909480E+02  0.65971909480E+02  0.00000000000E+00 0. -1.
         25    1    1    2    0    0 -0.21716237802E+03 -0.25817289757E+03  0.78302541744E+03  0.86172301108E+03  0.12500000000E+03 0.  0.
         25    1    1    2    0    0  0.28732758708E+02  0.14612110673E+03  0.73695732827E+03  0.76217324340E+03  0.12500000000E+03 0.  0.
         25    1    1    2    0    0  0.18842961931E+03  0.11205179084E+03  0.11220108970E+04  0.11500412072E+04  0.12500000000E+03 0.  0.
</event>
<event>
 5    0  0.5572507E-005  0.4937527E+03  0.7546771E-02  0.1015423E+00
         21   -1    0    0  502  501  0.00000000000E+00  0.00000000000E+00  0.26450987313E+03  0.26450987313E+03  0.00000000000E+00 0. -1.
         21   -1    0    0  501  502 -0.00000000000E+00 -0.00000000000E+00 -0.92167357436E+03  0.92167357436E+03  0.00000000000E+00 0. -1.
         25    1    1    2    0    0  0.14731679364E+03  0.63699717906E+02 -0.31745776470E+03  0.37704684606E+03  0.12500000000E+03 0.  0.
         25    1    1    2    0    0  0.16750028964E+03  0.12978218080E+03 -0.33922739591E+03  0.41904652202E+03  0.12500000000E+03 0.  0.
         25    1    1    2    0    0 -0.31481708329E+03 -0.19348189870E+03 -0.47854061863E+00  0.39009007941E+03  0.12500000000E+03 0.  0.
</event>
<event>
 5    0  0.5572507E-005  0.2236502E+03  0.7546771E-02  0.1131191E+00
         21   -1    0    0  502  501  0.00000000000E+00  0.00000000000E+00  0.20711870763E+03  0.20711870763E+03  0.00000000000E+00 0.  1.
         21   -1    0    0  501  502 -0.00000000000E+00 -0.00000000000E+00 -0.24150122182E+03  0.24150122182E+03  0.00000000000E+00 0.  1.
         25    1    1    2    0    0  0.30679088933E+01 -0.83973619618E+02  0.33538894770E+02  0.15430760940E+03  0.12500000000E+03 0.  0.
         25    1    1    2    0    0 -0.24937167521E+02  0.36814432314E+02  0.18120884433E+02  0.13390493345E+03  0.12500000000E+03 0.  0.
         25    1    1    2    0    0  0.21869258627E+02  0.47159187303E+02 -0.86042293392E+02  0.16040738659E+03  0.12500000000E+03 0.  0.
</event>
<event>
 5    0  0.5572507E-005  0.5081953E+03  0.7546771E-02  0.1011662E+00
         21   -1    0    0  502  501  0.00000000000E+00  0.00000000000E+00  0.60765014485E+03  0.60765014485E+03  0.00000000000E+00 0. -1.
         21   -1    0    0  501  502 -0.00000000000E+00 -0.00000000000E+00 -0.42501841021E+03  0.42501841021E+03  0.00000000000E+00 0. -1.
         25    1    1    2    0    0  0.51033726943E+02  0.32355132828E+03 -0.60961218715E+02  0.35585274132E+03  0.12500000000E+03 0.  0.
         25    1    1    2    0    0 -0.44130832497E+02 -0.39998306107E+03  0.36383463930E+02  0.42294531085E+03  0.12500000000E+03 0.  0.
         25    1    1    2    0    0 -0.69028944454E+01  0.76431732798E+02  0.20720948942E+03  0.25387050289E+03  0.12500000000E+03 0.  0.
</event>
<event>
 5    0  0.5572507E-005  0.5468015E+03  0.7546771E-02  0.1002237E+00
         21   -1    0    0  502  501  0.00000000000E+00  0.00000000000E+00  0.31156058223E+04  0.31156058223E+04  0.00000000000E+00 0. -1.
         21   -1    0    0  501  502 -0.00000000000E+00 -0.00000000000E+00 -0.95965903685E+02  0.95965903685E+02  0.00000000000E+00 0. -1.
         25    1    1    2    0    0 -0.36385737120E+03 -0.34888097478E+03  0.14735538874E+04  0.15624007746E+04  0.12500000000E+03 0.  0.
         25    1    1    2    0    0  0.27263960276E+03  0.24191533487E+03  0.10698686040E+04  0.11371452027E+04  0.12500000000E+03 0.  0.
         25    1    1    2    0    0  0.91217768434E+02  0.10696563991E+03  0.47621742719E+03  0.51202574872E+03  0.12500000000E+03 0.  0.
</event>
<event>
 5    0  0.5612595E-005  0.4522503E+03  0.7546771E-02  0.1027053E+00
         21   -1    0    0  502  501  0.00000000000E+00  0.00000000000E+00  0.50452352724E+03  0.50452352724E+03  0.00000000000E+00 0.  1.
         21   -1    0    0  501  502 -0.00000000000E+00 -0.00000000000E+00 -0.40539296555E+03  0.40539296555E+03  0.00000000000E+00 0.  1.
         25    1    1    2    0    0  0.20167979698E+03  0.16127653859E+03 -0.11868536929E+03  0.31047717999E+03  0.12500000000E+03 0.  0.
         25    1    1    2    0    0 -0.93503159215E+02 -0.22167139576E+02 -0.12020944994E+03  0.19826632269E+03  0.12500000000E+03 0.  0.
         25    1    1    2    0    0 -0.10817663777E+03 -0.13910939902E+03  0.33802538091E+03  0.40117299011E+03  0.12500000000E+03 0.  0.
</event>
<event>
 5    0  0.5572507E-005  0.3882557E+03  0.7546771E-02  0.1047924E+00
         21   -1    0    0  502  501  0.00000000000E+00  0.00000000000E+00  0.32126509457E+03  0.32126509457E+03  0.00000000000E+00 0. -1.
         21   -1    0    0  501  502 -0.00000000000E+00 -0.00000000000E+00 -0.46921522559E+03  0.46921522559E+03  0.00000000000E+00 0. -1.
         25    1    1    2    0    0 -0.12548772908E+03  0.71317369913E+01  0.33494861244E+02  0.18040215507E+03  0.12500000000E+03 0.  0.
         25    1    1    2    0    0 -0.72772173449E+02  0.12052876367E+03  0.10744391102E+03  0.21677676563E+03  0.12500000000E+03 0.  0.
         25    1    1    2    0    0  0.19825990253E+03 -0.12766050066E+03 -0.28888890328E+03  0.39330139947E+03  0.12500000000E+03 0.  0.
</event>
<event>
 5    0  0.5572507E-005  0.7716377E+03  0.7546771E-02  0.9602003E-01
         21   -1    0    0  502  501  0.00000000000E+00  0.00000000000E+00  0.46500627390E+03  0.46500627390E+03  0.00000000000E+00 0.  1.
         21   -1    0    0  501  502 -0.00000000000E+00 -0.00000000000E+00 -0.12804660620E+04  0.12804660620E+04  0.00000000000E+00 0.  1.
         25    1    1    2    0    0 -0.49382977260E+03 -0.46709244411E+03 -0.69577744205E+02  0.69462886360E+03  0.12500000000E+03 0.  0.
         25    1    1    2    0    0  0.13121470401E+03  0.99536305068E+02 -0.17334486210E+03  0.26981144488E+03  0.12500000000E+03 0.  0.
         25    1    1    2    0    0  0.36261506860E+03  0.36755613904E+03 -0.57253718181E+03  0.78103202743E+03  0.12500000000E+03 0.  0.
</event>
<event>
 5    0  0.5572507E-005  0.3181658E+03  0.7546771E-02  0.1076497E+00
         21   -1    0    0  502  501  0.00000000000E+00  0.00000000000E+00  0.10440275256E+04  0.10440275256E+04  0.00000000000E+00 0. -1.
         21   -1    0    0  501  502 -0.00000000000E+00 -0.00000000000E+00 -0.96960548454E+02  0.96960548454E+02  0.00000000000E+00 0. -1.
         25    1    1    2    0    0  0.19213240657E+03 -0.93604388414E+02  0.49097645698E+03  0.54987228017E+03  0.12500000000E+03 0.  0.
         25    1    1    2    0    0 -0.34285748516E+02 -0.13980534808E+02  0.25714669122E+03  0.28830606777E+03  0.12500000000E+03 0.  0.
         25    1    1    2    0    0 -0.15784665806E+03  0.10758492322E+03  0.19894382897E+03  0.30280972615E+03  0.12500000000E+03 0.  0.
</event>
<event>
 5    0  0.5572507E-005  0.5764510E+03  0.7546771E-02  0.9955504E-01
         21   -1    0    0  502  501  0.00000000000E+00  0.00000000000E+00  0.10563269766E+04  0.10563269766E+04  0.00000000000E+00 0. -1.
         21   -1    0    0  501  502 -0.00000000000E+00 -0.00000000000E+00 -0.31457656338E+03  0.31457656338E+03  0.00000000000E+00 0. -1.
         25    1    1    2    0    0  0.26889279102E+03 -0.33807272891E+03  0.46017593817E+03  0.64341541571E+03  0.12500000000E+03 0.  0.
         25    1    1    2    0    0  0.53427218180E+02  0.26845346738E+03  0.48544831027E+02  0.30480047967E+03  0.12500000000E+03 0.  0.
         25    1    1    2    0    0 -0.32232000920E+03  0.69619261536E+02  0.23302964401E+03  0.42268764459E+03  0.12500000000E+03 0.  0.
</event>
<event>
 5    0  0.5688420E-005  0.3088619E+03  0.7546771E-02  0.1080893E+00
         21   -1    0    0  502  501  0.00000000000E+00  0.00000000000E+00  0.26457418419E+03  0.26457418419E+03  0.00000000000E+00 0. -1.
         21   -1    0    0  501  502 -0.00000000000E+00 -0.00000000000E+00 -0.36056292854E+03  0.36056292854E+03  0.00000000000E+00 0. -1.
         25    1    1    2    0    0  0.19830660076E+03  0.27883877889E+02 -0.64767544007E+02  0.24479144860E+03  0.12500000000E+03 0.  0.
         25    1    1    2    0    0 -0.14323222070E+03  0.78367880374E+02 -0.84421664576E+01  0.20579908624E+03  0.12500000000E+03 0.  0.
         25    1    1    2    0    0 -0.55074380056E+02 -0.10625175826E+03 -0.22779033883E+02  0.17454657790E+03  0.12500000000E+03 0.  0.
</event>
<event>
 5    0  0.5572507E-005  0.4721450E+03  0.7546771E-02  0.1021317E+00
         21   -1    0    0  502  501  0.00000000000E+00  0.00000000000E+00  0.12095691055E+04  0.12095691055E+04  0.00000000000E+00 0. -1.
         21   -1    0    0  501  502 -0.00000000000E+00 -0.00000000000E+00 -0.18429777729E+03  0.18429777729E+03  0.00000000000E+00 0. -1.
         25    1    1    2    0    0  0.17241374816E+03  0.11254918923E+03  0.15764966832E+03  0.28787538706E+03  0.12500000000E+03 0.  0.
         25    1    1    2    0    0 -0.39767444436E+03 -0.58266783676E+02  0.57122333642E+03  0.70954991498E+03  0.12500000000E+03 0.  0.
         25    1    1    2    0    0  0.22526069619E+03 -0.54282405557E+02  0.29639832347E+03  0.39644158077E+03  0.12500000000E+03 0.  0.
</event>
<event>
 5    0  0.5572507E-005  0.3290496E+03  0.7546771E-02  0.1071558E+00
         21   -1    0    0  502  501  0.00000000000E+00  0.00000000000E+00  0.66963588623E+03  0.66963588623E+03  0.00000000000E+00 0.  1.
         21   -1    0    0  501  502 -0.00000000000E+00 -0.00000000000E+00 -0.16169028332E+03  0.16169028332E+03  0.00000000000E+00 0.  1.
         25    1    1    2    0    0  0.81365571159E+02  0.47838329119E+02  0.20493716665E+03  0.25794011743E+03  0.12500000000E+03 0.  0.
         25    1    1    2    0    0 -0.11804723322E+03  0.18784719237E+02 -0.59148283215E+02  0.18278822269E+03  0.12500000000E+03 0.  0.
         25    1    1    2    0    0  0.36681662059E+02 -0.66623048356E+02  0.36215671947E+03  0.39059782943E+03  0.12500000000E+03 0.  0.
</event>
<event>
 5    0  0.5572507E-005  0.3337741E+03  0.7546771E-02  0.1069479E+00
         21   -1    0    0  502  501  0.00000000000E+00  0.00000000000E+00  0.87251575740E+03  0.87251575740E+03  0.00000000000E+00 0. -1.
         21   -1    0    0  501  502 -0.00000000000E+00 -0.00000000000E+00 -0.12768268343E+03  0.12768268343E+03  0.00000000000E+00 0. -1.
         25    1    1    2    0    0  0.79652331877E+02  0.15590583158E+03  0.61804237249E+02  0.22382110275E+03  0.12500000000E+03 0.  0.
         25    1    1    2    0    0 -0.10850946437E+03 -0.21695427727E+01  0.25794711250E+03  0.30649750997E+03  0.12500000000E+03 0.  0.
         25    1    1    2    0    0  0.28857132488E+02 -0.15373628880E+03  0.42508172422E+03  0.46987982811E+03  0.12500000000E+03 0.  0.
</event>
<event>
 5    0  0.5572507E-005  0.4004082E+03  0.7546771E-02  0.1043638E+00
         21   -1    0    0  502  501  0.00000000000E+00  0.00000000000E+00  0.77079935619E+02  0.77079935619E+02  0.00000000000E+00 0.  1.
         21   -1    0    0  501  502 -0.00000000000E+00 -0.00000000000E+00 -0.20800059985E+04  0.20800059985E+04  0.00000000000E+00 0.  1.
         25    1    1    2    0    0 -0.91317000772E+02 -0.23831511923E+03 -0.33563360213E+03  0.43978154300E+03  0.12500000000E+03 0.  0.
         25    1    1    2    0    0  0.28423103892E+02  0.23786934024E+03 -0.11610199728E+04  0.11920495262E+04  0.12500000000E+03 0.  0.
         25    1    1    2    0    0  0.62893896880E+02  0.44577898772E+00 -0.50627248800E+03  0.52525486489E+03  0.12500000000E+03 0.  0.
</event>
<event>
 5    0  0.5572507E-005  0.3864659E+03  0.7546771E-02  0.1048569E+00
         21   -1    0    0  502  501  0.00000000000E+00  0.00000000000E+00  0.20394155159E+03  0.20394155159E+03  0.00000000000E+00 0. -1.
         21   -1    0    0  501  502 -0.00000000000E+00 -0.00000000000E+00 -0.73234642779E+03  0.73234642779E+03  0.00000000000E+00 0. -1.
         25    1    1    2    0    0 -0.20579357774E+03 -0.11613663638E+03 -0.47945673379E+03  0.54894669552E+03  0.12500000000E+03 0.  0.
         25    1    1    2    0    0  0.76212926848E+02 -0.29972311537E+02 -0.42568939392E+02  0.15538296006E+03  0.12500000000E+03 0.  0.
         25    1    1    2    0    0  0.12958065089E+03  0.14610894791E+03 -0.63792030186E+01  0.23195832379E+03  0.12500000000E+03 0.  0.
</event>
<event>
 5    0  0.5572507E-005  0.3712442E+03  0.7546771E-02  0.1054218E+00
         21   -1    0    0  502  501  0.00000000000E+00  0.00000000000E+00  0.20819160180E+03  0.20819160180E+03  0.00000000000E+00 0.  1.
         21   -1    0    0  501  502 -0.00000000000E+00 -0.00000000000E+00 -0.66199725746E+03  0.66199725746E+03  0.00000000000E+00 0.  1.
         25    1    1    2    0    0 -0.10146273601E+03 -0.12943240158E+03 -0.17601749172E+02  0.20732162200E+03  0.12500000000E+03 0.  0.
         25    1    1    2    0    0  0.19709843362E+03  0.27777831525E+01 -0.39174858285E+03  0.45601256647E+03  0.12500000000E+03 0.  0.
         25    1    1    2    0    0 -0.95635697611E+02  0.12665461842E+03 -0.44455323633E+02  0.20685467078E+03  0.12500000000E+03 0.  0.
</event>
<event>
 5    0  0.5572507E-005  0.3568792E+03  0.7546771E-02  0.1059826E+00
         21   -1    0    0  502  501  0.00000000000E+00  0.00000000000E+00  0.79506243720E+03  0.79506243720E+03  0.00000000000E+00 0. -1.
         21   -1    0    0  501  502 -0.00000000000E+00 -0.00000000000E+00 -0.16019218656E+03  0.16019218656E+03  0.00000000000E+00 0. -1.
         25    1    1    2    0    0 -0.10694680029E+02 -0.83787591656E+02 -0.85554505125E+02  0.17343387802E+03  0.12500000000E+03 0.  0.
         25    1    1    2    0    0  0.11276413616E+02  0.76799356013E+01  0.51155871908E+03  0.52678597360E+03  0.12500000000E+03 0.  0.
         25    1    1    2    0    0 -0.58173358696E+00  0.76107656055E+02  0.20886603669E+03  0.25503477215E+03  0.12500000000E+03 0.  0.
</event>
<event>
 5    0  0.5572507E-005  0.3390299E+03  0.7546771E-02  0.1067210E+00
         21   -1    0    0  502  501  0.00000000000E+00  0.00000000000E+00  0.24955071924E+03  0.24955071924E+03  0.00000000000E+00 0. -1.
         21   -1    0    0  501  502 -0.00000000000E+00 -0.00000000000E+00 -0.46059282238E+03  0.46059282238E+03  0.00000000000E+00 0. -1.
         25    1    1    2    0    0  0.15822016095E+02 -0.66922091765E+00 -0.27401289743E+02  0.12894423108E+03  0.12500000000E+03 0.  0.
         25    1    1    2    0    0 -0.23524049899E+03 -0.22045532032E+02  0.14138400773E+01  0.26730337968E+03  0.12500000000E+03 0.  0.
         25    1    1    2    0    0  0.21941848289E+03  0.22714752949E+02 -0.18505465348E+03  0.31389593086E+03  0.12500000000E+03 0.  0.
</event>
<event>
 5    0  0.5572507E-005  0.4459389E+03  0.7546771E-02  0.1028940E+00
         21   -1    0    0  502  501  0.00000000000E+00  0.00000000000E+00  0.53114388548E+03  0.53114388548E+03  0.00000000000E+00 0.  1.
         21   -1    0    0  501  502 -0.00000000000E+00 -0.00000000000E+00 -0.37440227121E+03  0.37440227121E+03  0.00000000000E+00 0.  1.
         25    1    1    2    0    0  0.24846358399E+03 -0.66938392429E+02  0.14392026018E+03  0.32023888309E+03  0.12500000000E+03 0.  0.
         25    1    1    2    0    0 -0.34762995917E+03  0.95370464388E+02 -0.91773547207E+02  0.39241495634E+03  0.12500000000E+03 0.  0.
         25    1    1    2    0    0  0.99166375178E+02 -0.28432071959E+02  0.10459490130E+03  0.19289231726E+03  0.12500000000E+03 0.  0.
</event>
<event>
 5    0  0.5572507E-005  0.2963190E+03  0.7546771E-02  0.1087095E+00
         21   -1    0    0  502  501  0.00000000000E+00  0.00000000000E+00  0.17955723237E+04  0.17955723237E+04  0.00000000000E+00 0.  1.
         21   -1    0    0  501  502 -0.00000000000E+00 -0.00000000000E+00 -0.48900827073E+02  0.48900827073E+02  0.00000000000E+00 0.  1.
         25    1    1    2    0    0  0.33180254448E+01 -0.67350928544E+02  0.10021504681E+04  0.10121648668E+04  0.12500000000E+03 0.  0.
         25    1    1    2    0    0 -0.94455149330E+02  0.13138347590E+03  0.39717752369E+03  0.44671957456E+03  0.12500000000E+03 0.  0.
         25    1    1    2    0    0  0.91137123885E+02 -0.64032547352E+02  0.34734350481E+03  0.38558870938E+03  0.12500000000E+03 0.  0.
</event>
<event>
 5    0  0.5572507E-005  0.2738172E+03  0.7546771E-02  0.1099115E+00
         21   -1    0    0  502  501  0.00000000000E+00  0.00000000000E+00  0.18172286696E+03  0.18172286696E+03  0.00000000000E+00 0.  1.
         21   -1    0    0  501  502 -0.00000000000E+00 -0.00000000000E+00 -0.41258347729E+03  0.41258347729E+03  0.00000000000E+00 0.  1.
         25    1    1    2    0    0 -0.94988808950E+02 -0.31501032960E+02 -0.10304420639E+03  0.19041611637E+03  0.12500000000E+03 0.  0.
         25    1    1    2    0    0 -0.69588554064E+02 -0.29876769549E+02 -0.11840828103E+03  0.18809760560E+03  0.12500000000E+03 0.  0.
         25    1    1    2    0    0  0.16457736301E+03  0.61377802510E+02 -0.94081229124E+01  0.21579262229E+03  0.12500000000E+03 0.  0.
</event>
<event>
 5    0  0.5572507E-005  0.3181471E+03  0.7546771E-02  0.1076505E+00
         21   -1    0    0  502  501  0.00000000000E+00  0.00000000000E+00  0.45079367682E+03  0.45079367682E+03  0.00000000000E+00 0. -1.
         21   -1    0    0  501  502 -0.00000000000E+00 -0.00000000000E+00 -0.22453194598E+03  0.22453194598E+03  0.00000000000E+00 0. -1.
         25    1    1    2    0    0 -0.67972408359E+01 -0.38400831412E+02  0.26931291202E+03  0.29945829579E+03  0.12500000000E+03 0.  0.
         25    1    1    2    0    0  0.26643305297E+02  0.94130343181E+02  0.91253568164E+02  0.18309178280E+03  0.12500000000E+03 0.  0.
         25    1    1    2    0    0 -0.19846064461E+02 -0.55729511769E+02 -0.13430474934E+03  0.19277554423E+03  0.12500000000E+03 0.  0.
</event>
<event>
 5    0  0.5572507E-005  0.3172095E+03  0.7546771E-02  0.1076941E+00
         21   -1    0    0  502  501  0.00000000000E+00  0.00000000000E+00  0.55597270147E+03  0.55597270147E+03  0.00000000000E+00 0. -1.
         21   -1    0    0  501  502 -0.00000000000E+00 -0.00000000000E+00 -0.18098345399E+03  0.18098345399E+03  0.00000000000E+00 0. -1.
         25    1    1    2    0    0  0.33616746951E+02  0.59453196534E+01  0.11991870253E+03  0.17655290346E+03  0.12500000000E+03 0.  0.
         25    1    1    2    0    0 -0.13644463111E+03  0.16010451409E+03  0.21366153118E+03  0.32484895366E+03  0.12500000000E+03 0.  0.
         25    1    1    2    0    0  0.10282788416E+03 -0.16604983374E+03  0.41409013761E+02  0.23555429834E+03  0.12500000000E+03 0.  0.
</event>
<event>
 5    0  0.5572507E-005  0.5112052E+03  0.7546771E-02  0.1010895E+00
         21   -1    0    0  502  501  0.00000000000E+00  0.00000000000E+00  0.91447704709E+03  0.91447704709E+03  0.00000000000E+00 0. -1.
         21   -1    0    0  501  502 -0.00000000000E+00 -0.00000000000E+00 -0.28577076694E+03  0.28577076694E+03  0.00000000000E+00 0. -1.
         25    1    1    2    0    0  0.37162557068E+02  0.18207106320E+02  0.29579238042E+03  0.32377567340E+03  0.12500000000E+03 0.  0.
         25    1    1    2    0    0  0.13326209427E+03 -0.33226741117E+03  0.10677734165E+02  0.37934078650E+03  0.12500000000E+03 0.  0.
         25    1    1    2    0    0 -0.17042465134E+03  0.31406030485E+03  0.32223616556E+03  0.49713135413E+03  0.12500000000E+03 0.  0.
</event>
<event>
 5    0  0.5572507E-005  0.3321398E+03  0.7546771E-02  0.1070194E+00
         21   -1    0    0  502  501  0.00000000000E+00  0.00000000000E+00  0.12253877225E+03  0.12253877225E+03  0.00000000000E+00 0.  1.
         21   -1    0    0  501  502 -0.00000000000E+00 -0.00000000000E+00 -0.90026051704E+03  0.90026051704E+03  0.00000000000E+00 0.  1.
         25    1    1    2    0    0  0.46213560694E+02 -0.69520394965E+02 -0.29948073234E+02  0.15326664868E+03  0.12500000000E+03 0.  0.
         25    1    1    2    0    0 -0.38404486861E+02 -0.67474667226E+02 -0.63035026673E+02  0.16008169763E+03  0.12500000000E+03 0.  0.
         25    1    1    2    0    0 -0.78090738335E+01  0.13699506219E+03 -0.68473864488E+03  0.70945094298E+03  0.12500000000E+03 0.  0.
</event>
<event>
 5    0  0.5572507E-005  0.2783646E+03  0.7546771E-02  0.1096586E+00
         21   -1    0    0  502  501  0.00000000000E+00  0.00000000000E+00  0.41893876836E+02  0.41893876836E+02  0.00000000000E+00 0.  1.
         21   -1    0    0  501  502 -0.00000000000E+00 -0.00000000000E+00 -0.18495990293E+04  0.18495990293E+04  0.00000000000E+00 0.  1.
         25    1    1    2    0    0  0.96982151930E+02  0.11144095410E+03 -0.92170722581E+03  0.94180350082E+03  0.12500000000E+03 0.  0.
         25    1    1    2    0    0 -0.32577050617E+02 -0.32864300711E+02 -0.65278467840E+03  0.66625382764E+03  0.12500000000E+03 0.  0.
         25    1    1    2    0    0 -0.64405101313E+02 -0.78576653389E+02 -0.23321324825E+03  0.28343557767E+03  0.12500000000E+03 0.  0.
</event>
<event>
 5    0  0.5572507E-005  0.4055792E+03  0.7546771E-02  0.1041865E+00
         21   -1    0    0  502  501  0.00000000000E+00  0.00000000000E+00  0.11178537476E+04  0.11178537476E+04  0.00000000000E+00 0.  1.
         21   -1    0    0  501  502 -0.00000000000E+00 -0.00000000000E+00 -0.14715208409E+03  0.14715208409E+03  0.00000000000E+00 0.  1.
         25    1    1    2    0    0  0.33113129597E+01 -0.13101841286E+03  0.10639494129E+03  0.21005159565E+03  0.12500000000E+03 0.  0.
         25    1    1    2    0    0  0.21270241141E+03 -0.59352462859E+02  0.21048307525E+03  0.32968645048E+03  0.12500000000E+03 0.  0.
         25    1    1    2    0    0 -0.21601372437E+03  0.19037087572E+03  0.65382364695E+03  0.72526778554E+03  0.12500000000E+03 0.  0.
</event>
<event>
 5    0  0.5572507E-005  0.3018778E+03  0.7546771E-02  0.1084306E+00
         21   -1    0    0  502  501  0.00000000000E+00  0.00000000000E+00  0.13757915624E+03  0.13757915624E+03  0.00000000000E+00 0.  1.
         21   -1    0    0  501  502 -0.00000000000E+00 -0.00000000000E+00 -0.66238376710E+03  0.66238376710E+03  0.00000000000E+00 0.  1.
         25    1    1    2    0    0 -0.59611302246E+02  0.14083898103E+03 -0.22994514162E+03  0.30313180976E+03  0.12500000000E+03 0.  0.
         25    1    1    2    0    0  0.75904442551E+02  0.61039943372E+02 -0.15004320786E+03  0.21823226918E+03  0.12500000000E+03 0.  0.
         25    1    1    2    0    0 -0.16293140305E+02 -0.20187892441E+03 -0.14481626138E+03  0.27859884440E+03  0.12500000000E+03 0.  0.
</event>
<event>
 5    0  0.5572507E-005  0.2944851E+03  0.7546771E-02  0.1088030E+00
         21   -1    0    0  502  501  0.00000000000E+00  0.00000000000E+00  0.12434635688E+03  0.12434635688E+03  0.00000000000E+00 0. -1.
         21   -1    0    0  501  502 -0.00000000000E+00 -0.00000000000E+00 -0.69741875609E+03  0.69741875609E+03  0.00000000000E+00 0. -1.
         25    1    1    2    0    0  0.39440210978E+01  0.38477843431E+02 -0.12890663770E+03  0.18367912505E+03  0.12500000000E+03 0.  0.
         25    1    1    2    0    0 -0.13621163086E+03  0.96788460974E+02 -0.11467890685E+03  0.23811313747E+03  0.12500000000E+03 0.  0.
         25    1    1    2    0    0  0.13226760976E+03 -0.13526630441E+03 -0.32948685466E+03  0.39997285045E+03  0.12500000000E+03 0.  0.
</event>
<event>
 5    0  0.5572507E-005  0.2825131E+03  0.7546771E-02  0.1094324E+00
         21   -1    0    0  502  501  0.00000000000E+00  0.00000000000E+00  0.11696516583E+04  0.11696516583E+04  0.00000000000E+00 0. -1.
         21   -1    0    0  501  502 -0.00000000000E+00 -0.00000000000E+00 -0.68237125898E+02  0.68237125898E+02  0.00000000000E+00 0. -1.
         25    1    1    2    0    0 -0.24388867864E+02  0.43062213858E+02  0.17617489291E+03  0.22161174164E+03  0.12500000000E+03 0.  0.
         25    1    1    2    0    0  0.86200802076E+02 -0.12686062246E+03  0.75623697831E+03  0.78169275497E+03  0.12500000000E+03 0.  0.
         25    1    1    2    0    0 -0.61811934212E+02  0.83798408602E+02  0.16900266115E+03  0.23458428756E+03  0.12500000000E+03 0.  0.
</event>
<event>
 5    0  0.6459165E-005  0.4337116E+03  0.7546771E-02  0.1032694E+00
         21   -1    0    0  502  501  0.00000000000E+00  0.00000000000E+00  0.50561244937E+03  0.50561244937E+03  0.00000000000E+00 0. -1.
         21   -1    0    0  501  502 -0.00000000000E+00 -0.00000000000E+00 -0.37203540349E+03  0.37203540349E+03  0.00000000000E+00 0. -1.
         25    1    1    2    0    0 -0.51634909726E+02 -0.91199075339E+02  0.24351079014E+03  0.29309715140E+03  0.12500000000E+03 0.  0.
         25    1    1    2    0    0 -0.17055646818E+03  0.78188759882E+02  0.10699936620E+03  0.24955331170E+03  0.12500000000E+03 0.  0.
         25    1    1    2    0    0  0.22219137791E+03  0.13010315457E+02 -0.21693311047E+03  0.33499738975E+03  0.12500000000E+03 0.  0.
</event>
<event>
 5    0  0.5572507E-005  0.3697205E+03  0.7546771E-02  0.1054800E+00
         21   -1    0    0  502  501  0.00000000000E+00  0.00000000000E+00  0.10142131341E+03  0.10142131341E+03  0.00000000000E+00 0.  1.
         21   -1    0    0  501  502 -0.00000000000E+00 -0.00000000000E+00 -0.13477762833E+04  0.13477762833E+04  0.00000000000E+00 0.  1.
         25    1    1    2    0    0 -0.10018070651E+03  0.11476679342E+03 -0.77517157380E+03  0.79982720613E+03  0.12500000000E+03 0.  0.
         25    1    1    2    0    0 -0.88902037414E+02  0.54915840783E+02 -0.15389760337E+03  0.22411781310E+03  0.12500000000E+03 0.  0.
         25    1    1    2    0    0  0.18908274392E+03 -0.16968263421E+03 -0.31728579270E+03  0.42525257748E+03  0.12500000000E+03 0.  0.
</event>
<event>
 5    0  0.5572507E-005  0.2954700E+03  0.7546771E-02  0.1087527E+00
         21   -1    0    0  502  501  0.00000000000E+00  0.00000000000E+00  0.21530881386E+03  0.21530881386E+03  0.00000000000E+00 0.  1.
         21   -1    0    0  501  502 -0.00000000000E+00 -0.00000000000E+00 -0.40547590476E+03  0.40547590476E+03  0.00000000000E+00 0.  1.
         25    1    1    2    0    0  0.10356014841E+03  0.67862097741E+01  0.26490573182E+02  0.16461320557E+03  0.12500000000E+03 0.  0.
         25    1    1    2    0    0 -0.93449758562E+02 -0.11831277337E+03 -0.21152398578E+03  0.28826752553E+03  0.12500000000E+03 0.  0.
         25    1    1    2    0    0 -0.10110389847E+02  0.11152656359E+03 -0.51336783085E+01  0.16790398751E+03  0.12500000000E+03 0.  0.
</event>
<event>
 5    0  0.5572507E-005  0.2090376E+03  0.7546771E-02  0.1142330E+00
         21   -1    0    0  502  501  0.00000000000E+00  0.00000000000E+00  0.10808822723E+04  0.10808822723E+04  0.00000000000E+00 0.  1.
         21   -1    0    0  501  502 -0.00000000000E+00 -0.00000000000E+00 -0.40426892313E+02  0.40426892313E+02  0.00000000000E+00 0.  1.
         25    1    1    2    0    0  0.69263842100E+02 -0.49197373103E+02  0.32507436941E+03  0.35849157171E+03  0.12500000000E+03 0.  0.
         25    1    1    2    0    0 -0.39211744628E+02  0.33907431144E+02  0.36929844704E+03  0.39331109543E+03  0.12500000000E+03 0.  0.
         25    1    1    2    0    0 -0.30052097472E+02  0.15289941959E+02  0.34608256358E+03  0.36950649751E+03  0.12500000000E+03 0.  0.
</event>
<event>
 5    0  0.5572507E-005  0.3668151E+03  0.7546771E-02  0.1055917E+00
         21   -1    0    0  502  501  0.00000000000E+00  0.00000000000E+00  0.10739133003E+03  0.10739133003E+03  0.00000000000E+00 0. -1.
         21   -1    0    0  501  502 -0.00000000000E+00 -0.00000000000E+00 -0.12529251745E+04  0.12529251745E+04  0.00000000000E+00 0. -1.
         25    1    1    2    0    0 -0.49896163001E+02  0.16557664863E+03 -0.34211763868E+03  0.40320557083E+03  0.12500000000E+03 0.  0.
         25    1    1    2    0    0  0.40834818489E+02 -0.29921491907E+03 -0.60078976239E+03  0.68393741584E+03  0.12500000000E+03 0.  0.
         25    1    1    2    0    0  0.90613445126E+01  0.13363827045E+03 -0.20262644339E+03  0.27317351785E+03  0.12500000000E+03 0.  0.
</event>
<event>
 5    0  0.5572507E-005  0.3241922E+03  0.7546771E-02  0.1073736E+00
         21   -1    0    0  502  501  0.00000000000E+00  0.00000000000E+00  0.48360814685E+03  0.48360814685E+03  0.00000000000E+00 0.  1.
         21   -1    0    0  501  502 -0.00000000000E+00 -0.00000000000E+00 -0.21732595742E+03  0.21732595742E+03  0.00000000000E+00 0.  1.
         25    1    1    2    0    0  0.10144956476E+03 -0.54651940580E+02  0.57137915638E+02  0.17935604312E+03  0.12500000000E+03 0.  0.
         25    1    1    2    0    0  0.48002365103E+01  0.58241206699E+02 -0.10079539778E+03  0.17087946817E+03  0.12500000000E+03 0.  0.
         25    1    1    2    0    0 -0.10624980127E+03 -0.35892661195E+01  0.30993967157E+03  0.35069859298E+03  0.12500000000E+03 0.  0.
</event>
<event>
 5    0  0.5792888E-005  0.2993752E+03  0.7546771E-02  0.1085553E+00
         21   -1    0    0  502  501  0.00000000000E+00  0.00000000000E+00  0.73330516463E+02  0.73330516463E+02  0.00000000000E+00 0. -1.
         21   -1    0    0  501  502 -0.00000000000E+00 -0.00000000000E+00 -0.12222127402E+04  0.12222127402E+04  0.00000000000E+00 0. -1.
         25    1    1    2    0    0  0.36758996364E+02 -0.80408284092E+02 -0.41341974315E+03  0.44086006850E+03  0.12500000000E+03 0.  0.
         25    1    1    2    0    0 -0.28635091411E+02  0.21383780262E+03 -0.47325082220E+03  0.53491860596E+03  0.12500000000E+03 0.  0.
         25    1    1    2    0    0 -0.81239049527E+01 -0.13342951852E+03 -0.26221165840E+03  0.31976458222E+03  0.12500000000E+03 0.  0.
</event>
<event>
 5    0  0.5572507E-005  0.4507032E+03  0.7546771E-02  0.1027513E+00
         21   -1    0    0  502  501  0.00000000000E+00  0.00000000000E+00  0.60071752795E+03  0.60071752795E+03  0.00000000000E+00 0. -1.
         21   -1    0    0  501  502 -0.00000000000E+00 -0.00000000000E+00 -0.33815125059E+03  0.33815125059E+03  0.00000000000E+00 0. -1.
         25    1    1    2    0    0  0.75341044821E+02 -0.10975233552E+02  0.28503153248E+03  0.32041333195E+03  0.12500000000E+03 0.  0.
         25    1    1    2    0    0  0.14972562137E+03 -0.20287665173E+03 -0.34636142791E+02  0.28355133557E+03  0.12500000000E+03 0.  0.
         25    1    1    2    0    0 -0.22506666619E+03  0.21385188529E+03  0.12170887680E+02  0.33490411102E+03  0.12500000000E+03 0.  0.
</event>
<event>
 5    0  0.5572507E-005  0.3858262E+03  0.7546771E-02  0.1048801E+00
         21   -1    0    0  502  501  0.00000000000E+00  0.00000000000E+00  0.23791453256E+03  0.23791453256E+03  0.00000000000E+00 0.  1.
         21   -1    0    0  501  502 -0.00000000000E+00 -0.00000000000E+00 -0.62569473914E+03  0.62569473914E+03  0.00000000000E+00 0.  1.
         25    1    1    2    0    0  0.20686609839E+03 -0.95984551255E+01 -0.35182417236E+03  0.42695545583E+03  0.12500000000E+03 0.  0.
         25    1    1    2    0    0  0.30334028510E+02 -0.18749556384E+01 -0.97385831527E+02  0.16134642521E+03  0.12500000000E+03 0.  0.
         25    1    1    2    0    0 -0.23720012690E+03  0.11473410764E+02  0.61429797319E+02  0.27530739067E+03  0.12500000000E+03 0.  0.
</event>
<event>
 5    0  0.5572507E-005  0.7684480E+03  0.7546771E-02  0.9606845E-01
         21   -1    0    0  502  501  0.00000000000E+00  0.00000000000E+00  0.22331547584E+04  0.22331547584E+04  0.00000000000E+00 0.  1.
         21   -1    0    0  501  502 -0.00000000000E+00 -0.00000000000E+00 -0.26442967829E+03  0.26442967829E+03  0.00000000000E+00 0.  1.
         25    1    1    2    0    0  0.74404778101E+02  0.19197480831E+02 -0.11365790448E+03  0.18560100626E+03  0.12500000000E+03 0.  0.
         25    1    1    2    0    0  0.47099358080E+02  0.37297038754E+03  0.16716086533E+04  0.17179131961E+04  0.12500000000E+03 0.  0.
         25    1    1    2    0    0 -0.12150413618E+03 -0.39216786837E+03  0.41077433130E+03  0.59407023436E+03  0.12500000000E+03 0.  0.
</event>
<event>
 5    0  0.5572507E-005  0.4681143E+03  0.7546771E-02  0.1022454E+00
         21   -1    0    0  502  501  0.00000000000E+00  0.00000000000E+00  0.11389209278E+03  0.11389209278E+03  0.00000000000E+00 0.  1.
         21   -1    0    0  501  502 -0.00000000000E+00 -0.00000000000E+00 -0.19240226611E+04  0.19240226611E+04  0.00000000000E+00 0.  1.
         25    1    1    2    0    0 -0.64180530576E+02 -0.19782945625E+03 -0.36076879958E+03  0.43478127952E+03  0.12500000000E+03 0.  0.
         25    1    1    2    0    0 -0.37294184645E+02  0.13133293648E+03 -0.14131406352E+04  0.14252124934E+04  0.12500000000E+03 0.  0.
         25    1    1    2    0    0  0.10147471522E+03  0.66496519764E+02 -0.36221133561E+02  0.17792098102E+03  0.12500000000E+03 0.  0.
</event>
<event>
 5    0  0.5572507E-005  0.2879137E+03  0.7546771E-02  0.1091443E+00
         21   -1    0    0  502  501  0.00000000000E+00  0.00000000000E+00  0.26274364834E+03  0.26274364834E+03  0.00000000000E+00 0.  1.
         21   -1    0    0  501  502 -0.00000000000E+00 -0.00000000000E+00 -0.31549491606E+03  0.31549491606E+03  0.00000000000E+00 0.  1.
         25    1    1    2    0    0  0.87225806036E+02 -0.12709984696E+03 -0.10321658008E+02  0.19873160031E+03  0.12500000000E+03 0.  0.
         25    1    1    2    0    0  0.20708919130E+02  0.15441588591E+03 -0.66207107052E+02  0.21043171381E+03  0.12500000000E+03 0.  0.
         25    1    1    2    0    0 -0.10793472517E+03 -0.27316038947E+02  0.23777497339E+02  0.16907525029E+03  0.12500000000E+03 0.  0.
</event>
<event>
 5    0  0.5676540E-005  0.2968895E+03  0.7546771E-02  0.1086806E+00
         21   -1    0    0  502  501  0.00000000000E+00  0.00000000000E+00  0.16712585374E+03  0.16712585374E+03  0.00000000000E+00 0. -1.
         21   -1    0    0  501  502 -0.00000000000E+00 -0.00000000000E+00 -0.52740729327E+03  0.52740729327E+03  0.00000000000E+00 0. -1.
         25    1    1    2    0    0  0.14214127476E+03 -0.17077442633E+02 -0.11833001952E+03  0.22388116169E+03  0.12500000000E+03 0.  0.
         25    1    1    2    0    0 -0.82193251222E+02  0.60917042425E+02 -0.27739331517E+03  0.32099636743E+03  0.12500000000E+03 0.  0.
         25    1    1    2    0    0 -0.59948023542E+02 -0.43839599792E+02  0.35441895158E+02  0.14965561790E+03  0.12500000000E+03 0.  0.
</event>
<event>
 5    0  0.5572507E-005  0.2808245E+03  0.7546771E-02  0.1095239E+00
         21   -1    0    0  502  501  0.00000000000E+00  0.00000000000E+00  0.46362283467E+03  0.46362283467E+03  0.00000000000E+00 0.  1.
         21   -1    0    0  501  502 -0.00000000000E+00 -0.00000000000E+00 -0.17010028930E+03  0.17010028930E+03  0.00000000000E+00 0.  1.
         25    1    1    2    0    0  0.47348413449E+02 -0.10102985875E+03  0.20279689928E+02  0.16877550308E+03  0.12500000000E+03 0.  0.
         25    1    1    2    0    0  0.30605257049E+02  0.87861137049E+02  0.18106586559E+01  0.15583497569E+03  0.12500000000E+03 0.  0.
         25    1    1    2    0    0 -0.77953670498E+02  0.13168721701E+02  0.27143219678E+03  0.30911264520E+03  0.12500000000E+03 0.  0.
</event>
<event>
 5    0  0.5572507E-005  0.2399637E+03  0.7546771E-02  0.1119817E+00
         21   -1    0    0  502  501  0.00000000000E+00  0.00000000000E+00  0.66478675803E+02  0.66478675803E+02  0.00000000000E+00 0.  1.
         21   -1    0    0  501  502 -0.00000000000E+00 -0.00000000000E+00 -0.86618081612E+03  0.86618081612E+03  0.00000000000E+00 0.  1.
         25    1    1    2    0    0 -0.47035912069E+02  0.19722692491E+02 -0.54242826182E+03  0.55897654767E+03  0.12500000000E+03 0.  0.
         25    1    1    2    0    0  0.53901973788E+02 -0.44249506447E+02 -0.14491838854E+03  0.20369040463E+03  0.12500000000E+03 0.  0.
         25    1    1    2    0    0 -0.68660617191E+01  0.24526813956E+02 -0.11235548996E+03  0.16999253963E+03  0.12500000000E+03 0.  0.
</event>
<event>
 5    0  0.5572507E-005  0.3013431E+03  0.7546771E-02  0.1084571E+00
         21   -1    0    0  502  501  0.00000000000E+00  0.00000000000E+00  0.55880157304E+02  0.55880157304E+02  0.00000000000E+00 0.  1.
         21   -1    0    0  501  502 -0.00000000000E+00 -0.00000000000E+00 -0.16250428705E+04  0.16250428705E+04  0.00000000000E+00 0.  1.
         25    1    1    2    0    0 -0.52104159158E+02 -0.17301194504E+03 -0.51382766076E+03  0.55883078073E+03  0.12500000000E+03 0.  0.
         25    1    1    2    0    0  0.13654299760E+03  0.12067757490E+03 -0.64375291548E+03  0.68062462743E+03  0.12500000000E+03 0.  0.
         25    1    1    2    0    0 -0.84438838444E+02  0.52334370136E+02 -0.41158213701E+03  0.44146761970E+03  0.12500000000E+03 0.  0.
</event>
<event>
 5    0  0.5572507E-005  0.2559092E+03  0.7546771E-02  0.1109626E+00
         21   -1    0    0  502  501  0.00000000000E+00  0.00000000000E+00  0.92378917780E+02  0.92378917780E+02  0.00000000000E+00 0.  1.
         21   -1    0    0  501  502 -0.00000000000E+00 -0.00000000000E+00 -0.70892257009E+03  0.70892257009E+03  0.00000000000E+00 0.  1.
         25    1    1    2    0    0 -0.39337757421E+02  0.67219926059E+01 -0.14912259115E+03  0.19863330922E+03  0.12500000000E+03 0.  0.
         25    1    1    2    0    0  0.10485599716E+03  0.11034738812E+03 -0.24883269877E+03  0.31735475131E+03  0.12500000000E+03 0.  0.
         25    1    1    2    0    0 -0.65518239738E+02 -0.11706938072E+03 -0.21858836240E+03  0.28531342734E+03  0.12500000000E+03 0.  0.
</event>
<event>
 5    0  0.5576836E-005  0.4017079E+03  0.7546771E-02  0.1043190E+00
         21   -1    0    0  502  501  0.00000000000E+00  0.00000000000E+00  0.12215179846E+04  0.12215179846E+04  0.00000000000E+00 0.  1.
         21   -1    0    0  501  502 -0.00000000000E+00 -0.00000000000E+00 -0.13210552298E+03  0.13210552298E+03  0.00000000000E+00 0.  1.
         25    1    1    2    0    0 -0.24513488589E+03 -0.50570585151E+02  0.53600067309E+03  0.60462403021E+03  0.12500000000E+03 0.  0.
         25    1    1    2    0    0  0.92306292767E+02  0.22616699248E+02 -0.39144974583E+01  0.15707415465E+03  0.12500000000E+03 0.  0.
         25    1    1    2    0    0  0.15282859312E+03  0.27953885904E+02  0.55732628598E+03  0.59192532270E+03  0.12500000000E+03 0.  0.
</event>
<event>
 5    0  0.5572507E-005  0.3517243E+03  0.7546771E-02  0.1061910E+00
         21   -1    0    0  502  501  0.00000000000E+00  0.00000000000E+00  0.58236485541E+02  0.58236485541E+02  0.00000000000E+00 0. -1.
         21   -1    0    0  501  502 -0.00000000000E+00 -0.00000000000E+00 -0.21242696043E+04  0.21242696043E+04  0.00000000000E+00 0. -1.
         25    1    1    2    0    0 -0.24823650034E+03  0.84116550185E+02 -0.56422019264E+03  0.63455998920E+03  0.12500000000E+03 0.  0.
         25    1    1    2    0    0  0.10734412504E+03 -0.45453181349E+02 -0.51644698573E+03  0.54399562677E+03  0.12500000000E+03 0.  0.
         25    1    1    2    0    0  0.14089237530E+03 -0.38663368837E+02 -0.98536594043E+03  0.10039504739E+04  0.12500000000E+03 0.  0.
</event>
<event>
 5    0  0.5572507E-005  0.2151099E+03  0.7546771E-02  0.1137582E+00
         21   -1    0    0  502  501  0.00000000000E+00  0.00000000000E+00  0.14108334385E+04  0.14108334385E+04  0.00000000000E+00 0. -1.
         21   -1    0    0  501  502 -0.00000000000E+00 -0.00000000000E+00 -0.32797817060E+02  0.32797817060E+02  0.00000000000E+00 0. -1.
         25    1    1    2    0    0 -0.45203931240E+02  0.54479087822E+02  0.48046480996E+03  0.50148060782E+03  0.12500000000E+03 0.  0.
         25    1    1    2    0    0 -0.36005475155E+02 -0.41540312609E+02  0.41057681099E+03  0.43268962264E+03  0.12500000000E+03 0.  0.
         25    1    1    2    0    0  0.81209406395E+02 -0.12938775214E+02  0.48699400053E+03  0.50946102515E+03  0.12500000000E+03 0.  0.
</event>
<event>
 5    0  0.5572507E-005  0.3488969E+03  0.7546771E-02  0.1063069E+00
         21   -1    0    0  502  501  0.00000000000E+00  0.00000000000E+00  0.65630960767E+03  0.65630960767E+03  0.00000000000E+00 0. -1.
         21   -1    0    0  501  502 -0.00000000000E+00 -0.00000000000E+00 -0.18547501121E+03  0.18547501121E+03  0.00000000000E+00 0. -1.
         25    1    1    2    0    0 -0.87365874671E+02 -0.54692039793E+02 -0.30422519341E+02  0.16484703503E+03  0.12500000000E+03 0.  0.
         25    1    1    2    0    0 -0.14198218326E+03  0.25947740393E+02  0.18648101331E+03  0.26689397505E+03  0.12500000000E+03 0.  0.
         25    1    1    2    0    0  0.22934805793E+03  0.28744299400E+02  0.31477610249E+03  0.41004360881E+03  0.12500000000E+03 0.  0.
</event>
<event>
 5    0  0.5572507E-005  0.2941680E+03  0.7546771E-02  0.1088193E+00
         21   -1    0    0  502  501  0.00000000000E+00  0.00000000000E+00  0.18937078247E+03  0.18937078247E+03  0.00000000000E+00 0.  1.
         21   -1    0    0  501  502 -0.00000000000E+00 -0.00000000000E+00 -0.45695982841E+03  0.45695982841E+03  0.00000000000E+00 0.  1.
         25    1    1    2    0    0 -0.85490466410E+02 -0.50613490806E+02 -0.83232776497E+02  0.18006398969E+03  0.12500000000E+03 0.  0.
         25    1    1    2    0    0 -0.11724406481E+03 -0.12633034796E+02 -0.27180556333E+02  0.17398145575E+03  0.12500000000E+03 0.  0.
         25    1    1    2    0    0  0.20273453122E+03  0.63246525602E+02 -0.15717571310E+03  0.29228516545E+03  0.12500000000E+03 0.  0.
</event>
<event>
 5    0  0.5572507E-005  0.5405058E+03  0.7546771E-02  0.1003716E+00
         21   -1    0    0  502  501  0.00000000000E+00  0.00000000000E+00  0.58395638095E+03  0.58395638095E+03  0.00000000000E+00 0. -1.
         21   -1    0    0  501  502 -0.00000000000E+00 -0.00000000000E+00 -0.50028818769E+03  0.50028818769E+03  0.00000000000E+00 0. -1.
         25    1    1    2    0    0 -0.94330742899E+02  0.11158884948E+03 -0.15091818328E+03  0.24444152354E+03  0.12500000000E+03 0.  0.
         25    1    1    2    0    0  0.62328197205E+02  0.32077057124E+03  0.15037134402E+03  0.38080848814E+03  0.12500000000E+03 0.  0.
         25    1    1    2    0    0  0.32002545694E+02 -0.43235942071E+03  0.84215032518E+02  0.45899455695E+03  0.12500000000E+03 0.  0.
</event>
<event>
 5    0  0.5572507E-005  0.2879223E+03  0.7546771E-02  0.1091439E+00
         21   -1    0    0  502  501  0.00000000000E+00  0.00000000000E+00  0.85986204549E+02  0.85986204549E+02  0.00000000000E+00 0.  1.
         21   -1    0    0  501  502 -0.00000000000E+00 -0.00000000000E+00 -0.96409933375E+03  0.96409933375E+03  0.00000000000E+00 0.  1.
         25    1    1    2    0    0  0.12313126390E+03  0.89438857453E+02 -0.25393057141E+03  0.32135082460E+03  0.12500000000E+03 0.  0.
         25    1    1    2    0    0 -0.14427439934E+03 -0.10522681165E+03 -0.24165755091E+03  0.32543994240E+03  0.12500000000E+03 0.  0.
         25    1    1    2    0    0  0.21143135450E+02  0.15787954197E+02 -0.38252500688E+03  0.40329477131E+03  0.12500000000E+03 0.  0.
</event>
<event>
 5    0  0.5572507E-005  0.3271606E+03  0.7546771E-02  0.1072400E+00
         21   -1    0    0  502  501  0.00000000000E+00  0.00000000000E+00  0.11975484487E+03  0.11975484487E+03  0.00000000000E+00 0.  1.
         21   -1    0    0  501  502 -0.00000000000E+00 -0.00000000000E+00 -0.89377669909E+03  0.89377669909E+03  0.00000000000E+00 0.  1.
         25    1    1    2    0    0 -0.11866847514E+03 -0.10750776408E+03 -0.33550140668E+03  0.39220698644E+03  0.12500000000E+03 0.  0.
         25    1    1    2    0    0  0.12983276238E+03  0.31807924938E+02 -0.43807140528E+03  0.47476293705E+03  0.12500000000E+03 0.  0.
         25    1    1    2    0    0 -0.11164287246E+02  0.75699839137E+02 -0.44904226394E+00  0.14656162047E+03  0.12500000000E+03 0.  0.
</event>
<event>
 5    0  0.5572507E-005  0.4098125E+03  0.7546771E-02  0.1040434E+00
         21   -1    0    0  502  501  0.00000000000E+00  0.00000000000E+00  0.30547445544E+03  0.30547445544E+03  0.00000000000E+00 0. -1.
         21   -1    0    0  501  502 -0.00000000000E+00 -0.00000000000E+00 -0.54978840990E+03  0.54978840990E+03  0.00000000000E+00 0. -1.
         25    1    1    2    0    0  0.76419919620E+02 -0.22719462130E+03  0.12776121527E+03  0.29900723768E+03  0.12500000000E+03 0.  0.
         25    1    1    2    0    0 -0.41515305043E+02  0.24510398490E+03 -0.21450993357E+03  0.35133886145E+03  0.12500000000E+03 0.  0.
         25    1    1    2    0    0 -0.34904614577E+02 -0.17909363607E+02 -0.15756523616E+03  0.20491676620E+03  0.12500000000E+03 0.  0.
</event>
<event>
 5    0  0.5572507E-005  0.2853228E+03  0.7546771E-02  0.1092817E+00
         21   -1    0    0  502  501  0.00000000000E+00  0.00000000000E+00  0.60680479637E+03  0.60680479637E+03  0.00000000000E+00 0.  1.
         21   -1    0    0  501  502 -0.00000000000E+00 -0.00000000000E+00 -0.13416030071E+03  0.13416030071E+03  0.00000000000E+00 0.  1.
         25    1    1    2    0    0 -0.24673486092E+02  0.65305742441E+02  0.16978996869E+03  0.22209739841E+03  0.12500000000E+03 0.  0.
         25    1    1    2    0    0  0.88503200683E+02  0.11289588657E+03  0.10200374325E+03  0.21588900244E+03  0.12500000000E+03 0.  0.
         25    1    1    2    0    0 -0.63829714592E+02 -0.17820162901E+03  0.20085078372E+03  0.30297869623E+03  0.12500000000E+03 0.  0.
</event>
<event>
 5    0  0.5572507E-005  0.2309240E+03  0.7546771E-02  0.1125991E+00
         21   -1    0    0  502  501  0.00000000000E+00  0.00000000000E+00  0.25477188917E+03  0.25477188917E+03  0.00000000000E+00 0.  1.
         21   -1    0    0  501  502 -0.00000000000E+00 -0.00000000000E+00 -0.20930834303E+03  0.20930834303E+03  0.00000000000E+00 0.  1.
         25    1    1    2    0    0  0.62090969072E+02 -0.95848105127E+02  0.57013456347E+02  0.17865520396E+03  0.12500000000E+03 0.  0.
         25    1    1    2    0    0 -0.69748867559E+02  0.56334245397E+02 -0.37956976370E+01  0.15387611592E+03  0.12500000000E+03 0.  0.
         25    1    1    2    0    0  0.76578984870E+01  0.39513859729E+02 -0.77542125689E+01  0.13154891232E+03  0.12500000000E+03 0.  0.
</event>
<event>
 5    0  0.5572507E-005  0.3596130E+03  0.7546771E-02  0.1058737E+00
         21   -1    0    0  502  501  0.00000000000E+00  0.00000000000E+00  0.18547156201E+03  0.18547156201E+03  0.00000000000E+00 0. -1.
         21   -1    0    0  501  502 -0.00000000000E+00 -0.00000000000E+00 -0.69725787098E+03  0.69725787098E+03  0.00000000000E+00 0. -1.
         25    1    1    2    0    0  0.92381170888E+02  0.30019629005E+02 -0.31516251376E+03  0.35268664412E+03  0.12500000000E+03 0.  0.
         25    1    1    2    0    0  0.10739389567E+03  0.92535555478E+01 -0.23591599319E+03  0.28792435284E+03  0.12500000000E+03 0.  0.
         25    1    1    2    0    0 -0.19977506656E+03 -0.39273184553E+02  0.39292197986E+02  0.24211843603E+03  0.12500000000E+03 0.  0.
</event>
<event>
 5    0  0.5572507E-005  0.3317117E+03  0.7546771E-02  0.1070382E+00
         21   -1    0    0  502  501  0.00000000000E+00  0.00000000000E+00  0.79384092794E+03  0.79384092794E+03  0.00000000000E+00 0.  1.
         21   -1    0    0  501  502 -0.00000000000E+00 -0.00000000000E+00 -0.13860795718E+03  0.13860795718E+03  0.00000000000E+00 0.  1.
         25    1    1    2    0    0  0.10946936266E+03 -0.17535309401E+03  0.49664489768E+03  0.55228018553E+03  0.12500000000E+03 0.  0.
         25    1    1    2    0    0 -0.15356560116E+02  0.28269699253E+02  0.77930319441E+02  0.15077511241E+03  0.12500000000E+03 0.  0.
         25    1    1    2    0    0 -0.94112802545E+02  0.14708339476E+03  0.80657753643E+02  0.22939358718E+03  0.12500000000E+03 0.  0.
</event>
<event>
 5    0  0.5572507E-005  0.2386797E+03  0.7546771E-02  0.1120676E+00
         21   -1    0    0  502  501  0.00000000000E+00  0.00000000000E+00  0.33946870479E+03  0.33946870479E+03  0.00000000000E+00 0.  1.
         21   -1    0    0  501  502 -0.00000000000E+00 -0.00000000000E+00 -0.16781513524E+03  0.16781513524E+03  0.00000000000E+00 0.  1.
         25    1    1    2    0    0 -0.96958766391E+02 -0.70321809270E+01  0.15061330244E+03  0.21854020413E+03  0.12500000000E+03 0.  0.
         25    1    1    2    0    0  0.36816185402E+02  0.18822492664E+02 -0.38729128815E+02  0.13723943732E+03  0.12500000000E+03 0.  0.
         25    1    1    2    0    0  0.60142580989E+02 -0.11790311737E+02  0.59769395930E+02  0.15150419858E+03  0.12500000000E+03 0.  0.
</event>
<event>
 5    0  0.5572507E-005  0.3558272E+03  0.7546771E-02  0.1060248E+00
         21   -1    0    0  502  501  0.00000000000E+00  0.00000000000E+00  0.16817199641E+03  0.16817199641E+03  0.00000000000E+00 0.  1.
         21   -1    0    0  501  502 -0.00000000000E+00 -0.00000000000E+00 -0.75287812091E+03  0.75287812091E+03  0.00000000000E+00 0.  1.
         25    1    1    2    0    0 -0.13220403713E+03  0.20883163847E+02 -0.13402686231E+03  0.22694099186E+03  0.12500000000E+03 0.  0.
         25    1    1    2    0    0  0.70339309586E+02  0.20791730920E+03 -0.27654910660E+03  0.37454189926E+03  0.12500000000E+03 0.  0.
         25    1    1    2    0    0  0.61864727544E+02 -0.22880047304E+03 -0.17413015558E+03  0.31956722620E+03  0.12500000000E+03 0.  0.
</event>
<event>
 5    0  0.5572507E-005  0.5779985E+03  0.7546771E-02  0.9952134E-01
         21   -1    0    0  502  501  0.00000000000E+00  0.00000000000E+00  0.34794598778E+03  0.34794598778E+03  0.00000000000E+00 0.  1.
         21   -1    0    0  501  502 -0.00000000000E+00 -0.00000000000E+00 -0.96015569655E+03  0.96015569655E+03  0.00000000000E+00 0.  1.
         25    1    1    2    0    0 -0.12832366728E+03 -0.35224547112E+03 -0.19837700910E+03  0.44217900588E+03  0.12500000000E+03 0.  0.
         25    1    1    2    0    0 -0.15020101693E+03  0.22535497062E+03  0.43678155441E+02  0.30145976437E+03  0.12500000000E+03 0.  0.
         25    1    1    2    0    0  0.27852468421E+03  0.12689050050E+03 -0.45751085511E+03  0.56446291408E+03  0.12500000000E+03 0.  0.
</event>
<event>
 5    0  0.5572507E-005  0.3556928E+03  0.7546771E-02  0.1060302E+00
         21   -1    0    0  502  501  0.00000000000E+00  0.00000000000E+00  0.59353498123E+02  0.59353498123E+02  0.00000000000E+00 0.  1.
         21   -1    0    0  501  502 -0.00000000000E+00 -0.00000000000E+00 -0.21315906359E+04  0.21315906359E+04  0.00000000000E+00 0.  1.
         25    1    1    2    0    0  0.20965424069E+03  0.10847793040E+03 -0.63791386982E+03  0.69157896681E+03  0.12500000000E+03 0.  0.
         25    1    1    2    0    0 -0.23379643732E+03 -0.11100918254E+03 -0.74779878338E+03  0.80113159539E+03  0.12500000000E+03 0.  0.
         25    1    1    2    0    0  0.24142196635E+02  0.25312521388E+01 -0.68652448462E+03  0.69823357186E+03  0.12500000000E+03 0.  0.
</event>
<event>
 5    0  0.5572507E-005  0.2748076E+03  0.7546771E-02  0.1098559E+00
         21   -1    0    0  502  501  0.00000000000E+00  0.00000000000E+00  0.81628118038E+02  0.81628118038E+02  0.00000000000E+00 0. -1.
         21   -1    0    0  501  502 -0.00000000000E+00 -0.00000000000E+00 -0.92516186810E+03  0.92516186810E+03  0.00000000000E+00 0. -1.
         25    1    1    2    0    0 -0.11677710134E+03  0.75095361645E+02 -0.40299585795E+03  0.44419237528E+03  0.12500000000E+03 0.  0.
         25    1    1    2    0    0  0.81700370872E+02  0.13597016826E+02 -0.81558163996E+02  0.17069435721E+03  0.12500000000E+03 0.  0.
         25    1    1    2    0    0  0.35076730473E+02 -0.88692378471E+02 -0.35897972812E+03  0.39190325364E+03  0.12500000000E+03 0.  0.
</event>
<event>
 5    0  0.5572507E-005  0.2840369E+03  0.7546771E-02  0.1093504E+00
         21   -1    0    0  502  501  0.00000000000E+00  0.00000000000E+00  0.35105766787E+03  0.35105766787E+03  0.00000000000E+00 0.  1.
         21   -1    0    0  501  502 -0.00000000000E+00 -0.00000000000E+00 -0.22981106060E+03  0.22981106060E+03  0.00000000000E+00 0.  1.
         25    1    1    2    0    0 -0.31960424286E+02  0.33338484097E+02 -0.62619425738E+02  0.14723829571E+03  0.12500000000E+03 0.  0.
         25    1    1    2    0    0  0.77270666842E+02 -0.14789014505E+03  0.14478949163E+03  0.25383311022E+03  0.12500000000E+03 0.  0.
         25    1    1    2    0    0 -0.45310242556E+02  0.11455166095E+03  0.39076541384E+02  0.17979732254E+03  0.12500000000E+03 0.  0.
</event>
<event>
 5    0  0.5572507E-005  0.2590363E+03  0.7546771E-02  0.1107724E+00
         21   -1    0    0  502  501  0.00000000000E+00  0.00000000000E+00  0.84016395559E+02  0.84016395559E+02  0.00000000000E+00 0. -1.
         21   -1    0    0  501  502 -0.00000000000E+00 -0.00000000000E+00 -0.79865153246E+03  0.79865153246E+03  0.00000000000E+00 0. -1.
         25    1    1    2    0    0  0.11038269700E+03  0.51164291336E+02 -0.37707676512E+03  0.41546842395E+03  0.12500000000E+03 0.  0.
         25    1    1    2    0    0  0.63203885157E+01  0.31699255084E+01 -0.65504395499E+02  0.14130046556E+03  0.12500000000E+03 0.  0.
         25    1    1    2    0    0 -0.11670308552E+03 -0.54334216844E+02 -0.27205397628E+03  0.32589903851E+03  0.12500000000E+03 0.  0.
</event>
<event>
 5    0  0.5572507E-005  0.4471613E+03  0.7546771E-02  0.1028572E+00
         21   -1    0    0  502  501  0.00000000000E+00  0.00000000000E+00  0.12458930814E+03  0.12458930814E+03  0.00000000000E+00 0.  1.
         21   -1    0    0  501  502 -0.00000000000E+00 -0.00000000000E+00 -0.16048990157E+04  0.16048990157E+04  0.00000000000E+00 0.  1.
         25    1    1    2    0    0 -0.27274536545E+03 -0.17976323226E+03 -0.26736332631E+03  0.44024198153E+03  0.12500000000E+03 0.  0.
         25    1    1    2    0    0  0.15356671159E+03  0.15695274719E+02 -0.53820587049E+03  0.57368949405E+03  0.12500000000E+03 0.  0.
         25    1    1    2    0    0  0.11917865386E+03  0.16406795754E+03 -0.67474051077E+03  0.71555684826E+03  0.12500000000E+03 0.  0.
</event>
<event>
 5    0  0.5572507E-005  0.2168017E+03  0.7546771E-02  0.1136290E+00
         21   -1    0    0  502  501  0.00000000000E+00  0.00000000000E+00  0.11510610499E+04  0.11510610499E+04  0.00000000000E+00 0. -1.
         21   -1    0    0  501  502 -0.00000000000E+00 -0.00000000000E+00 -0.40834484487E+02  0.40834484487E+02  0.00000000000E+00 0. -1.
         25    1    1    2    0    0 -0.34777791746E+02  0.33157684578E+02  0.44291978753E+03  0.46272223312E+03  0.12500000000E+03 0.  0.
         25    1    1    2    0    0  0.55096163089E+02  0.13047058593E+02  0.19810898215E+03  0.24099373795E+03  0.12500000000E+03 0.  0.
         25    1    1    2    0    0 -0.20318371343E+02 -0.46204743171E+02  0.46919779570E+03  0.48817956327E+03  0.12500000000E+03 0.  0.
</event>
<event>
 5    0  0.5572507E-005  0.4245769E+03  0.7546771E-02  0.1035587E+00
         21   -1    0    0  502  501  0.00000000000E+00  0.00000000000E+00  0.23731983610E+03  0.23731983610E+03  0.00000000000E+00 0. -1.
         21   -1    0    0  501  502 -0.00000000000E+00 -0.00000000000E+00 -0.75958908295E+03  0.75958908295E+03  0.00000000000E+00 0. -1.
         25    1    1    2    0    0 -0.86354077158E+02  0.26560963252E+03 -0.45979866920E+03  0.55230907988E+03  0.12500000000E+03 0.  0.
         25    1    1    2    0    0  0.14670665570E+03 -0.94521091099E+02  0.32479134631E+01  0.21469193844E+03  0.12500000000E+03 0.  0.
         25    1    1    2    0    0 -0.60352578541E+02 -0.17108854142E+03 -0.65718491119E+02  0.22990790073E+03  0.12500000000E+03 0.  0.
</event>
<event>
 5    0  0.5572507E-005  0.2304130E+03  0.7546771E-02  0.1126349E+00
         21   -1    0    0  502  501  0.00000000000E+00  0.00000000000E+00  0.40068507005E+03  0.40068507005E+03  0.00000000000E+00 0. -1.
         21   -1    0    0  501  502 -0.00000000000E+00 -0.00000000000E+00 -0.13249847714E+03  0.13249847714E+03  0.00000000000E+00 0. -1.
         25    1    1    2    0    0 -0.24907335635E+02  0.31414748465E+02  0.76547858551E+01  0.13149470535E+03  0.12500000000E+03 0.  0.
         25    1    1    2    0    0  0.86825838979E+02 -0.26851699498E+02  0.19119180122E+03  0.24584353751E+03  0.12500000000E+03 0.  0.
         25    1    1    2    0    0 -0.61918503344E+02 -0.45630489673E+01  0.69340005841E+02  0.15584530433E+03  0.12500000000E+03 0.  0.
</event>
<event>
 5    0  0.5572507E-005  0.4125151E+03  0.7546771E-02  0.1039530E+00
         21   -1    0    0  502  501  0.00000000000E+00  0.00000000000E+00  0.17464141815E+03  0.17464141815E+03  0.00000000000E+00 0.  1.
         21   -1    0    0  501  502 -0.00000000000E+00 -0.00000000000E+00 -0.97438932333E+03  0.97438932333E+03  0.00000000000E+00 0.  1.
         25    1    1    2    0    0 -0.26548923023E+03 -0.69376761956E+02 -0.10505947565E+03  0.31931201025E+03  0.12500000000E+03 0.  0.
         25    1    1    2    0    0  0.24299957643E+03 -0.49515011674E+02 -0.46440027929E+03  0.54110364066E+03  0.12500000000E+03 0.  0.
         25    1    1    2    0    0  0.22489653802E+02  0.11889177363E+03 -0.23028815024E+03  0.28861509057E+03  0.12500000000E+03 0.  0.
</event>
<event>
 5    0  0.6917297E-005  0.2757620E+03  0.7546771E-02  0.1098026E+00
         21   -1    0    0  502  501  0.00000000000E+00  0.00000000000E+00  0.56613502274E+03  0.56613502274E+03  0.00000000000E+00 0.  1.
         21   -1    0    0  501  502 -0.00000000000E+00 -0.00000000000E+00 -0.13432249890E+03  0.13432249890E+03  0.00000000000E+00 0.  1.
         25    1    1    2    0    0 -0.82449140501E+02 -0.57647894096E+01  0.17856457589E+02  0.15091370595E+03  0.12500000000E+03 0.  0.
         25    1    1    2    0    0  0.13455506399E+03 -0.60871864177E+02  0.31295516823E+03  0.36793530194E+03  0.12500000000E+03 0.  0.
         25    1    1    2    0    0 -0.52105923485E+02  0.66636653587E+02  0.10100089802E+03  0.18160851374E+03  0.12500000000E+03 0.  0.
</event>
<event>
 5    0  0.5572507E-005  0.3785397E+03  0.7546771E-02  0.1051475E+00
         21   -1    0    0  502  501  0.00000000000E+00  0.00000000000E+00  0.43365396691E+03  0.43365396691E+03  0.00000000000E+00 0.  1.
         21   -1    0    0  501  502 -0.00000000000E+00 -0.00000000000E+00 -0.33043004447E+03  0.33043004447E+03  0.00000000000E+00 0.  1.
         25    1    1    2    0    0  0.17744347860E+03 -0.14216411368E+03  0.33409951704E+02  0.26160666694E+03  0.12500000000E+03 0.  0.
         25    1    1    2    0    0 -0.28590587857E+02 -0.76948399670E+02 -0.84127897020E+02  0.17158374335E+03  0.12500000000E+03 0.  0.
         25    1    1    2    0    0 -0.14885289074E+03  0.21911251335E+03  0.15394186775E+03  0.33089360108E+03  0.12500000000E+03 0.  0.
</event>
<event>
 5    0  0.5572507E-005  0.3775084E+03  0.7546771E-02  0.1051859E+00
         21   -1    0    0  502  501  0.00000000000E+00  0.00000000000E+00  0.47849921222E+03  0.47849921222E+03  0.00000000000E+00 0. -1.
         21   -1    0    0  501  502 -0.00000000000E+00 -0.00000000000E+00 -0.29783250794E+03  0.29783250794E+03  0.00000000000E+00 0. -1.
         25    1    1    2    0    0 -0.12723149547E+03  0.24446128578E+02 -0.59651402460E+01  0.18012786997E+03  0.12500000000E+03 0.  0.
         25    1    1    2    0    0  0.31011431324E+03  0.34892415963E+02  0.12581604289E+03  0.35894713346E+03  0.12500000000E+03 0.  0.
         25    1    1    2    0    0 -0.18288281777E+03 -0.59338544541E+02  0.60815801642E+02  0.23725671673E+03  0.12500000000E+03 0.  0.
</event>
<event>
 5    0  0.5572507E-005  0.3319798E+03  0.7546771E-02  0.1070264E+00
         21   -1    0    0  502  501  0.00000000000E+00  0.00000000000E+00  0.17395268379E+04  0.17395268379E+04  0.00000000000E+00 0. -1.
         21   -1    0    0  501  502 -0.00000000000E+00 -0.00000000000E+00 -0.63356646763E+02  0.63356646763E+02  0.00000000000E+00 0. -1.
         25    1    1    2    0    0  0.13279797541E+03 -0.22548988002E+03  0.71378125683E+03  0.77044770807E+03  0.12500000000E+03 0.  0.
         25    1    1    2    0    0 -0.10578269301E+03  0.10425627155E+03  0.43399123904E+03  0.47542901033E+03  0.12500000000E+03 0.  0.
         25    1    1    2    0    0 -0.27015282394E+02  0.12123360847E+03  0.52839769523E+03  0.55700676623E+03  0.12500000000E+03 0.  0.
</event>
<event>
 5    0  0.5572507E-005  0.4701827E+03  0.7546771E-02  0.1021869E+00
         21   -1    0    0  502  501  0.00000000000E+00  0.00000000000E+00  0.15904470710E+03  0.15904470710E+03  0.00000000000E+00 0.  1.
         21   -1    0    0  501  502 -0.00000000000E+00 -0.00000000000E+00 -0.13899976910E+04  0.13899976910E+04  0.00000000000E+00 0.  1.
         25    1    1    2    0    0  0.78623797643E+02 -0.85257771730E+02 -0.18065809437E+02  0.17147000515E+03  0.12500000000E+03 0.  0.
         25    1    1    2    0    0 -0.29914512195E+03  0.16979357491E+03 -0.52830343437E+03  0.64268746746E+03  0.12500000000E+03 0.  0.
         25    1    1    2    0    0  0.22052132431E+03 -0.84535803177E+02 -0.68458374005E+03  0.73488492544E+03  0.12500000000E+03 0.  0.
</event>
<event>
 5    0  0.5572507E-005  0.2198672E+03  0.7546771E-02  0.1133982E+00
         21   -1    0    0  502  501  0.00000000000E+00  0.00000000000E+00  0.49854345409E+03  0.49854345409E+03  0.00000000000E+00 0. -1.
         21   -1    0    0  501  502 -0.00000000000E+00 -0.00000000000E+00 -0.96965647841E+02  0.96965647841E+02  0.00000000000E+00 0. -1.
         25    1    1    2    0    0 -0.79119065787E+02  0.64716280355E+01  0.72656283229E+02  0.16494133513E+03  0.12500000000E+03 0.  0.
         25    1    1    2    0    0  0.26537079795E+02 -0.46628854326E+02  0.17266736668E+03  0.21981238859E+03  0.12500000000E+03 0.  0.
         25    1    1    2    0    0  0.52581985992E+02  0.40157226290E+02  0.15625415633E+03  0.21075537821E+03  0.12500000000E+03 0.  0.
</event>
<event>
 5    0  0.5572507E-005  0.3974528E+03  0.7546771E-02  0.1044665E+00
         21   -1    0    0  502  501  0.00000000000E+00  0.00000000000E+00  0.11595070498E+04  0.11595070498E+04  0.00000000000E+00 0. -1.
         21   -1    0    0  501  502 -0.00000000000E+00 -0.00000000000E+00 -0.13623781657E+03  0.13623781657E+03  0.00000000000E+00 0. -1.
         25    1    1    2    0    0  0.10726621882E+03  0.62435687192E+02  0.21636615049E+03  0.27900460177E+03  0.12500000000E+03 0.  0.
         25    1    1    2    0    0  0.11672470702E+03  0.18742141098E+03  0.26209173156E+03  0.36478557849E+03  0.12500000000E+03 0.  0.
         25    1    1    2    0    0 -0.22399092584E+03 -0.24985709817E+03  0.54481135123E+03  0.65195468616E+03  0.12500000000E+03 0.  0.
</event>
<event>
 5    0  0.5572507E-005  0.3348283E+03  0.7546771E-02  0.1069020E+00
         21   -1    0    0  502  501  0.00000000000E+00  0.00000000000E+00  0.12904139032E+04  0.12904139032E+04  0.00000000000E+00 0. -1.
         21   -1    0    0  501  502 -0.00000000000E+00 -0.00000000000E+00 -0.86879116022E+02  0.86879116022E+02  0.00000000000E+00 0. -1.
         25    1    1    2    0    0 -0.16336237324E+03  0.12691573601E+03  0.26995034493E+03  0.36234383914E+03  0.12500000000E+03 0.  0.
         25    1    1    2    0    0 -0.37169881476E+02 -0.23604881459E+01  0.33347817058E+03  0.35807801140E+03  0.12500000000E+03 0.  0.
         25    1    1    2    0    0  0.20053225472E+03 -0.12455524786E+03  0.60010627166E+03  0.65687116868E+03  0.12500000000E+03 0.  0.
</event>
<event>
 5    0  0.6274932E-005  0.3199136E+03  0.7546771E-02  0.1075689E+00
         21   -1    0    0  502  501  0.00000000000E+00  0.00000000000E+00  0.18588283036E+03  0.18588283036E+03  0.00000000000E+00 0. -1.
         21   -1    0    0  501  502 -0.00000000000E+00 -0.00000000000E+00 -0.55058725270E+03  0.55058725270E+03  0.00000000000E+00 0. -1.
         25    1    1    2    0    0 -0.98225268468E+02  0.99600218776E+02 -0.38580826899E+02  0.19152516062E+03  0.12500000000E+03 0.  0.
         25    1    1    2    0    0  0.16198042079E+03 -0.50225282472E+02 -0.28999657951E+02  0.21266456188E+03  0.12500000000E+03 0.  0.
         25    1    1    2    0    0 -0.63755152326E+02 -0.49374936303E+02 -0.29712393749E+03  0.33228036056E+03  0.12500000000E+03 0.  0.
</event>
<event>
 5    0  0.5572507E-005  0.2462243E+03  0.7546771E-02  0.1115714E+00
         21   -1    0    0  502  501  0.00000000000E+00  0.00000000000E+00  0.88521861855E+02  0.88521861855E+02  0.00000000000E+00 0.  1.
         21   -1    0    0  501  502 -0.00000000000E+00 -0.00000000000E+00 -0.68487489043E+03  0.68487489043E+03  0.00000000000E+00 0.  1.
         25    1    1    2    0    0  0.20327934148E+01  0.10504983494E+03 -0.12097836304E+03  0.20322491086E+03  0.12500000000E+03 0.  0.
         25    1    1    2    0    0  0.71656105171E+01 -0.13077600281E+03 -0.22322783161E+03  0.28741846443E+03  0.12500000000E+03 0.  0.
         25    1    1    2    0    0 -0.91984039319E+01  0.25726167873E+02 -0.25214683392E+03  0.28275337700E+03  0.12500000000E+03 0.  0.
</event>
<event>
 5    0  0.5572507E-005  0.3307458E+03  0.7546771E-02  0.1070807E+00
         21   -1    0    0  502  501  0.00000000000E+00  0.00000000000E+00  0.25752480952E+03  0.25752480952E+03  0.00000000000E+00 0.  1.
         21   -1    0    0  501  502 -0.00000000000E+00 -0.00000000000E+00 -0.42478543328E+03  0.42478543328E+03  0.00000000000E+00 0.  1.
         25    1    1    2    0    0 -0.56733445097E+02  0.51643009599E+02 -0.73151354144E+02  0.16389571332E+03  0.12500000000E+03 0.  0.
         25    1    1    2    0    0  0.22558297948E+03 -0.49595106931E+02 -0.14808405888E+03  0.30149833127E+03  0.12500000000E+03 0.  0.
         25    1    1    2    0    0 -0.16884953438E+03 -0.20479026688E+01  0.53974789263E+02  0.21691619820E+03  0.12500000000E+03 0.  0.
</event>
<event>
 5    0  0.5572507E-005  0.2625558E+03  0.7546771E-02  0.1105617E+00
         21   -1    0    0  502  501  0.00000000000E+00  0.00000000000E+00  0.26661489058E+03  0.26661489058E+03  0.00000000000E+00 0.  1.
         21   -1    0    0  501  502 -0.00000000000E+00 -0.00000000000E+00 -0.25855841174E+03  0.25855841174E+03  0.00000000000E+00 0.  1.
         25    1    1    2    0    0  0.45621269740E+02 -0.33953448746E+02  0.84609723147E+02  0.16130078173E+03  0.12500000000E+03 0.  0.
         25    1    1    2    0    0 -0.11579728929E+02  0.92225669945E+02 -0.13893106582E+03  0.20872590968E+03  0.12500000000E+03 0.  0.
         25    1    1    2    0    0 -0.34041540811E+02 -0.58272221199E+02  0.62377821516E+02  0.15514661092E+03  0.12500000000E+03 0.  0.
</event>
<event>
 5    0  0.5572507E-005  0.3336314E+03  0.7546771E-02  0.1069541E+00
         21   -1    0    0  502  501  0.00000000000E+00  0.00000000000E+00  0.32758733382E+03  0.32758733382E+03  0.00000000000E+00 0. -1.
         21   -1    0    0  501  502 -0.00000000000E+00 -0.00000000000E+00 -0.33978692341E+03  0.33978692341E+03  0.00000000000E+00 0. -1.
         25    1    1    2    0    0  0.11145296461E+03  0.75900690904E+02  0.50041404481E+02  0.19055660671E+03  0.12500000000E+03 0.  0.
         25    1    1    2    0    0  0.85972321487E+02 -0.16175695526E+03 -0.51345491431E+02  0.22763548081E+03  0.12500000000E+03 0.  0.
         25    1    1    2    0    0 -0.19742528610E+03  0.85856264352E+02 -0.10895502642E+02  0.24918216970E+03  0.12500000000E+03 0.  0.
</event>
<event>
 5    0  0.5911755E-005  0.3163790E+03  0.7546771E-02  0.1077328E+00
         21   -1    0    0  502  501  0.00000000000E+00  0.00000000000E+00  0.80360949128E+03  0.80360949128E+03  0.00000000000E+00 0. -1.
         21   -1    0    0  501  502 -0.00000000000E+00 -0.00000000000E+00 -0.12455763142E+03  0.12455763142E+03  0.00000000000E+00 0. -1.
         25    1    1    2    0    0  0.12595200827E+02 -0.11087091175E+02  0.38515634372E+03  0.40528011521E+03  0.12500000000E+03 0.  0.
         25    1    1    2    0    0 -0.90964209184E+02  0.14727042233E+03  0.76112481002E+02  0.22667415911E+03  0.12500000000E+03 0.  0.
         25    1    1    2    0    0  0.78369008357E+02 -0.13618333115E+03  0.21778303513E+03  0.29621284838E+03  0.12500000000E+03 0.  0.
</event>
<event>
 5    0  0.5572507E-005  0.5673714E+03  0.7546771E-02  0.9975512E-01
         21   -1    0    0  502  501  0.00000000000E+00  0.00000000000E+00  0.65829348921E+03  0.65829348921E+03  0.00000000000E+00 0. -1.
         21   -1    0    0  501  502 -0.00000000000E+00 -0.00000000000E+00 -0.48900730670E+03  0.48900730670E+03  0.00000000000E+00 0. -1.
         25    1    1    2    0    0  0.91515113913E+02 -0.34516860057E+02 -0.74467136119E+02  0.17531909213E+03  0.12500000000E+03 0.  0.
         25    1    1    2    0    0 -0.29266717628E+02 -0.69499882209E+02  0.57743364441E+03  0.59560170255E+03  0.12500000000E+03 0.  0.
         25    1    1    2    0    0 -0.62248396284E+02  0.10401674227E+03 -0.33368032578E+03  0.37638000123E+03  0.12500000000E+03 0.  0.
</event>
<event>
 5    0  0.5572507E-005  0.3479262E+03  0.7546771E-02  0.1063469E+00
         21   -1    0    0  502  501  0.00000000000E+00  0.00000000000E+00  0.13657285338E+04  0.13657285338E+04  0.00000000000E+00 0.  1.
         21   -1    0    0  501  502 -0.00000000000E+00 -0.00000000000E+00 -0.88635954507E+02  0.88635954507E+02  0.00000000000E+00 0.  1.
         25    1    1    2    0    0  0.10987783622E+03 -0.18342974826E+03  0.27165892690E+03  0.36761825853E+03  0.12500000000E+03 0.  0.
         25    1    1    2    0    0 -0.37019043429E+02  0.22663535211E+03  0.63967251631E+03  0.69104263292E+03  0.12500000000E+03 0.  0.
         25    1    1    2    0    0 -0.72858792790E+02 -0.43205603844E+02  0.36576113607E+03  0.39570359684E+03  0.12500000000E+03 0.  0.
</event>
<event>
 5    0  0.5572507E-005  0.3086101E+03  0.7546771E-02  0.1081014E+00
         21   -1    0    0  502  501  0.00000000000E+00  0.00000000000E+00  0.20336409739E+03  0.20336409739E+03  0.00000000000E+00 0.  1.
         21   -1    0    0  501  502 -0.00000000000E+00 -0.00000000000E+00 -0.46832353318E+03  0.46832353318E+03  0.00000000000E+00 0.  1.
         25    1    1    2    0    0 -0.16216136035E+03 -0.37726367604E+01 -0.11742498998E+03  0.23605967010E+03  0.12500000000E+03 0.  0.
         25    1    1    2    0    0  0.17909174274E+03 -0.95202912938E+02 -0.13726698042E+03  0.27496303545E+03  0.12500000000E+03 0.  0.
         25    1    1    2    0    0 -0.16930382399E+02  0.98975549698E+02 -0.10267465396E+02  0.16066492502E+03  0.12500000000E+03 0.  0.
</event>
<event>
 5    0  0.5572507E-005  0.2552689E+03  0.7546771E-02  0.1110020E+00
         21   -1    0    0  502  501  0.00000000000E+00  0.00000000000E+00  0.42961751636E+03  0.42961751636E+03  0.00000000000E+00 0.  1.
         21   -1    0    0  501  502 -0.00000000000E+00 -0.00000000000E+00 -0.15167496364E+03  0.15167496364E+03  0.00000000000E+00 0.  1.
         25    1    1    2    0    0 -0.15706890145E+01 -0.73096655696E+02  0.39484934086E+02  0.15009879466E+03  0.12500000000E+03 0.  0.
         25    1    1    2    0    0 -0.16907930108E+02 -0.71213283657E+01  0.25099521755E+03  0.28099855987E+03  0.12500000000E+03 0.  0.
         25    1    1    2    0    0  0.18478619122E+02  0.80217984061E+02 -0.12537598914E+02  0.15019512548E+03  0.12500000000E+03 0.  0.
</event>
<event>
 5    0  0.5572507E-005  0.2965035E+03  0.7546771E-02  0.1087002E+00
         21   -1    0    0  502  501  0.00000000000E+00  0.00000000000E+00  0.69285900677E+02  0.69285900677E+02  0.00000000000E+00 0. -1.
         21   -1    0    0  501  502 -0.00000000000E+00 -0.00000000000E+00 -0.12688631232E+04  0.12688631232E+04  0.00000000000E+00 0. -1.
         25    1    1    2    0    0  0.50136568965E+02 -0.13279183279E+03 -0.70063803500E+03  0.72571757764E+03  0.12500000000E+03 0.  0.
         25    1    1    2    0    0 -0.10264033595E+03  0.13678750059E+03 -0.36371330220E+03  0.42090168102E+03  0.12500000000E+03 0.  0.
         25    1    1    2    0    0  0.52503766987E+02 -0.39956678009E+01 -0.13522588534E+03  0.19152976525E+03  0.12500000000E+03 0.  0.
</event>
<event>
 5    0  0.5572507E-005  0.2734636E+03  0.7546771E-02  0.1099313E+00
         21   -1    0    0  502  501  0.00000000000E+00  0.00000000000E+00  0.20832341160E+03  0.20832341160E+03  0.00000000000E+00 0.  1.
         21   -1    0    0  501  502 -0.00000000000E+00 -0.00000000000E+00 -0.35897245495E+03  0.35897245495E+03  0.00000000000E+00 0.  1.
         25    1    1    2    0    0  0.60023992191E+02 -0.94975509345E+02  0.90627533595E+02  0.19094914731E+03  0.12500000000E+03 0.  0.
         25    1    1    2    0    0 -0.76230752676E+02  0.55100217650E+02 -0.12394524242E+03  0.19958603347E+03  0.12500000000E+03 0.  0.
         25    1    1    2    0    0  0.16206760485E+02  0.39875291694E+02 -0.11733133451E+03  0.17676068576E+03  0.12500000000E+03 0.  0.
</event>
<event>
 5    0  0.5572507E-005  0.2575313E+03  0.7546771E-02  0.1108636E+00
         21   -1    0    0  502  501  0.00000000000E+00  0.00000000000E+00  0.23120024306E+03  0.23120024306E+03  0.00000000000E+00 0.  1.
         21   -1    0    0  501  502 -0.00000000000E+00 -0.00000000000E+00 -0.28686108404E+03  0.28686108404E+03  0.00000000000E+00 0.  1.
         25    1    1    2    0    0  0.68812360344E+02 -0.79446727281E+02  0.19120174356E+02  0.16443085014E+03  0.12500000000E+03 0.  0.
         25    1    1    2    0    0 -0.86295395115E+02 -0.37809564340E+02 -0.90209140312E+02  0.18066307694E+03  0.12500000000E+03 0.  0.
         25    1    1    2    0    0  0.17483034771E+02  0.11725629162E+03  0.15428124979E+02  0.17296740002E+03  0.12500000000E+03 0.  0.
</event>
<event>
 5    0  0.5572507E-005  0.4958815E+03  0.7546771E-02  0.1014860E+00
         21   -1    0    0  502  501  0.00000000000E+00  0.00000000000E+00  0.12393157535E+03  0.12393157535E+03  0.00000000000E+00 0.  1.
         21   -1    0    0  501  502 -0.00000000000E+00 -0.00000000000E+00 -0.19841465946E+04  0.19841465946E+04  0.00000000000E+00 0.  1.
         25    1    1    2    0    0  0.13930786943E+03 -0.34404043677E+03 -0.53850352542E+03  0.66586901979E+03  0.12500000000E+03 0.  0.
         25    1    1    2    0    0 -0.18065832031E+03  0.13467155448E+02 -0.55042556663E+03  0.59280021708E+03  0.12500000000E+03 0.  0.
         25    1    1    2    0    0  0.41350450879E+02  0.33057328132E+03 -0.77128592718E+03  0.84940893307E+03  0.12500000000E+03 0.  0.
</event>
<event>
 5    0  0.5572507E-005  0.2603175E+03  0.7546771E-02  0.1106953E+00
         21   -1    0    0  502  501  0.00000000000E+00  0.00000000000E+00  0.22573360752E+04  0.22573360752E+04  0.00000000000E+00 0.  1.
         21   -1    0    0  501  502 -0.00000000000E+00 -0.00000000000E+00 -0.30019990895E+02  0.30019990895E+02  0.00000000000E+00 0.  1.
         25    1    1    2    0    0  0.13546847661E+02  0.41753616850E+02  0.10932557399E+04  0.11012538283E+04  0.12500000000E+03 0.  0.
         25    1    1    2    0    0 -0.78863724869E+02  0.63594647436E+02  0.68793976252E+03  0.70650540206E+03  0.12500000000E+03 0.  0.
         25    1    1    2    0    0  0.65316877209E+02 -0.10534826429E+03  0.44612058196E+03  0.47959683578E+03  0.12500000000E+03 0.  0.
</event>
<event>
 5    0  0.5572507E-005  0.3556706E+03  0.7546771E-02  0.1060311E+00
         21   -1    0    0  502  501  0.00000000000E+00  0.00000000000E+00  0.93645415870E+03  0.93645415870E+03  0.00000000000E+00 0.  1.
         21   -1    0    0  501  502 -0.00000000000E+00 -0.00000000000E+00 -0.13508571143E+03  0.13508571143E+03  0.00000000000E+00 0.  1.
         25    1    1    2    0    0  0.16161689000E+03 -0.19840095126E+03  0.33251323926E+03  0.43780476342E+03  0.12500000000E+03 0.  0.
         25    1    1    2    0    0 -0.14006841801E+03  0.16919642803E+02  0.30396803025E+03  0.35766884048E+03  0.12500000000E+03 0.  0.
         25    1    1    2    0    0 -0.21548471985E+02  0.18148130845E+03  0.16488717776E+03  0.27606626623E+03  0.12500000000E+03 0.  0.
</event>
<event>
 5    0  0.5572507E-005  0.2196488E+03  0.7546771E-02  0.1134145E+00
         21   -1    0    0  502  501  0.00000000000E+00  0.00000000000E+00  0.95926794938E+03  0.95926794938E+03  0.00000000000E+00 0. -1.
         21   -1    0    0  501  502 -0.00000000000E+00 -0.00000000000E+00 -0.50294197095E+02  0.50294197095E+02  0.00000000000E+00 0. -1.
         25    1    1    2    0    0 -0.24713264360E+02  0.28944928462E+01  0.20606043438E+03  0.24229120112E+03  0.12500000000E+03 0.  0.
         25    1    1    2    0    0  0.46884000674E+02 -0.78152332661E+02  0.28840894558E+03  0.32727758327E+03  0.12500000000E+03 0.  0.
         25    1    1    2    0    0 -0.22170736314E+02  0.75257839815E+02  0.41450437233E+03  0.43999336209E+03  0.12500000000E+03 0.  0.
</event>
<event>
 5    0  0.5977271E-005  0.4248195E+03  0.7546771E-02  0.1035509E+00
         21   -1    0    0  502  501  0.00000000000E+00  0.00000000000E+00  0.26324289766E+03  0.26324289766E+03  0.00000000000E+00 0.  1.
         21   -1    0    0  501  502 -0.00000000000E+00 -0.00000000000E+00 -0.68557079358E+03  0.68557079358E+03  0.00000000000E+00 0.  1.
         25    1    1    2    0    0  0.26000282868E+02  0.56980815288E+02 -0.47025096115E+03  0.49059534698E+03  0.12500000000E+03 0.  0.
         25    1    1    2    0    0 -0.15952489938E+03  0.88517281042E+02  0.94359915356E+01  0.22135388070E+03  0.12500000000E+03 0.  0.
         25    1    1    2    0    0  0.13352461652E+03 -0.14549809633E+03  0.38487073691E+02  0.23686446355E+03  0.12500000000E+03 0.  0.
</event>
<event>
 5    0  0.5572507E-005  0.2664373E+03  0.7546771E-02  0.1103336E+00
         21   -1    0    0  502  501  0.00000000000E+00  0.00000000000E+00  0.82767932426E+02  0.82767932426E+02  0.00000000000E+00 0. -1.
         21   -1    0    0  501  502 -0.00000000000E+00 -0.00000000000E+00 -0.85768514967E+03  0.85768514967E+03  0.00000000000E+00 0. -1.
         25    1    1    2    0    0  0.98278689305E+01 -0.15343121210E+02 -0.54336962705E+03  0.55785979419E+03  0.12500000000E+03 0.  0.
         25    1    1    2    0    0 -0.58378090805E+02 -0.56446377347E+02 -0.14315269747E+03  0.20666855057E+03  0.12500000000E+03 0.  0.
         25    1    1    2    0    0  0.48550221875E+02  0.71789498558E+02 -0.88394892729E+02  0.17592473734E+03  0.12500000000E+03 0.  0.
</event>
<event>
 5    0  0.5572507E-005  0.2676445E+03  0.7546771E-02  0.1102635E+00
         21   -1    0    0  502  501  0.00000000000E+00  0.00000000000E+00  0.12426106489E+04  0.12426106489E+04  0.00000000000E+00 0.  1.
         21   -1    0    0  501  502 -0.00000000000E+00 -0.00000000000E+00 -0.57647662066E+02  0.57647662066E+02  0.00000000000E+00 0.  1.
         25    1    1    2    0    0  0.76222910478E+02 -0.35740700667E+02  0.60252112502E+03  0.62108295409E+03  0.12500000000E+03 0.  0.
         25    1    1    2    0    0 -0.12071045155E+03  0.97141768308E+02  0.28373341212E+03  0.34660811505E+03  0.12500000000E+03 0.  0.
         25    1    1    2    0    0  0.44487541075E+02 -0.61401067641E+02  0.29870844971E+03  0.33256724184E+03  0.12500000000E+03 0.  0.
</event>
<event>
 5    0  0.5572507E-005  0.2368126E+03  0.7546771E-02  0.1121935E+00
         21   -1    0    0  502  501  0.00000000000E+00  0.00000000000E+00  0.35914530353E+02  0.35914530353E+02  0.00000000000E+00 0. -1.
         21   -1    0    0  501  502 -0.00000000000E+00 -0.00000000000E+00 -0.15614904002E+04  0.15614904002E+04  0.00000000000E+00 0. -1.
         25    1    1    2    0    0 -0.38420488793E+02  0.49442811059E+02 -0.86507619097E+03  0.87630048597E+03  0.12500000000E+03 0.  0.
         25    1    1    2    0    0  0.43308749210E+02 -0.75928128679E+02 -0.26879741468E+03  0.30905950660E+03  0.12500000000E+03 0.  0.
         25    1    1    2    0    0 -0.48882604170E+01  0.26485317619E+02 -0.39170226417E+03  0.41204493795E+03  0.12500000000E+03 0.  0.
</event>
<event>
 5    0  0.5572507E-005  0.2889974E+03  0.7546771E-02  0.1090874E+00
         21   -1    0    0  502  501  0.00000000000E+00  0.00000000000E+00  0.25977376972E+03  0.25977376972E+03  0.00000000000E+00 0.  1.
         21   -1    0    0  501  502 -0.00000000000E+00 -0.00000000000E+00 -0.32150865385E+03  0.32150865385E+03  0.00000000000E+00 0.  1.
         25    1    1    2    0    0  0.14155803659E+03  0.35853624164E+02 -0.13365460098E+03  0.23412114909E+03  0.12500000000E+03 0.  0.
         25    1    1    2    0    0 -0.15312544331E+03  0.23154981614E+02  0.60351680246E+02  0.20796845884E+03  0.12500000000E+03 0.  0.
         25    1    1    2    0    0  0.11567406715E+02 -0.59008605778E+02  0.11568036604E+02  0.13919281564E+03  0.12500000000E+03 0.  0.
</event>
<event>
 5    0  0.5572507E-005  0.2673146E+03  0.7546771E-02  0.1102826E+00
         21   -1    0    0  502  501  0.00000000000E+00  0.00000000000E+00  0.12588715320E+03  0.12588715320E+03  0.00000000000E+00 0. -1.
         21   -1    0    0  501  502 -0.00000000000E+00 -0.00000000000E+00 -0.56762821460E+03  0.56762821460E+03  0.00000000000E+00 0. -1.
         25    1    1    2    0    0  0.87442465088E+02 -0.25674559586E+02 -0.14496593605E+03  0.21200351489E+03  0.12500000000E+03 0.  0.
         25    1    1    2    0    0  0.54490383724E+02 -0.58791319396E+02 -0.20938935161E+03  0.25669928267E+03  0.12500000000E+03 0.  0.
         25    1    1    2    0    0 -0.14193284881E+03  0.84465878982E+02 -0.87385773744E+02  0.22481257024E+03  0.12500000000E+03 0.  0.
</event>
<event>
 5    0  0.5572507E-005  0.2474683E+03  0.7546771E-02  0.1114915E+00
         21   -1    0    0  502  501  0.00000000000E+00  0.00000000000E+00  0.28195498429E+03  0.28195498429E+03  0.00000000000E+00 0. -1.
         21   -1    0    0  501  502 -0.00000000000E+00 -0.00000000000E+00 -0.21719981059E+03  0.21719981059E+03  0.00000000000E+00 0. -1.
         25    1    1    2    0    0  0.16192426988E+02  0.55699060181E+02  0.12976615763E+03  0.18928506455E+03  0.12500000000E+03 0.  0.
         25    1    1    2    0    0 -0.73017281387E+02 -0.69006552448E+02 -0.79065676795E+01  0.16056444648E+03  0.12500000000E+03 0.  0.
         25    1    1    2    0    0  0.56824854399E+02  0.13307492267E+02 -0.57104416250E+02  0.14930528384E+03  0.12500000000E+03 0.  0.
</event>
<event>
 5    0  0.5572507E-005  0.3299373E+03  0.7546771E-02  0.1071165E+00
         21   -1    0    0  502  501  0.00000000000E+00  0.00000000000E+00  0.53401842886E+03  0.53401842886E+03  0.00000000000E+00 0.  1.
         21   -1    0    0  501  502 -0.00000000000E+00 -0.00000000000E+00 -0.20384805056E+03  0.20384805056E+03  0.00000000000E+00 0.  1.
         25    1    1    2    0    0 -0.98884031642E+02  0.32793699847E+02 -0.14518300894E+02  0.16336847776E+03  0.12500000000E+03 0.  0.
         25    1    1    2    0    0  0.13214349984E+03 -0.17531298185E+03  0.26518704461E+03  0.36625908151E+03  0.12500000000E+03 0.  0.
         25    1    1    2    0    0 -0.33259468203E+02  0.14251928201E+03  0.79501634582E+02  0.20823892016E+03  0.12500000000E+03 0.  0.
</event>
<event>
 5    0  0.5572507E-005  0.3448147E+03  0.7546771E-02  0.1064764E+00
         21   -1    0    0  502  501  0.00000000000E+00  0.00000000000E+00  0.15433248262E+03  0.15433248262E+03  0.00000000000E+00 0. -1.
         21   -1    0    0  501  502 -0.00000000000E+00 -0.00000000000E+00 -0.77039631458E+03  0.77039631458E+03  0.00000000000E+00 0. -1.
         25    1    1    2    0    0  0.16689845446E+03  0.41122457255E+02 -0.16557965258E+03  0.26942117946E+03  0.12500000000E+03 0.  0.
         25    1    1    2    0    0  0.97260841009E+02  0.84861750923E+01 -0.71001510800E+02  0.17377543238E+03  0.12500000000E+03 0.  0.
         25    1    1    2    0    0 -0.26415929547E+03 -0.49608632348E+02 -0.37948266858E+03  0.48153218537E+03  0.12500000000E+03 0.  0.
</event>
<event>
 5    0  0.5572507E-005  0.2661617E+03  0.7546771E-02  0.1103497E+00
         21   -1    0    0  502  501  0.00000000000E+00  0.00000000000E+00  0.13041683802E+04  0.13041683802E+04  0.00000000000E+00 0.  1.
         21   -1    0    0  501  502 -0.00000000000E+00 -0.00000000000E+00 -0.54319730669E+02  0.54319730669E+02  0.00000000000E+00 0.  1.
         25    1    1    2    0    0  0.13487911153E+02 -0.12307682382E+03  0.47126971597E+03  0.50304072747E+03  0.12500000000E+03 0.  0.
         25    1    1    2    0    0  0.86468094090E+01  0.46627324860E+02  0.11758215877E+03  0.17804336213E+03  0.12500000000E+03 0.  0.
         25    1    1    2    0    0 -0.22134720562E+02  0.76449498959E+02  0.66099677482E+03  0.67740402129E+03  0.12500000000E+03 0.  0.
</event>
<event>
 5    0  0.5572507E-005  0.3854292E+03  0.7546771E-02  0.1048945E+00
         21   -1    0    0  502  501  0.00000000000E+00  0.00000000000E+00  0.38796575487E+03  0.38796575487E+03  0.00000000000E+00 0.  1.
         21   -1    0    0  501  502 -0.00000000000E+00 -0.00000000000E+00 -0.38290926138E+03  0.38290926138E+03  0.00000000000E+00 0.  1.
         25    1    1    2    0    0 -0.55420126578E+02 -0.79460690130E+02  0.42063976983E+02  0.16364525617E+03  0.12500000000E+03 0.  0.
         25    1    1    2    0    0  0.50137480568E+02  0.21456568757E+03  0.18873776871E+03  0.31591002925E+03  0.12500000000E+03 0.  0.
         25    1    1    2    0    0  0.52826460096E+01 -0.13510499744E+03 -0.22574525220E+03  0.29131973084E+03  0.12500000000E+03 0.  0.
</event>
<event>
 5    0  0.5572507E-005  0.2407809E+03  0.7546771E-02  0.1119274E+00
         21   -1    0    0  502  501  0.00000000000E+00  0.00000000000E+00  0.43433401551E+02  0.43433401551E+02  0.00000000000E+00 0. -1.
         21   -1    0    0  501  502 -0.00000000000E+00 -0.00000000000E+00 -0.13348127810E+04  0.13348127810E+04  0.00000000000E+00 0. -1.
         25    1    1    2    0    0 -0.13225781071E+02  0.11626006362E+03 -0.34131697346E+03  0.38185547010E+03  0.12500000000E+03 0.  0.
         25    1    1    2    0    0  0.45163610175E+02 -0.54133711193E+02 -0.32734125852E+03  0.35741783658E+03  0.12500000000E+03 0.  0.
         25    1    1    2    0    0 -0.31937829104E+02 -0.62126352428E+02 -0.62272114747E+03  0.63897287588E+03  0.12500000000E+03 0.  0.
</event>
<event>
 5    0  0.5572507E-005  0.2874150E+03  0.7546771E-02  0.1091707E+00
         21   -1    0    0  502  501  0.00000000000E+00  0.00000000000E+00  0.43760771547E+02  0.43760771547E+02  0.00000000000E+00 0. -1.
         21   -1    0    0  501  502 -0.00000000000E+00 -0.00000000000E+00 -0.18877034840E+04  0.18877034840E+04  0.00000000000E+00 0. -1.
         25    1    1    2    0    0  0.57316297977E+01  0.16305899647E+03 -0.10628257297E+04  0.10825177226E+04  0.12500000000E+03 0.  0.
         25    1    1    2    0    0 -0.17731067924E+02 -0.11712297608E+03 -0.59736925908E+03  0.62169704358E+03  0.12500000000E+03 0.  0.
         25    1    1    2    0    0  0.11999438127E+02 -0.45936020388E+02 -0.18374772360E+03  0.22724948936E+03  0.12500000000E+03 0.  0.
</event>
<event>
 5    0  0.6077710E-005  0.3740108E+03  0.7546771E-02  0.1053170E+00
         21   -1    0    0  502  501  0.00000000000E+00  0.00000000000E+00  0.99273414929E+02  0.99273414929E+02  0.00000000000E+00 0. -1.
         21   -1    0    0  501  502 -0.00000000000E+00 -0.00000000000E+00 -0.14090786053E+04  0.14090786053E+04  0.00000000000E+00 0. -1.
         25    1    1    2    0    0  0.59453378678E+02 -0.26596728427E+03 -0.65764668116E+03  0.72277068132E+03  0.12500000000E+03 0.  0.
         25    1    1    2    0    0  0.16764758238E+02  0.90442368573E+02 -0.91594573111E+02  0.18020944752E+03  0.12500000000E+03 0.  0.
         25    1    1    2    0    0 -0.76218136916E+02  0.17552491569E+03 -0.56056393606E+03  0.60537189135E+03  0.12500000000E+03 0.  0.
</event>
<event>
 5    0  0.5572507E-005  0.2719954E+03  0.7546771E-02  0.1100143E+00
         21   -1    0    0  502  501  0.00000000000E+00  0.00000000000E+00  0.80679566040E+02  0.80679566040E+02  0.00000000000E+00 0.  1.
         21   -1    0    0  501  502 -0.00000000000E+00 -0.00000000000E+00 -0.91697940294E+03  0.91697940294E+03  0.00000000000E+00 0.  1.
         25    1    1    2    0    0 -0.71839366306E+02 -0.19751955256E+01 -0.10081040781E+03  0.17593332337E+03  0.12500000000E+03 0.  0.
         25    1    1    2    0    0 -0.18056951053E+02 -0.10768858611E+03 -0.44702252449E+03  0.47684066779E+03  0.12500000000E+03 0.  0.
         25    1    1    2    0    0  0.89896317358E+02  0.10966378164E+03 -0.28846690460E+03  0.34488497782E+03  0.12500000000E+03 0.  0.
</event>
<event>
 5    0  0.5572507E-005  0.3232553E+03  0.7546771E-02  0.1074161E+00
         21   -1    0    0  502  501  0.00000000000E+00  0.00000000000E+00  0.36143183544E+02  0.36143183544E+02  0.00000000000E+00 0. -1.
         21   -1    0    0  501  502 -0.00000000000E+00 -0.00000000000E+00 -0.28911125805E+04  0.28911125805E+04  0.00000000000E+00 0. -1.
         25    1    1    2    0    0 -0.60980403823E+01  0.13877904414E+03 -0.37029710338E+03  0.41477916288E+03  0.12500000000E+03 0.  0.
         25    1    1    2    0    0 -0.86918529854E+02 -0.15171672602E+03 -0.15467488973E+04  0.15616113304E+04  0.12500000000E+03 0.  0.
         25    1    1    2    0    0  0.93016570236E+02  0.12937681875E+02 -0.93792339623E+03  0.95086527076E+03  0.12500000000E+03 0.  0.
</event>
<event>
 5    0  0.5572507E-005  0.3571156E+03  0.7546771E-02  0.1059732E+00
         21   -1    0    0  502  501  0.00000000000E+00  0.00000000000E+00  0.33530441213E+03  0.33530441213E+03  0.00000000000E+00 0. -1.
         21   -1    0    0  501  502 -0.00000000000E+00 -0.00000000000E+00 -0.38034559124E+03  0.38034559124E+03  0.00000000000E+00 0. -1.
         25    1    1    2    0    0 -0.43591909905E+02  0.31618322381E+02  0.14913192786E+02  0.13692105842E+03  0.12500000000E+03 0.  0.
         25    1    1    2    0    0  0.27133749800E+03 -0.81680757113E+02 -0.12720552290E+02  0.30997192833E+03  0.12500000000E+03 0.  0.
         25    1    1    2    0    0 -0.22774558810E+03  0.50062434732E+02 -0.47233819598E+02  0.26875701662E+03  0.12500000000E+03 0.  0.
</event>
<event>
 5    0  0.5572507E-005  0.3183390E+03  0.7546771E-02  0.1076416E+00
         21   -1    0    0  502  501  0.00000000000E+00  0.00000000000E+00  0.10222192672E+04  0.10222192672E+04  0.00000000000E+00 0.  1.
         21   -1    0    0  501  502 -0.00000000000E+00 -0.00000000000E+00 -0.99136939071E+02  0.99136939071E+02  0.00000000000E+00 0.  1.
         25    1    1    2    0    0 -0.22803923732E+02  0.19716494184E+03  0.32713821377E+03  0.40253999073E+03  0.12500000000E+03 0.  0.
         25    1    1    2    0    0 -0.63378977548E+02 -0.20648951407E+03  0.35777710419E+03  0.43621585310E+03  0.12500000000E+03 0.  0.
         25    1    1    2    0    0  0.86182901280E+02  0.93245722280E+01  0.23816701019E+03  0.28260036246E+03  0.12500000000E+03 0.  0.
</event>
<event>
 5    0  0.5572507E-005  0.3949040E+03  0.7546771E-02  0.1045559E+00
         21   -1    0    0  502  501  0.00000000000E+00  0.00000000000E+00  0.65744570190E+02  0.65744570190E+02  0.00000000000E+00 0. -1.
         21   -1    0    0  501  502 -0.00000000000E+00 -0.00000000000E+00 -0.23720462709E+04  0.23720462709E+04  0.00000000000E+00 0. -1.
         25    1    1    2    0    0  0.26192349391E+02  0.16450003170E+03 -0.69591789687E+03  0.72641105359E+03  0.12500000000E+03 0.  0.
         25    1    1    2    0    0 -0.14075727370E+03 -0.22493514628E+03 -0.14175812815E+04  0.14476084138E+04  0.12500000000E+03 0.  0.
         25    1    1    2    0    0  0.11456492431E+03  0.60435114584E+02 -0.19280252241E+03  0.26377137374E+03  0.12500000000E+03 0.  0.
</event>
<event>
 5    0  0.6114867E-005  0.2966426E+03  0.7546771E-02  0.1086931E+00
         21   -1    0    0  502  501  0.00000000000E+00  0.00000000000E+00  0.56264070337E+03  0.56264070337E+03  0.00000000000E+00 0.  1.
         21   -1    0    0  501  502 -0.00000000000E+00 -0.00000000000E+00 -0.15639968566E+03  0.15639968566E+03  0.00000000000E+00 0.  1.
         25    1    1    2    0    0  0.12128967495E+03  0.27532988150E+02  0.93098378090E+02  0.19940300571E+03  0.12500000000E+03 0.  0.
         25    1    1    2    0    0 -0.15334608272E+03 -0.62644271044E+02  0.34235824032E+02  0.21032455260E+03  0.12500000000E+03 0.  0.
         25    1    1    2    0    0  0.32056407777E+02  0.35111282894E+02  0.27890681558E+03  0.30931283071E+03  0.12500000000E+03 0.  0.
</event>
<event>
 5    0  0.5572507E-005  0.8263929E+03  0.7546771E-02  0.9522581E-01
         21   -1    0    0  502  501  0.00000000000E+00  0.00000000000E+00  0.54496400206E+04  0.54496400206E+04  0.00000000000E+00 0. -1.
         21   -1    0    0  501  502 -0.00000000000E+00 -0.00000000000E+00 -0.12531565104E+03  0.12531565104E+03  0.00000000000E+00 0. -1.
         25    1    1    2    0    0  0.48916806545E+03  0.10710998167E+03  0.65805945478E+03  0.83631644158E+03  0.12500000000E+03 0.  0.
         25    1    1    2    0    0  0.18598555525E+02  0.18099804324E+03  0.15570048585E+04  0.15725760163E+04  0.12500000000E+03 0.  0.
         25    1    1    2    0    0 -0.50776662097E+03 -0.28810802491E+03  0.31092600564E+04  0.31660632138E+04  0.12500000000E+03 0.  0.
</event>
<event>
 5    0  0.5572507E-005  0.4137644E+03  0.7546771E-02  0.1039115E+00
         21   -1    0    0  502  501  0.00000000000E+00  0.00000000000E+00  0.78911390624E+02  0.78911390624E+02  0.00000000000E+00 0.  1.
         21   -1    0    0  501  502 -0.00000000000E+00 -0.00000000000E+00 -0.21695339392E+04  0.21695339392E+04  0.00000000000E+00 0.  1.
         25    1    1    2    0    0  0.41559066196E+02  0.85485491617E+02 -0.71870713871E+03  0.73566288236E+03  0.12500000000E+03 0.  0.
         25    1    1    2    0    0  0.95759990934E+01 -0.28814441337E+03 -0.11164663905E+04  0.11598452930E+04  0.12500000000E+03 0.  0.
         25    1    1    2    0    0 -0.51135065290E+02  0.20265892175E+03 -0.25544901941E+03  0.35293715444E+03  0.12500000000E+03 0.  0.
</event>
<event>
 5    0  0.5572507E-005  0.4597312E+03  0.7546771E-02  0.1024859E+00
         21   -1    0    0  502  501  0.00000000000E+00  0.00000000000E+00  0.19778089396E+03  0.19778089396E+03  0.00000000000E+00 0. -1.
         21   -1    0    0  501  502 -0.00000000000E+00 -0.00000000000E+00 -0.10686208958E+04  0.10686208958E+04  0.00000000000E+00 0. -1.
         25    1    1    2    0    0 -0.10046131336E+03 -0.91986544979E+02  0.28979306495E+02  0.18713310809E+03  0.12500000000E+03 0.  0.
         25    1    1    2    0    0 -0.14775920816E+02 -0.97852101705E+02 -0.16920088744E+02  0.16032670098E+03  0.12500000000E+03 0.  0.
         25    1    1    2    0    0  0.11523723417E+03  0.18983864668E+03 -0.88289921959E+03  0.91894198068E+03  0.12500000000E+03 0.  0.
</event>
<event>
 5    0  0.5572507E-005  0.2794598E+03  0.7546771E-02  0.1095984E+00
         21   -1    0    0  502  501  0.00000000000E+00  0.00000000000E+00  0.89061890943E+03  0.89061890943E+03  0.00000000000E+00 0.  1.
         21   -1    0    0  501  502 -0.00000000000E+00 -0.00000000000E+00 -0.87689313742E+02  0.87689313742E+02  0.00000000000E+00 0.  1.
         25    1    1    2    0    0  0.13207298384E+02  0.13754161241E+03  0.17911590078E+03  0.25845625121E+03  0.12500000000E+03 0.  0.
         25    1    1    2    0    0  0.79685090007E+02 -0.13676760402E+03  0.31597637013E+03  0.37486151784E+03  0.12500000000E+03 0.  0.
         25    1    1    2    0    0 -0.92892388392E+02 -0.77400839565E+00  0.30783732478E+03  0.34499045413E+03  0.12500000000E+03 0.  0.
</event>
<event>
 5    0  0.5572507E-005  0.2161361E+03  0.7546771E-02  0.1136797E+00
         21   -1    0    0  502  501  0.00000000000E+00  0.00000000000E+00  0.42537543683E+03  0.42537543683E+03  0.00000000000E+00 0. -1.
         21   -1    0    0  501  502 -0.00000000000E+00 -0.00000000000E+00 -0.10982016155E+03  0.10982016155E+03  0.00000000000E+00 0. -1.
         25    1    1    2    0    0  0.56350054822E+00  0.75266459509E+01  0.14485229714E+03  0.19147886546E+03  0.12500000000E+03 0.  0.
         25    1    1    2    0    0 -0.44839623674E+02  0.56438102248E+02  0.48031105503E+02  0.15207839535E+03  0.12500000000E+03 0.  0.
         25    1    1    2    0    0  0.44276123126E+02 -0.63964748199E+02  0.12267187263E+03  0.19163833757E+03  0.12500000000E+03 0.  0.
</event>
<event>
 5    0  0.5572507E-005  0.3334758E+03  0.7546771E-02  0.1069609E+00
         21   -1    0    0  502  501  0.00000000000E+00  0.00000000000E+00  0.13690484699E+03  0.13690484699E+03  0.00000000000E+00 0. -1.
         21   -1    0    0  501  502 -0.00000000000E+00 -0.00000000000E+00 -0.81228770530E+03  0.81228770530E+03  0.00000000000E+00 0. -1.
         25    1    1    2    0    0  0.19799399188E+02 -0.23501133960E+01 -0.29055379922E+03  0.31692909220E+03  0.12500000000E+03 0.  0.
         25    1    1    2    0    0  0.20738564240E+03  0.51057351352E+01 -0.17824693802E+03  0.30071887889E+03  0.12500000000E+03 0.  0.
         25    1    1    2    0    0 -0.22718504159E+03 -0.27556217392E+01 -0.20658212107E+03  0.33154458119E+03  0.12500000000E+03 0.  0.
</event>
<event>
 5    0  0.5572507E-005  0.5439545E+03  0.7546771E-02  0.1002903E+00
         21   -1    0    0  502  501  0.00000000000E+00  0.00000000000E+00  0.85690349416E+03  0.85690349416E+03  0.00000000000E+00 0.  1.
         21   -1    0    0  501  502 -0.00000000000E+00 -0.00000000000E+00 -0.34529740189E+03  0.34529740189E+03  0.00000000000E+00 0. -1.
         25    1    1    2    0    0 -0.46323749471E+02 -0.14463858031E+03  0.43016650964E+03  0.47300574488E+03  0.12500000000E+03 0.  0.
         25    1    1    2    0    0 -0.23801077653E+03 -0.11482445030E+03  0.13308360929E+03  0.32120092029E+03  0.12500000000E+03 0.  0.
         25    1    1    2    0    0  0.28433452600E+03  0.25946303061E+03 -0.51644026665E+02  0.40799423087E+03  0.12500000000E+03 0.  0.
</event>
<event>
 5    0  0.6126141E-005  0.3403937E+03  0.7546771E-02  0.1066628E+00
         21   -1    0    0  502  501  0.00000000000E+00  0.00000000000E+00  0.39939231968E+03  0.39939231968E+03  0.00000000000E+00 0. -1.
         21   -1    0    0  501  502 -0.00000000000E+00 -0.00000000000E+00 -0.29011045669E+03  0.29011045669E+03  0.00000000000E+00 0. -1.
         25    1    1    2    0    0  0.19361609290E+03  0.18391143827E+02  0.10462151717E+03  0.25376384190E+03  0.12500000000E+03 0.  0.
         25    1    1    2    0    0 -0.87600397987E+02  0.12131696711E+02 -0.14560190062E+03  0.21129581458E+03  0.12500000000E+03 0.  0.
         25    1    1    2    0    0 -0.10601569491E+03 -0.30522840538E+02  0.15026224643E+03  0.22444311989E+03  0.12500000000E+03 0.  0.
</event>
<event>
 5    0  0.5572507E-005  0.3197151E+03  0.7546771E-02  0.1075781E+00
         21   -1    0    0  502  501  0.00000000000E+00  0.00000000000E+00  0.25352034910E+03  0.25352034910E+03  0.00000000000E+00 0. -1.
         21   -1    0    0  501  502 -0.00000000000E+00 -0.00000000000E+00 -0.40319342579E+03  0.40319342579E+03  0.00000000000E+00 0. -1.
         25    1    1    2    0    0  0.16787977717E+03 -0.54692050854E+02 -0.45193150615E+02  0.22100285264E+03  0.12500000000E+03 0.  0.
         25    1    1    2    0    0 -0.16807996726E+03  0.57928468544E+02 -0.18632350168E+03  0.28626566357E+03  0.12500000000E+03 0.  0.
         25    1    1    2    0    0  0.20019008654E+00 -0.32364176904E+01  0.81843575604E+02  0.14944525868E+03  0.12500000000E+03 0.  0.
</event>
<event>
 5    0  0.5572507E-005  0.3287828E+03  0.7546771E-02  0.1071677E+00
         21   -1    0    0  502  501  0.00000000000E+00  0.00000000000E+00  0.90384351223E+03  0.90384351223E+03  0.00000000000E+00 0. -1.
         21   -1    0    0  501  502 -0.00000000000E+00 -0.00000000000E+00 -0.11959828054E+03  0.11959828054E+03  0.00000000000E+00 0. -1.
         25    1    1    2    0    0  0.20340251987E+02  0.17708808680E+03  0.87304065175E+02  0.23456537710E+03  0.12500000000E+03 0.  0.
         25    1    1    2    0    0 -0.10441315300E+03 -0.13270970402E+03  0.44308806075E+03  0.49037332884E+03  0.12500000000E+03 0.  0.
         25    1    1    2    0    0  0.84072901012E+02 -0.44378382776E+02  0.25385310576E+03  0.29850308683E+03  0.12500000000E+03 0.  0.
</event>
<event>
 5    0  0.5572507E-005  0.3044261E+03  0.7546771E-02  0.1083049E+00
         21   -1    0    0  502  501  0.00000000000E+00  0.00000000000E+00  0.70862462650E+03  0.70862462650E+03  0.00000000000E+00 0.  1.
         21   -1    0    0  501  502 -0.00000000000E+00 -0.00000000000E+00 -0.13078184255E+03  0.13078184255E+03  0.00000000000E+00 0.  1.
         25    1    1    2    0    0 -0.18634186287E+02 -0.16351523852E+03  0.23913843873E+03  0.31606432732E+03  0.12500000000E+03 0.  0.
         25    1    1    2    0    0 -0.43662380680E+02 -0.44950560341E+02  0.17386170860E+03  0.22311398450E+03  0.12500000000E+03 0.  0.
         25    1    1    2    0    0  0.62296566967E+02  0.20846579886E+03  0.16484263662E+03  0.30022815723E+03  0.12500000000E+03 0.  0.
</event>
<event>
 5    0  0.5572507E-005  0.2771465E+03  0.7546771E-02  0.1097258E+00
         21   -1    0    0  502  501  0.00000000000E+00  0.00000000000E+00  0.53884923314E+02  0.53884923314E+02  0.00000000000E+00 0. -1.
         21   -1    0    0  501  502 -0.00000000000E+00 -0.00000000000E+00 -0.14254489206E+04  0.14254489206E+04  0.00000000000E+00 0. -1.
         25    1    1    2    0    0  0.11645200076E+03 -0.10139558935E+03 -0.33658183844E+03  0.39083816086E+03  0.12500000000E+03 0.  0.
         25    1    1    2    0    0  0.17240743946E+02  0.35198340906E+02 -0.28491899530E+03  0.31359209228E+03  0.12500000000E+03 0.  0.
         25    1    1    2    0    0 -0.13369274470E+03  0.66197248445E+02 -0.75006316355E+03  0.77490359078E+03  0.12500000000E+03 0.  0.
</event>
<event>
 5    0  0.5572507E-005  0.2998625E+03  0.7546771E-02  0.1085309E+00
         21   -1    0    0  502  501  0.00000000000E+00  0.00000000000E+00  0.46995705080E+02  0.46995705080E+02  0.00000000000E+00 0.  1.
         21   -1    0    0  501  502 -0.00000000000E+00 -0.00000000000E+00 -0.19133133576E+04  0.19133133576E+04  0.00000000000E+00 0.  1.
         25    1    1    2    0    0  0.14024589659E+03 -0.20095587897E+02 -0.94110843478E+03  0.95988688405E+03  0.12500000000E+03 0.  0.
         25    1    1    2    0    0 -0.13880466390E+03 -0.95558581509E+02 -0.53473992641E+03  0.57443012292E+03  0.12500000000E+03 0.  0.
         25    1    1    2    0    0 -0.14412326897E+01  0.11565416941E+03 -0.39046929133E+03  0.42599205570E+03  0.12500000000E+03 0.  0.
</event>
<event>
 5    0  0.5572507E-005  0.3957058E+03  0.7546771E-02  0.1045277E+00
         21   -1    0    0  502  501  0.00000000000E+00  0.00000000000E+00  0.10264262765E+04  0.10264262765E+04  0.00000000000E+00 0. -1.
         21   -1    0    0  501  502 -0.00000000000E+00 -0.00000000000E+00 -0.15255168766E+03  0.15255168766E+03  0.00000000000E+00 0. -1.
         25    1    1    2    0    0  0.11806263262E+03 -0.15767080468E+03  0.21461270647E+02  0.23427431359E+03  0.12500000000E+03 0.  0.
         25    1    1    2    0    0 -0.94185158239E+02  0.67860429374E+02  0.72102193317E+03  0.74092746610E+03  0.12500000000E+03 0.  0.
         25    1    1    2    0    0 -0.23877474385E+02  0.89810375304E+02  0.13139138500E+03  0.20377618445E+03  0.12500000000E+03 0.  0.
</event>
<event>
 5    0  0.5572507E-005  0.3895170E+03  0.7546771E-02  0.1047471E+00
         21   -1    0    0  502  501  0.00000000000E+00  0.00000000000E+00  0.39886237287E+03  0.39886237287E+03  0.00000000000E+00 0.  1.
         21   -1    0    0  501  502 -0.00000000000E+00 -0.00000000000E+00 -0.38039058368E+03  0.38039058368E+03  0.00000000000E+00 0.  1.
         25    1    1    2    0    0 -0.17816809704E+03 -0.26623773531E+03  0.91530909310E+02  0.35585012275E+03  0.12500000000E+03 0.  0.
         25    1    1    2    0    0  0.14393949601E+03  0.14428609030E+03 -0.40525478768E+02  0.24249612119E+03  0.12500000000E+03 0.  0.
         25    1    1    2    0    0  0.34228601030E+02  0.12195164501E+03 -0.32533641349E+02  0.18090671261E+03  0.12500000000E+03 0.  0.
</event>
<event>
 5    0  0.5572507E-005  0.4434172E+03  0.7546771E-02  0.1029703E+00
         21   -1    0    0  502  501  0.00000000000E+00  0.00000000000E+00  0.17366696779E+04  0.17366696779E+04  0.00000000000E+00 0.  1.
         21   -1    0    0  501  502 -0.00000000000E+00 -0.00000000000E+00 -0.11321600259E+03  0.11321600259E+03  0.00000000000E+00 0.  1.
         25    1    1    2    0    0  0.24882505161E+02  0.22001162771E+03  0.12422005205E+03  0.28298388067E+03  0.12500000000E+03 0.  0.
         25    1    1    2    0    0 -0.41940478638E+02 -0.22738930371E+03  0.55326524763E+03  0.61252945515E+03  0.12500000000E+03 0.  0.
         25    1    1    2    0    0  0.17057973477E+02  0.73776760063E+01  0.94596837567E+03  0.95437234470E+03  0.12500000000E+03 0.  0.
</event>
<event>
 5    0  0.6113625E-005  0.3915162E+03  0.7546771E-02  0.1046758E+00
         21   -1    0    0  502  501  0.00000000000E+00  0.00000000000E+00  0.24004379039E+03  0.24004379039E+03  0.00000000000E+00 0. -1.
         21   -1    0    0  501  502 -0.00000000000E+00 -0.00000000000E+00 -0.63857086247E+03  0.63857086247E+03  0.00000000000E+00 0. -1.
         25    1    1    2    0    0 -0.11702663611E+03 -0.67735043963E+02 -0.44014523069E+03  0.47711224448E+03  0.12500000000E+03 0.  0.
         25    1    1    2    0    0 -0.46649807567E+02  0.12746802554E+03  0.10537129148E+02  0.18482514215E+03  0.12500000000E+03 0.  0.
         25    1    1    2    0    0  0.16367644368E+03 -0.59732981574E+02  0.31081029460E+02  0.21667726622E+03  0.12500000000E+03 0.  0.
</event>
<event>
 5    0  0.5572507E-005  0.2874862E+03  0.7546771E-02  0.1091669E+00
         21   -1    0    0  502  501  0.00000000000E+00  0.00000000000E+00  0.94401278722E+03  0.94401278722E+03  0.00000000000E+00 0. -1.
         21   -1    0    0  501  502 -0.00000000000E+00 -0.00000000000E+00 -0.87549971216E+02  0.87549971216E+02  0.00000000000E+00 0. -1.
         25    1    1    2    0    0  0.19710440466E+02  0.55137805965E+02  0.28218683438E+03  0.31413864552E+03  0.12500000000E+03 0.  0.
         25    1    1    2    0    0  0.28395137771E+02 -0.82149442996E+02  0.28612840687E+02  0.15491452316E+03  0.12500000000E+03 0.  0.
         25    1    1    2    0    0 -0.48105578237E+02  0.27011637031E+02  0.54566314094E+03  0.56250958976E+03  0.12500000000E+03 0.  0.
</event>
<event>
 5    0  0.8749877E-005  0.2875823E+03  0.7546771E-02  0.1091618E+00
         21   -1    0    0  502  501  0.00000000000E+00  0.00000000000E+00  0.19584484010E+03  0.19584484010E+03  0.00000000000E+00 0. -1.
         21   -1    0    0  501  502 -0.00000000000E+00 -0.00000000000E+00 -0.42229126826E+03  0.42229126826E+03  0.00000000000E+00 0. -1.
         25    1    1    2    0    0 -0.32905690043E+02  0.80080883446E+02  0.21897174696E+01  0.15207079665E+03  0.12500000000E+03 0.  0.
         25    1    1    2    0    0 -0.67603326411E+02 -0.17050361537E+03 -0.12827910602E+03  0.25636345613E+03  0.12500000000E+03 0.  0.
         25    1    1    2    0    0  0.10050901645E+03  0.90422731921E+02 -0.10035703961E+03  0.20970185558E+03  0.12500000000E+03 0.  0.
</event>
<event>
 5    0  0.5572507E-005  0.2915054E+03  0.7546771E-02  0.1089566E+00
         21   -1    0    0  502  501  0.00000000000E+00  0.00000000000E+00  0.19376688922E+03  0.19376688922E+03  0.00000000000E+00 0. -1.
         21   -1    0    0  501  502 -0.00000000000E+00 -0.00000000000E+00 -0.43854457393E+03  0.43854457393E+03  0.00000000000E+00 0. -1.
         25    1    1    2    0    0 -0.87222628392E+02 -0.10258033640E+03 -0.26460408305E+02  0.18562237345E+03  0.12500000000E+03 0.  0.
         25    1    1    2    0    0  0.47214293977E+02  0.18854061476E+03 -0.15045108582E+03  0.27574858512E+03  0.12500000000E+03 0.  0.
         25    1    1    2    0    0  0.40008334415E+02 -0.85960278366E+02 -0.67866190582E+02  0.17094050457E+03  0.12500000000E+03 0.  0.
</event>
<event>
 5    0  0.5572507E-005  0.3021576E+03  0.7546771E-02  0.1084167E+00
         21   -1    0    0  502  501  0.00000000000E+00  0.00000000000E+00  0.67907861937E+02  0.67907861937E+02  0.00000000000E+00 0. -1.
         21   -1    0    0  501  502 -0.00000000000E+00 -0.00000000000E+00 -0.13444568898E+04  0.13444568898E+04  0.00000000000E+00 0. -1.
         25    1    1    2    0    0 -0.10583811483E+03  0.10545112598E+02 -0.87213078464E+03  0.88744014529E+03  0.12500000000E+03 0.  0.
         25    1    1    2    0    0  0.15400896781E+03  0.65926203106E+01 -0.21916652120E+03  0.29567074394E+03  0.12500000000E+03 0.  0.
         25    1    1    2    0    0 -0.48170852983E+02 -0.17137732909E+02 -0.18525172207E+03  0.22925386255E+03  0.12500000000E+03 0.  0.
</event>
<event>
 5    0  0.5572507E-005  0.2622599E+03  0.7546771E-02  0.1105793E+00
         21   -1    0    0  502  501  0.00000000000E+00  0.00000000000E+00  0.72055622405E+03  0.72055622405E+03  0.00000000000E+00 0. -1.
         21   -1    0    0  501  502 -0.00000000000E+00 -0.00000000000E+00 -0.95454416624E+02  0.95454416624E+02  0.00000000000E+00 0. -1.
         25    1    1    2    0    0  0.66019513840E+02 -0.78875574779E+00  0.31970226780E+03  0.34956220960E+03  0.12500000000E+03 0.  0.
         25    1    1    2    0    0  0.43432762374E+02 -0.93027425382E+02  0.14165256969E+03  0.21501385356E+03  0.12500000000E+03 0.  0.
         25    1    1    2    0    0 -0.10945227621E+03  0.93816181129E+02  0.16374696993E+03  0.25143457752E+03  0.12500000000E+03 0.  0.
</event>
<event>
 5    0  0.5572507E-005  0.4569133E+03  0.7546771E-02  0.1025680E+00
         21   -1    0    0  502  501  0.00000000000E+00  0.00000000000E+00  0.72083356373E+03  0.72083356373E+03  0.00000000000E+00 0. -1.
         21   -1    0    0  501  502 -0.00000000000E+00 -0.00000000000E+00 -0.28962265772E+03  0.28962265772E+03  0.00000000000E+00 0. -1.
         25    1    1    2    0    0  0.42509078485E+02 -0.16557896848E+02  0.69599567752E+02  0.15016752489E+03  0.12500000000E+03 0.  0.
         25    1    1    2    0    0 -0.46897955683E+02  0.31997185627E+03 -0.31567790935E+02  0.34814211534E+03  0.12500000000E+03 0.  0.
         25    1    1    2    0    0  0.43888771980E+01 -0.30341395942E+03  0.39317912920E+03  0.51214658121E+03  0.12500000000E+03 0.  0.
</event>
<event>
 5    0  0.5572507E-005  0.3371508E+03  0.7546771E-02  0.1068016E+00
         21   -1    0    0  502  501  0.00000000000E+00  0.00000000000E+00  0.55761321286E+03  0.55761321286E+03  0.00000000000E+00 0.  1.
         21   -1    0    0  501  502 -0.00000000000E+00 -0.00000000000E+00 -0.20385215118E+03  0.20385215118E+03  0.00000000000E+00 0.  1.
         25    1    1    2    0    0  0.46369938070E+02 -0.21789057929E+03  0.21235443336E+02  0.25632483249E+03  0.12500000000E+03 0.  0.
         25    1    1    2    0    0  0.20103406821E+02  0.40663551951E+02  0.48255351245E+02  0.14146112663E+03  0.12500000000E+03 0.  0.
         25    1    1    2    0    0 -0.66473344890E+02  0.17722702734E+03  0.28427026711E+03  0.36367940492E+03  0.12500000000E+03 0.  0.
</event>
<event>
 5    0  0.5572507E-005  0.4339968E+03  0.7546771E-02  0.1032605E+00
         21   -1    0    0  502  501  0.00000000000E+00  0.00000000000E+00  0.21650586803E+03  0.21650586803E+03  0.00000000000E+00 0. -1.
         21   -1    0    0  501  502 -0.00000000000E+00 -0.00000000000E+00 -0.86996812018E+03  0.86996812018E+03  0.00000000000E+00 0. -1.
         25    1    1    2    0    0  0.57323651798E+02  0.19699310900E+03  0.99098654332E+02  0.25988041353E+03  0.12500000000E+03 0.  0.
         25    1    1    2    0    0  0.15988401468E+02 -0.98234106198E+02 -0.44123188200E+03  0.46927192788E+03  0.12500000000E+03 0.  0.
         25    1    1    2    0    0 -0.73312053266E+02 -0.98759002797E+02 -0.31132902449E+03  0.35732164681E+03  0.12500000000E+03 0.  0.
</event>
<event>
 5    0  0.5572507E-005  0.2451908E+03  0.7546771E-02  0.1116382E+00
         21   -1    0    0  502  501  0.00000000000E+00  0.00000000000E+00  0.26184742881E+03  0.26184742881E+03  0.00000000000E+00 0.  1.
         21   -1    0    0  501  502 -0.00000000000E+00 -0.00000000000E+00 -0.22959369612E+03  0.22959369612E+03  0.00000000000E+00 0.  1.
         25    1    1    2    0    0  0.10866901600E+03 -0.36527167050E+02  0.80013477201E+02  0.18753758425E+03  0.12500000000E+03 0.  0.
         25    1    1    2    0    0 -0.74224113817E+02 -0.34054901781E+02 -0.46108495472E+02  0.15626883490E+03  0.12500000000E+03 0.  0.
         25    1    1    2    0    0 -0.34444902185E+02  0.70582068831E+02 -0.16512490324E+01  0.14763470578E+03  0.12500000000E+03 0.  0.
</event>
<event>
 5    0  0.5572507E-005  0.3358185E+03  0.7546771E-02  0.1068591E+00
         21   -1    0    0  502  501  0.00000000000E+00  0.00000000000E+00  0.94690346295E+02  0.94690346295E+02  0.00000000000E+00 0. -1.
         21   -1    0    0  501  502 -0.00000000000E+00 -0.00000000000E+00 -0.11909776650E+04  0.11909776650E+04  0.00000000000E+00 0. -1.
         25    1    1    2    0    0 -0.82963680995E+01  0.34139755512E+01 -0.52514869768E+03  0.53989502649E+03  0.12500000000E+03 0.  0.
         25    1    1    2    0    0 -0.38383292622E+02  0.13881289096E+03 -0.61944249148E+02  0.20051031358E+03  0.12500000000E+03 0.  0.
         25    1    1    2    0    0  0.46679660722E+02 -0.14222686651E+03 -0.50919437189E+03  0.54526267124E+03  0.12500000000E+03 0.  0.
</event>
<event>
 5    0  0.5572507E-005  0.3250938E+03  0.7546771E-02  0.1073329E+00
         21   -1    0    0  502  501  0.00000000000E+00  0.00000000000E+00  0.11529699564E+03  0.11529699564E+03  0.00000000000E+00 0.  1.
         21   -1    0    0  501  502 -0.00000000000E+00 -0.00000000000E+00 -0.91664128624E+03  0.91664128624E+03  0.00000000000E+00 0.  1.
         25    1    1    2    0    0  0.61034863576E+02 -0.16614275754E+03 -0.24460511060E+03  0.32678024816E+03  0.12500000000E+03 0.  0.
         25    1    1    2    0    0  0.24869692430E+02 -0.40800200468E+02 -0.35305205665E+03  0.37756312408E+03  0.12500000000E+03 0.  0.
         25    1    1    2    0    0 -0.85904556006E+02  0.20694295801E+03 -0.20368712335E+03  0.32759490965E+03  0.12500000000E+03 0.  0.
</event>
<event>
 5    0  0.6631177E-005  0.3953814E+03  0.7546771E-02  0.1045391E+00
         21   -1    0    0  502  501  0.00000000000E+00  0.00000000000E+00  0.30960313043E+03  0.30960313043E+03  0.00000000000E+00 0. -1.
         21   -1    0    0  501  502 -0.00000000000E+00 -0.00000000000E+00 -0.50492529685E+03  0.50492529685E+03  0.00000000000E+00 0. -1.
         25    1    1    2    0    0 -0.79225244071E+02  0.19401886643E+03  0.32991003593E+02  0.24623843353E+03  0.12500000000E+03 0.  0.
         25    1    1    2    0    0  0.16645252339E+03  0.20746685622E+02 -0.22174594239E+03  0.30484935702E+03  0.12500000000E+03 0.  0.
         25    1    1    2    0    0 -0.87227279319E+02 -0.21476555206E+03 -0.65672276241E+01  0.26344063674E+03  0.12500000000E+03 0.  0.
</event>
<event>
 5    0  0.5572507E-005  0.2943692E+03  0.7546771E-02  0.1088090E+00
         21   -1    0    0  502  501  0.00000000000E+00  0.00000000000E+00  0.11793870071E+03  0.11793870071E+03  0.00000000000E+00 0.  1.
         21   -1    0    0  501  502 -0.00000000000E+00 -0.00000000000E+00 -0.73473103909E+03  0.73473103909E+03  0.00000000000E+00 0.  1.
         25    1    1    2    0    0 -0.42084259522E+01  0.10351115872E+03 -0.19282644215E+03  0.25207004507E+03  0.12500000000E+03 0.  0.
         25    1    1    2    0    0 -0.11351171544E+02 -0.21986808910E+03 -0.27017543146E+03  0.37025746375E+03  0.12500000000E+03 0.  0.
         25    1    1    2    0    0  0.15559597496E+02  0.11635693038E+03 -0.15379046477E+03  0.23034223099E+03  0.12500000000E+03 0.  0.
</event>
<event>
 5    0  0.5572507E-005  0.4162178E+03  0.7546771E-02  0.1038304E+00
         21   -1    0    0  502  501  0.00000000000E+00  0.00000000000E+00  0.22395676248E+03  0.22395676248E+03  0.00000000000E+00 0. -1.
         21   -1    0    0  501  502 -0.00000000000E+00 -0.00000000000E+00 -0.77352995067E+03  0.77352995067E+03  0.00000000000E+00 0. -1.
         25    1    1    2    0    0  0.18912003001E+03  0.23454682394E+03 -0.12974546832E+03  0.35105196897E+03  0.12500000000E+03 0.  0.
         25    1    1    2    0    0 -0.11855705220E+03 -0.28488569522E+03 -0.33486597041E+03  0.47220318943E+03  0.12500000000E+03 0.  0.
         25    1    1    2    0    0 -0.70562977812E+02  0.50338871282E+02 -0.84961749465E+02  0.17423155475E+03  0.12500000000E+03 0.  0.
</event>
<event>
 5    0  0.5572507E-005  0.2384675E+03  0.7546771E-02  0.1120818E+00
         21   -1    0    0  502  501  0.00000000000E+00  0.00000000000E+00  0.69278598709E+02  0.69278598709E+02  0.00000000000E+00 0.  1.
         21   -1    0    0  501  502 -0.00000000000E+00 -0.00000000000E+00 -0.82084165703E+03  0.82084165703E+03  0.00000000000E+00 0.  1.
         25    1    1    2    0    0 -0.71585307713E+01  0.36585044628E+02 -0.38216063755E+03  0.40380869597E+03  0.12500000000E+03 0.  0.
         25    1    1    2    0    0 -0.47412676989E+02  0.43079762401E+02 -0.94592598835E+02  0.16934162991E+03  0.12500000000E+03 0.  0.
         25    1    1    2    0    0  0.54571207760E+02 -0.79664807029E+02 -0.27480982194E+03  0.31696992985E+03  0.12500000000E+03 0.  0.
</event>
<event>
 5    0  0.5572507E-005  0.4069016E+03  0.7546771E-02  0.1041416E+00
         21   -1    0    0  502  501  0.00000000000E+00  0.00000000000E+00  0.36573553669E+03  0.36573553669E+03  0.00000000000E+00 0.  1.
         21   -1    0    0  501  502 -0.00000000000E+00 -0.00000000000E+00 -0.45270118384E+03  0.45270118384E+03  0.00000000000E+00 0.  1.
         25    1    1    2    0    0  0.39580589219E+02 -0.16187001730E+03 -0.13405296031E+03  0.24771701942E+03  0.12500000000E+03 0.  0.
         25    1    1    2    0    0 -0.57217860764E+02  0.33012956248E+03  0.44372239114E+02  0.36035164384E+03  0.12500000000E+03 0.  0.
         25    1    1    2    0    0  0.17637271545E+02 -0.16825954518E+03  0.27150740501E+01  0.21036805727E+03  0.12500000000E+03 0.  0.
</event>
<event>
 5    0  0.5572507E-005  0.3288588E+03  0.7546771E-02  0.1071643E+00
         21   -1    0    0  502  501  0.00000000000E+00  0.00000000000E+00  0.54203886379E+03  0.54203886379E+03  0.00000000000E+00 0.  1.
         21   -1    0    0  501  502 -0.00000000000E+00 -0.00000000000E+00 -0.19952096834E+03  0.19952096834E+03  0.00000000000E+00 0.  1.
         25    1    1    2    0    0 -0.96079857841E+02  0.10530928612E+03 -0.15742213384E+01  0.18960185389E+03  0.12500000000E+03 0.  0.
         25    1    1    2    0    0  0.15179909961E+03 -0.12108710306E+03  0.63710605382E+02  0.23956021040E+03  0.12500000000E+03 0.  0.
         25    1    1    2    0    0 -0.55719241766E+02  0.15777816938E+02  0.28038151141E+03  0.31239776784E+03  0.12500000000E+03 0.  0.
</event>
<event>
 5    0  0.5572507E-005  0.3644655E+03  0.7546771E-02  0.1056830E+00
         21   -1    0    0  502  501  0.00000000000E+00  0.00000000000E+00  0.19112952627E+03  0.19112952627E+03  0.00000000000E+00 0. -1.
         21   -1    0    0  501  502 -0.00000000000E+00 -0.00000000000E+00 -0.69500059099E+03  0.69500059099E+03  0.00000000000E+00 0. -1.
         25    1    1    2    0    0 -0.71854777109E+02 -0.18732171405E+03 -0.19535594523E+03  0.30666183148E+03  0.12500000000E+03 0.  0.
         25    1    1    2    0    0  0.89053703095E+02 -0.92864273352E+02 -0.79421352899E+02  0.19618125954E+03  0.12500000000E+03 0.  0.
         25    1    1    2    0    0 -0.17198925985E+02  0.28018598740E+03 -0.22909376659E+03  0.38328702624E+03  0.12500000000E+03 0.  0.
</event>
<event>
 5    0  0.6184033E-005  0.5279339E+03  0.7546771E-02  0.1006734E+00
         21   -1    0    0  502  501  0.00000000000E+00  0.00000000000E+00  0.54288953869E+03  0.54288953869E+03  0.00000000000E+00 0.  1.
         21   -1    0    0  501  502 -0.00000000000E+00 -0.00000000000E+00 -0.51339019600E+03  0.51339019600E+03  0.00000000000E+00 0.  1.
         25    1    1    2    0    0 -0.42227901727E+02  0.89177516483E+02  0.18568857270E+03  0.24462434703E+03  0.12500000000E+03 0.  0.
         25    1    1    2    0    0 -0.21818743797E+03  0.11957693485E+03 -0.31591015202E+03  0.42110405553E+03  0.12500000000E+03 0.  0.
         25    1    1    2    0    0  0.26041533969E+03 -0.20875445133E+03  0.15972092201E+03  0.39055133212E+03  0.12500000000E+03 0.  0.
</event>
<event>
 5    0  0.5572507E-005  0.2641600E+03  0.7546771E-02  0.1104669E+00
         21   -1    0    0  502  501  0.00000000000E+00  0.00000000000E+00  0.55641416537E+03  0.55641416537E+03  0.00000000000E+00 0.  1.
         21   -1    0    0  501  502 -0.00000000000E+00 -0.00000000000E+00 -0.12541107206E+03  0.12541107206E+03  0.00000000000E+00 0.  1.
         25    1    1    2    0    0  0.93960977927E+02  0.65850517097E+00  0.36400129809E+03  0.39617047342E+03  0.12500000000E+03 0.  0.
         25    1    1    2    0    0 -0.18584781074E+02 -0.21819740919E+02  0.48043566134E+02  0.13694772517E+03  0.12500000000E+03 0.  0.
         25    1    1    2    0    0 -0.75376196853E+02  0.21161235748E+02  0.18958229090E+02  0.14870703884E+03  0.12500000000E+03 0.  0.
</event>
<event>
 5    0  0.5844880E-005  0.4930384E+03  0.7546771E-02  0.1015612E+00
         21   -1    0    0  502  501  0.00000000000E+00  0.00000000000E+00  0.26161873772E+03  0.26161873772E+03  0.00000000000E+00 0. -1.
         21   -1    0    0  501  502 -0.00000000000E+00 -0.00000000000E+00 -0.92916446605E+03  0.92916446605E+03  0.00000000000E+00 0. -1.
         25    1    1    2    0    0 -0.18551111313E+03  0.31805774684E+03 -0.21099393720E+03  0.44240088716E+03  0.12500000000E+03 0.  0.
         25    1    1    2    0    0  0.28450233406E+03 -0.11315328171E+03 -0.22047874690E+03  0.39746839004E+03  0.12500000000E+03 0.  0.
         25    1    1    2    0    0 -0.98991220930E+02 -0.20490446513E+03 -0.23607304422E+03  0.35091392657E+03  0.12500000000E+03 0.  0.
</event>
<event>
 5    0  0.5572507E-005  0.3129545E+03  0.7546771E-02  0.1078938E+00
         21   -1    0    0  502  501  0.00000000000E+00  0.00000000000E+00  0.19294180420E+04  0.19294180420E+04  0.00000000000E+00 0.  1.
         21   -1    0    0  501  502 -0.00000000000E+00 -0.00000000000E+00 -0.50761674352E+02  0.50761674352E+02  0.00000000000E+00 0.  1.
         25    1    1    2    0    0  0.10886381022E+03  0.90041290842E+02  0.48639451225E+03  0.52169280690E+03  0.12500000000E+03 0.  0.
         25    1    1    2    0    0 -0.34960713753E+02  0.22656911708E+02  0.11332230507E+04  0.11408571645E+04  0.12500000000E+03 0.  0.
         25    1    1    2    0    0 -0.73903096471E+02 -0.11269820255E+03  0.25903880463E+03  0.31762974488E+03  0.12500000000E+03 0.  0.
</event>
<event>
 5    0  0.5572507E-005  0.2821926E+03  0.7546771E-02  0.1094497E+00
         21   -1    0    0  502  501  0.00000000000E+00  0.00000000000E+00  0.76129576428E+03  0.76129576428E+03  0.00000000000E+00 0. -1.
         21   -1    0    0  501  502 -0.00000000000E+00 -0.00000000000E+00 -0.10460148009E+03  0.10460148009E+03  0.00000000000E+00 0. -1.
         25    1    1    2    0    0  0.15276418686E+03  0.99190587999E+01  0.21601443448E+03  0.29278408498E+03  0.12500000000E+03 0.  0.
         25    1    1    2    0    0 -0.85589305699E+02 -0.11377510317E+03  0.20629142341E+03  0.28009186837E+03  0.12500000000E+03 0.  0.
         25    1    1    2    0    0 -0.67174881162E+02  0.10385604437E+03  0.23438842630E+03  0.29302129102E+03  0.12500000000E+03 0.  0.
</event>
<event>
 5    0  0.5572507E-005  0.2657867E+03  0.7546771E-02  0.1103715E+00
         21   -1    0    0  502  501  0.00000000000E+00  0.00000000000E+00  0.40599359092E+02  0.40599359092E+02  0.00000000000E+00 0.  1.
         21   -1    0    0  501  502 -0.00000000000E+00 -0.00000000000E+00 -0.17399918139E+04  0.17399918139E+04  0.00000000000E+00 0.  1.
         25    1    1    2    0    0  0.12651496528E+03 -0.19532935674E+01 -0.49662574919E+03  0.52751491595E+03  0.12500000000E+03 0.  0.
         25    1    1    2    0    0 -0.36940935968E+02  0.45209455372E+01 -0.93684761471E+03  0.94588240542E+03  0.12500000000E+03 0.  0.
         25    1    1    2    0    0 -0.89574029312E+02 -0.25676519698E+01 -0.26591909094E+03  0.30719385165E+03  0.12500000000E+03 0.  0.
</event>
<event>
 5    0  0.5572507E-005  0.3027452E+03  0.7546771E-02  0.1083876E+00
         21   -1    0    0  502  501  0.00000000000E+00  0.00000000000E+00  0.25602089410E+03  0.25602089410E+03  0.00000000000E+00 0. -1.
         21   -1    0    0  501  502 -0.00000000000E+00 -0.00000000000E+00 -0.35799672517E+03  0.35799672517E+03  0.00000000000E+00 0. -1.
         25    1    1    2    0    0  0.53425330743E+02  0.26712342768E+02  0.22145473093E+02  0.14029696076E+03  0.12500000000E+03 0.  0.
         25    1    1    2    0    0  0.24794173623E+02  0.16928970741E+03 -0.58229900212E+02  0.21974866862E+03  0.12500000000E+03 0.  0.
         25    1    1    2    0    0 -0.78219504367E+02 -0.19600205018E+03 -0.65891403952E+02  0.25397198989E+03  0.12500000000E+03 0.  0.
</event>
<event>
 5    0  0.5572507E-005  0.5334622E+03  0.7546771E-02  0.1005396E+00
         21   -1    0    0  502  501  0.00000000000E+00  0.00000000000E+00  0.87902626475E+03  0.87902626475E+03  0.00000000000E+00 0.  1.
         21   -1    0    0  501  502 -0.00000000000E+00 -0.00000000000E+00 -0.32374675564E+03  0.32374675564E+03  0.00000000000E+00 0.  1.
         25    1    1    2    0    0 -0.61980584459E+02 -0.11893909765E+03 -0.21768462692E+03  0.28460445990E+03  0.12500000000E+03 0.  0.
         25    1    1    2    0    0 -0.69481774204E+02  0.11905044435E+03  0.81218145371E+02  0.20303229394E+03  0.12500000000E+03 0.  0.
         25    1    1    2    0    0  0.13146235866E+03 -0.11134669328E+00  0.69174599065E+03  0.71513626655E+03  0.12500000000E+03 0.  0.
</event>
<event>
 5    0  0.5572507E-005  0.4026296E+03  0.7546771E-02  0.1042873E+00
         21   -1    0    0  502  501  0.00000000000E+00  0.00000000000E+00  0.95564161410E+03  0.95564161410E+03  0.00000000000E+00 0.  1.
         21   -1    0    0  501  502 -0.00000000000E+00 -0.00000000000E+00 -0.16963538536E+03  0.16963538536E+03  0.00000000000E+00 0.  1.
         25    1    1    2    0    0  0.12051474742E+03 -0.36915213513E+02  0.24214912641E+03  0.30024612696E+03  0.12500000000E+03 0.  0.
         25    1    1    2    0    0  0.47954889887E+02 -0.58348127588E+02  0.57434899934E+03  0.59262631439E+03  0.12500000000E+03 0.  0.
         25    1    1    2    0    0 -0.16846963730E+03  0.95263341101E+02 -0.30491897015E+02  0.23240455812E+03  0.12500000000E+03 0.  0.
</event>
<event>
 5    0  0.5572507E-005  0.6635101E+03  0.7546771E-02  0.9781754E-01
         21   -1    0    0  502  501  0.00000000000E+00  0.00000000000E+00  0.70183770932E+03  0.70183770932E+03  0.00000000000E+00 0. -1.
         21   -1    0    0  501  502 -0.00000000000E+00 -0.00000000000E+00 -0.62727559293E+03  0.62727559293E+03  0.00000000000E+00 0. -1.
         25    1    1    2    0    0 -0.29151490908E+03 -0.26493560564E+03  0.36189072334E+03  0.54932841998E+03  0.12500000000E+03 0.  0.
         25    1    1    2    0    0 -0.80415078175E+02 -0.34513040936E+02  0.72527911425E+02  0.16894683403E+03  0.12500000000E+03 0.  0.
         25    1    1    2    0    0  0.37192998726E+03  0.29944864658E+03 -0.35985651838E+03  0.61083804824E+03  0.12500000000E+03 0.  0.
</event>
<event>
 5    0  0.5572507E-005  0.5531409E+03  0.7546771E-02  0.1000770E+00
         21   -1    0    0  502  501  0.00000000000E+00  0.00000000000E+00  0.15131490935E+04  0.15131490935E+04  0.00000000000E+00 0.  1.
         21   -1    0    0  501  502 -0.00000000000E+00 -0.00000000000E+00 -0.20220404483E+03  0.20220404483E+03  0.00000000000E+00 0.  1.
         25    1    1    2    0    0 -0.65150847327E+02 -0.16806438119E+02  0.72223278131E+02  0.15927426400E+03  0.12500000000E+03 0.  0.
         25    1    1    2    0    0  0.87456100402E+02  0.21497950767E+03  0.12887711597E+04  0.13154546212E+04  0.12500000000E+03 0.  0.
         25    1    1    2    0    0 -0.22305253076E+02 -0.19817306955E+03 -0.50049389254E+02  0.24062425309E+03  0.12500000000E+03 0.  0.
</event>
<event>
 5    0  0.5572507E-005  0.2724248E+03  0.7546771E-02  0.1099900E+00
         21   -1    0    0  502  501  0.00000000000E+00  0.00000000000E+00  0.13683764997E+03  0.13683764997E+03  0.00000000000E+00 0.  1.
         21   -1    0    0  501  502 -0.00000000000E+00 -0.00000000000E+00 -0.54236005649E+03  0.54236005649E+03  0.00000000000E+00 0.  1.
         25    1    1    2    0    0 -0.11589879843E+03 -0.95242940496E+02 -0.15976231143E+03  0.25229495703E+03  0.12500000000E+03 0.  0.
         25    1    1    2    0    0  0.46374339421E+02  0.14331389018E+03 -0.11361807662E+03  0.22632613152E+03  0.12500000000E+03 0.  0.
         25    1    1    2    0    0  0.69524459006E+02 -0.48070949683E+02 -0.13214201847E+03  0.20057661790E+03  0.12500000000E+03 0.  0.
</event>
<event>
 5    0  0.5572507E-005  0.3438275E+03  0.7546771E-02  0.1065177E+00
         21   -1    0    0  502  501  0.00000000000E+00  0.00000000000E+00  0.97493420706E+02  0.97493420706E+02  0.00000000000E+00 0. -1.
         21   -1    0    0  501  502 -0.00000000000E+00 -0.00000000000E+00 -0.12125676070E+04  0.12125676070E+04  0.00000000000E+00 0. -1.
         25    1    1    2    0    0  0.10175159528E+03 -0.50383838778E+02 -0.38821388290E+03  0.42335202519E+03  0.12500000000E+03 0.  0.
         25    1    1    2    0    0  0.21588874010E+02 -0.97092148966E+02 -0.43008088995E+02  0.16543173997E+03  0.12500000000E+03 0.  0.
         25    1    1    2    0    0 -0.12334046929E+03  0.14747598774E+03 -0.68385221439E+03  0.72127726253E+03  0.12500000000E+03 0.  0.
</event>
<event>
 5    0  0.8126002E-005  0.3758270E+03  0.7546771E-02  0.1052487E+00
         21   -1    0    0  502  501  0.00000000000E+00  0.00000000000E+00  0.32696989438E+03  0.32696989438E+03  0.00000000000E+00 0.  1.
         21   -1    0    0  501  502 -0.00000000000E+00 -0.00000000000E+00 -0.43198445702E+03  0.43198445702E+03  0.00000000000E+00 0.  1.
         25    1    1    2    0    0  0.20481866395E+03  0.96609480409E+01 -0.17353890028E+03  0.29628494550E+03  0.12500000000E+03 0.  0.
         25    1    1    2    0    0 -0.93745521504E+02  0.53300417891E+02  0.18610325701E+03  0.24877415384E+03  0.12500000000E+03 0.  0.
         25    1    1    2    0    0 -0.11107314244E+03 -0.62961365932E+02 -0.11757891937E+03  0.21389525206E+03  0.12500000000E+03 0.  0.
</event>
<event>
 5    0  0.5572507E-005  0.3226394E+03  0.7546771E-02  0.1074441E+00
         21   -1    0    0  502  501  0.00000000000E+00  0.00000000000E+00  0.53578616203E+03  0.53578616203E+03  0.00000000000E+00 0. -1.
         21   -1    0    0  501  502 -0.00000000000E+00 -0.00000000000E+00 -0.19428675849E+03  0.19428675849E+03  0.00000000000E+00 0. -1.
         25    1    1    2    0    0  0.77029978066E+02  0.73611078040E+02 -0.37186748129E+02  0.16840446125E+03  0.12500000000E+03 0.  0.
         25    1    1    2    0    0  0.92872370735E+02  0.32281196679E+02  0.71728151458E+02  0.17446283449E+03  0.12500000000E+03 0.  0.
         25    1    1    2    0    0 -0.16990234880E+03 -0.10589227472E+03  0.30695800021E+03  0.38720562479E+03  0.12500000000E+03 0.  0.
</event>
<event>
 5    0  0.5572507E-005  0.3266169E+03  0.7546771E-02  0.1072644E+00
         21   -1    0    0  502  501  0.00000000000E+00  0.00000000000E+00  0.28452696383E+03  0.28452696383E+03  0.00000000000E+00 0.  1.
         21   -1    0    0  501  502 -0.00000000000E+00 -0.00000000000E+00 -0.37493309112E+03  0.37493309112E+03  0.00000000000E+00 0.  1.
         25    1    1    2    0    0 -0.90112682917E+02  0.36139368426E+02 -0.56284434555E+02  0.16798597306E+03  0.12500000000E+03 0.  0.
         25    1    1    2    0    0  0.13283167893E+03 -0.20375567387E+03 -0.47831453993E+02  0.27762110430E+03  0.12500000000E+03 0.  0.
         25    1    1    2    0    0 -0.42718996014E+02  0.16761630544E+03  0.13709761255E+02  0.21385297759E+03  0.12500000000E+03 0.  0.
</event>
<event>
 5    0  0.5572507E-005  0.3046756E+03  0.7546771E-02  0.1082926E+00
         21   -1    0    0  502  501  0.00000000000E+00  0.00000000000E+00  0.21683029690E+04  0.21683029690E+04  0.00000000000E+00 0.  1.
         21   -1    0    0  501  502 -0.00000000000E+00 -0.00000000000E+00 -0.42811011213E+02  0.42811011213E+02  0.00000000000E+00 0.  1.
         25    1    1    2    0    0  0.81157973615E+02  0.49430678349E+02  0.63265754609E+03  0.65185165434E+03  0.12500000000E+03 0.  0.
         25    1    1    2    0    0 -0.91939836849E+02 -0.18934783176E+03  0.10507458904E+04  0.10788871401E+04  0.12500000000E+03 0.  0.
         25    1    1    2    0    0  0.10781863234E+02  0.13991715341E+03  0.44208852129E+03  0.48037518571E+03  0.12500000000E+03 0.  0.
</event>
<event>
 5    0  0.5572507E-005  0.2947586E+03  0.7546771E-02  0.1087890E+00
         21   -1    0    0  502  501  0.00000000000E+00  0.00000000000E+00  0.75469130053E+02  0.75469130053E+02  0.00000000000E+00 0.  1.
         21   -1    0    0  501  502 -0.00000000000E+00 -0.00000000000E+00 -0.11512337675E+04  0.11512337675E+04  0.00000000000E+00 0.  1.
         25    1    1    2    0    0  0.53821780907E+02  0.95498270388E+02 -0.29560604141E+03  0.33915282023E+03  0.12500000000E+03 0.  0.
         25    1    1    2    0    0 -0.11573012204E+03 -0.13517936507E+03 -0.22163843566E+03  0.31050848306E+03  0.12500000000E+03 0.  0.
         25    1    1    2    0    0  0.61908341130E+02  0.39681094684E+02 -0.55852016040E+03  0.57704159430E+03  0.12500000000E+03 0.  0.
</event>
<event>
 5    0  0.5572507E-005  0.6505622E+03  0.7546771E-02  0.9805725E-01
         21   -1    0    0  502  501  0.00000000000E+00  0.00000000000E+00  0.86627199044E+03  0.86627199044E+03  0.00000000000E+00 0.  1.
         21   -1    0    0  501  502 -0.00000000000E+00 -0.00000000000E+00 -0.48856609249E+03  0.48856609249E+03  0.00000000000E+00 0.  1.
         25    1    1    2    0    0  0.97694935836E+02  0.15079578290E+03 -0.39424322436E+03  0.45092836302E+03  0.12500000000E+03 0.  0.
         25    1    1    2    0    0 -0.18638920506E+03 -0.16294051536E+02  0.21667833085E+03  0.31237946626E+03  0.12500000000E+03 0.  0.
         25    1    1    2    0    0  0.88694269227E+02 -0.13450173136E+03  0.55527079146E+03  0.59153025365E+03  0.12500000000E+03 0.  0.
</event>
<event>
 5    0  0.5572507E-005  0.4442232E+03  0.7546771E-02  0.1029459E+00
         21   -1    0    0  502  501  0.00000000000E+00  0.00000000000E+00  0.52836937285E+03  0.52836937285E+03  0.00000000000E+00 0.  1.
         21   -1    0    0  501  502 -0.00000000000E+00 -0.00000000000E+00 -0.37347789583E+03  0.37347789583E+03  0.00000000000E+00 0.  1.
         25    1    1    2    0    0  0.19676084448E+03 -0.20646778957E+03  0.15995931791E+03  0.35007965013E+03  0.12500000000E+03 0.  0.
         25    1    1    2    0    0 -0.22768754542E+03  0.74918430382E+02 -0.15741075979E+03  0.31282189317E+03  0.12500000000E+03 0.  0.
         25    1    1    2    0    0  0.30926700935E+02  0.13154935919E+03  0.15234291890E+03  0.23894572537E+03  0.12500000000E+03 0.  0.
</event>
<event>
 5    0  0.5572507E-005  0.3052402E+03  0.7546771E-02  0.1082650E+00
         21   -1    0    0  502  501  0.00000000000E+00  0.00000000000E+00  0.15036778373E+03  0.15036778373E+03  0.00000000000E+00 0. -1.
         21   -1    0    0  501  502 -0.00000000000E+00 -0.00000000000E+00 -0.61962475513E+03  0.61962475513E+03  0.00000000000E+00 0. -1.
         25    1    1    2    0    0  0.29051954173E+01 -0.15853774417E+03 -0.35652954640E+03  0.40973280799E+03  0.12500000000E+03 0.  0.
         25    1    1    2    0    0  0.83052790012E+02  0.65092006134E+02 -0.62783531906E+02  0.17521845528E+03  0.12500000000E+03 0.  0.
         25    1    1    2    0    0 -0.85957985429E+02  0.93445738039E+02 -0.49943893094E+02  0.18504127560E+03  0.12500000000E+03 0.  0.
</event>
<event>
 5    0  0.5572507E-005  0.2827159E+03  0.7546771E-02  0.1094215E+00
         21   -1    0    0  502  501  0.00000000000E+00  0.00000000000E+00  0.38512253133E+03  0.38512253133E+03  0.00000000000E+00 0.  1.
         21   -1    0    0  501  502 -0.00000000000E+00 -0.00000000000E+00 -0.20753984190E+03  0.20753984190E+03  0.00000000000E+00 0.  1.
         25    1    1    2    0    0  0.88438995188E+01 -0.41052222619E+02  0.23367009880E+03  0.26830992269E+03  0.12500000000E+03 0.  0.
         25    1    1    2    0    0 -0.47779096735E+02 -0.42731437316E+02  0.34220947890E+02  0.14458523816E+03  0.12500000000E+03 0.  0.
         25    1    1    2    0    0  0.38935197216E+02  0.83783659935E+02 -0.90308357267E+02  0.17976721238E+03  0.12500000000E+03 0.  0.
</event>
<event>
 5    0  0.6669477E-005  0.3557788E+03  0.7546771E-02  0.1060268E+00
         21   -1    0    0  502  501  0.00000000000E+00  0.00000000000E+00  0.38166904825E+03  0.38166904825E+03  0.00000000000E+00 0. -1.
         21   -1    0    0  501  502 -0.00000000000E+00 -0.00000000000E+00 -0.33164479310E+03  0.33164479310E+03  0.00000000000E+00 0. -1.
         25    1    1    2    0    0 -0.84946459615E+02 -0.12133009206E+03  0.11710755557E+03  0.22644220413E+03  0.12500000000E+03 0.  0.
         25    1    1    2    0    0 -0.23874859066E+02  0.11858750748E+03  0.13881267589E+03  0.22254654527E+03  0.12500000000E+03 0.  0.
         25    1    1    2    0    0  0.10882131868E+03  0.27425845783E+01 -0.20589597631E+03  0.26432509195E+03  0.12500000000E+03 0.  0.
</event>
<event>
 5    0  0.5572507E-005  0.3733123E+03  0.7546771E-02  0.1053434E+00
         21   -1    0    0  502  501  0.00000000000E+00  0.00000000000E+00  0.60775366273E+03  0.60775366273E+03  0.00000000000E+00 0.  1.
         21   -1    0    0  501  502 -0.00000000000E+00 -0.00000000000E+00 -0.22930681733E+03  0.22930681733E+03  0.00000000000E+00 0.  1.
         25    1    1    2    0    0  0.20796437437E+02  0.75848261799E+02  0.22090749192E+03  0.26572649588E+03  0.12500000000E+03 0.  0.
         25    1    1    2    0    0 -0.27248273048E+02  0.19748233349E+03  0.76812634728E+01  0.23542672370E+03  0.12500000000E+03 0.  0.
         25    1    1    2    0    0  0.64518356113E+01 -0.27333059529E+03  0.14985809000E+03  0.33590726048E+03  0.12500000000E+03 0.  0.
</event>
<event>
 5    0  0.5572507E-005  0.4034267E+03  0.7546771E-02  0.1042600E+00
         21   -1    0    0  502  501  0.00000000000E+00  0.00000000000E+00  0.12693749878E+03  0.12693749878E+03  0.00000000000E+00 0. -1.
         21   -1    0    0  501  502 -0.00000000000E+00 -0.00000000000E+00 -0.12821514860E+04  0.12821514860E+04  0.00000000000E+00 0. -1.
         25    1    1    2    0    0 -0.20463642285E+03  0.23160728398E+02 -0.42391894279E+03  0.48759076585E+03  0.12500000000E+03 0.  0.
         25    1    1    2    0    0  0.29465517261E+03 -0.10806865649E+03 -0.63913818063E+03  0.72292677306E+03  0.12500000000E+03 0.  0.
         25    1    1    2    0    0 -0.90018749766E+02  0.84907928095E+02 -0.92156863778E+02  0.19857144584E+03  0.12500000000E+03 0.  0.
</event>
<event>
 5    0  0.5572507E-005  0.2609282E+03  0.7546771E-02  0.1106587E+00
         21   -1    0    0  502  501  0.00000000000E+00  0.00000000000E+00  0.95563997855E+02  0.95563997855E+02  0.00000000000E+00 0.  1.
         21   -1    0    0  501  502 -0.00000000000E+00 -0.00000000000E+00 -0.71243915425E+03  0.71243915425E+03  0.00000000000E+00 0.  1.
         25    1    1    2    0    0  0.55504477918E+02  0.67742620011E+02 -0.10647874700E+03  0.18609818161E+03  0.12500000000E+03 0.  0.
         25    1    1    2    0    0 -0.52051646809E+02  0.10124164309E+02 -0.60767944381E+02  0.14876026251E+03  0.12500000000E+03 0.  0.
         25    1    1    2    0    0 -0.34528311090E+01 -0.77866784320E+02 -0.44962846502E+03  0.47314470799E+03  0.12500000000E+03 0.  0.
</event>
<event>
 5    0  0.5572507E-005  0.2556303E+03  0.7546771E-02  0.1109797E+00
         21   -1    0    0  502  501  0.00000000000E+00  0.00000000000E+00  0.27305784038E+03  0.27305784038E+03  0.00000000000E+00 0.  1.
         21   -1    0    0  501  502 -0.00000000000E+00 -0.00000000000E+00 -0.23931502682E+03  0.23931502682E+03  0.00000000000E+00 0.  1.
         25    1    1    2    0    0 -0.11470747599E+03 -0.27406031797E+02 -0.26440332411E+02  0.17387635493E+03  0.12500000000E+03 0.  0.
         25    1    1    2    0    0  0.34375417357E+02  0.83500854098E+02  0.87561808305E+02  0.17733057330E+03  0.12500000000E+03 0.  0.
         25    1    1    2    0    0  0.80332058632E+02 -0.56094822301E+02 -0.27378662328E+02  0.16116593897E+03  0.12500000000E+03 0.  0.
</event>
<event>
 5    0  0.5572507E-005  0.4456750E+03  0.7546771E-02  0.1029020E+00
         21   -1    0    0  502  501  0.00000000000E+00  0.00000000000E+00  0.62886594525E+03  0.62886594525E+03  0.00000000000E+00 0. -1.
         21   -1    0    0  501  502 -0.00000000000E+00 -0.00000000000E+00 -0.31584820822E+03  0.31584820822E+03  0.00000000000E+00 0. -1.
         25    1    1    2    0    0  0.42831359933E+02  0.57337595669E+02 -0.23293262823E+03  0.27386992271E+03  0.12500000000E+03 0.  0.
         25    1    1    2    0    0 -0.15166326691E+03  0.32301465737E+02  0.31629719508E+03  0.37378342236E+03  0.12500000000E+03 0.  0.
         25    1    1    2    0    0  0.10883190698E+03 -0.89639061405E+02  0.22965317019E+03  0.29706080840E+03  0.12500000000E+03 0.  0.
</event>
<event>
 5    0  0.5572507E-005  0.3170767E+03  0.7546771E-02  0.1077003E+00
         21   -1    0    0  502  501  0.00000000000E+00  0.00000000000E+00  0.59203481207E+03  0.59203481207E+03  0.00000000000E+00 0.  1.
         21   -1    0    0  501  502 -0.00000000000E+00 -0.00000000000E+00 -0.16981711962E+03  0.16981711962E+03  0.00000000000E+00 0.  1.
         25    1    1    2    0    0 -0.17842457936E+03  0.11852404910E+02  0.33784729138E+02  0.22077639807E+03  0.12500000000E+03 0.  0.
         25    1    1    2    0    0  0.18989890965E+03  0.23704996289E+02  0.32141065490E+03  0.39440249976E+03  0.12500000000E+03 0.  0.
         25    1    1    2    0    0 -0.11474330294E+02 -0.35557401199E+02  0.67022308418E+02  0.14667303386E+03  0.12500000000E+03 0.  0.
</event>
<event>
 5    0  0.5572507E-005  0.4434926E+03  0.7546771E-02  0.1029681E+00
         21   -1    0    0  502  501  0.00000000000E+00  0.00000000000E+00  0.83718725123E+02  0.83718725123E+02  0.00000000000E+00 0.  1.
         21   -1    0    0  501  502 -0.00000000000E+00 -0.00000000000E+00 -0.23493633382E+04  0.23493633382E+04  0.00000000000E+00 0.  1.
         25    1    1    2    0    0  0.82974428359E+02  0.86882697335E+02 -0.23585661916E+03  0.29272291277E+03  0.12500000000E+03 0.  0.
         25    1    1    2    0    0 -0.22522779456E+03 -0.59997158435E+02 -0.29963794885E+03  0.39966876141E+03  0.12500000000E+03 0.  0.
         25    1    1    2    0    0  0.14225336620E+03 -0.26885538900E+02 -0.17301500450E+04  0.17406903891E+04  0.12500000000E+03 0.  0.
</event>
<event>
 5    0  0.5572507E-005  0.2886765E+03  0.7546771E-02  0.1091042E+00
         21   -1    0    0  502  501  0.00000000000E+00  0.00000000000E+00  0.40526785861E+03  0.40526785861E+03  0.00000000000E+00 0.  1.
         21   -1    0    0  501  502 -0.00000000000E+00 -0.00000000000E+00 -0.20562726461E+03  0.20562726461E+03  0.00000000000E+00 0.  1.
         25    1    1    2    0    0  0.85796309961E+02  0.12785851997E+03  0.36419023668E+01  0.19836096235E+03  0.12500000000E+03 0.  0.
         25    1    1    2    0    0  0.61745023444E+02 -0.85702318754E+02  0.10700276922E+03  0.19552986468E+03  0.12500000000E+03 0.  0.
         25    1    1    2    0    0 -0.14754133341E+03 -0.42156201212E+02  0.88995922407E+02  0.21700429620E+03  0.12500000000E+03 0.  0.
</event>
<event>
 5    0  0.5572507E-005  0.6005022E+03  0.7546771E-02  0.9904365E-01
         21   -1    0    0  502  501  0.00000000000E+00  0.00000000000E+00  0.91982386591E+03  0.91982386591E+03  0.00000000000E+00 0.  1.
         21   -1    0    0  501  502 -0.00000000000E+00 -0.00000000000E+00 -0.39203471651E+03  0.39203471651E+03  0.00000000000E+00 0.  1.
         25    1    1    2    0    0  0.47849282484E+01  0.11519650908E+01  0.26311461677E+03  0.29133919084E+03  0.12500000000E+03 0.  0.
         25    1    1    2    0    0 -0.35125248019E+03 -0.25295906352E+03 -0.78883997444E+02  0.45739947279E+03  0.12500000000E+03 0.  0.
         25    1    1    2    0    0  0.34646755194E+03  0.25180709842E+03  0.34355853007E+03  0.56311991880E+03  0.12500000000E+03 0.  0.
</event>
<event>
 5    0  0.5572507E-005  0.3036558E+03  0.7546771E-02  0.1083427E+00
         21   -1    0    0  502  501  0.00000000000E+00  0.00000000000E+00  0.55155492717E+02  0.55155492717E+02  0.00000000000E+00 0.  1.
         21   -1    0    0  501  502 -0.00000000000E+00 -0.00000000000E+00 -0.16717617743E+04  0.16717617743E+04  0.00000000000E+00 0.  1.
         25    1    1    2    0    0 -0.72644561233E+02  0.19598254451E+02 -0.91747191522E+03  0.92900002103E+03  0.12500000000E+03 0.  0.
         25    1    1    2    0    0  0.15057318345E+03 -0.94364458948E+02 -0.43794520310E+03  0.48887415109E+03  0.12500000000E+03 0.  0.
         25    1    1    2    0    0 -0.77928622214E+02  0.74766204497E+02 -0.26118916323E+03  0.30904309487E+03  0.12500000000E+03 0.  0.
</event>
<event>
 5    0  0.6157681E-005  0.3217691E+03  0.7546771E-02  0.1074838E+00
         21   -1    0    0  502  501  0.00000000000E+00  0.00000000000E+00  0.51257681422E+03  0.51257681422E+03  0.00000000000E+00 0.  1.
         21   -1    0    0  501  502 -0.00000000000E+00 -0.00000000000E+00 -0.20198994965E+03  0.20198994965E+03  0.00000000000E+00 0.  1.
         25    1    1    2    0    0 -0.58570889321E+01  0.94342672273E+02  0.27152302693E+03  0.31350374712E+03  0.12500000000E+03 0.  0.
         25    1    1    2    0    0  0.10437137739E+03 -0.70635245564E+02  0.12646556107E+03  0.21794783888E+03  0.12500000000E+03 0.  0.
         25    1    1    2    0    0 -0.98514288461E+02 -0.23707426709E+02 -0.87401723429E+02  0.18311517788E+03  0.12500000000E+03 0.  0.
</event>
<event>
 5    0  0.5572507E-005  0.3207550E+03  0.7546771E-02  0.1075302E+00
         21   -1    0    0  502  501  0.00000000000E+00  0.00000000000E+00  0.76228713333E+03  0.76228713333E+03  0.00000000000E+00 0. -1.
         21   -1    0    0  501  502 -0.00000000000E+00 -0.00000000000E+00 -0.13496725272E+03  0.13496725272E+03  0.00000000000E+00 0. -1.
         25    1    1    2    0    0 -0.74373472968E+02  0.88407645336E+02  0.41640349471E+03  0.44984908096E+03  0.12500000000E+03 0.  0.
         25    1    1    2    0    0 -0.71275277637E+02 -0.56893331530E+02 -0.75298520363E+01  0.15491518662E+03  0.12500000000E+03 0.  0.
         25    1    1    2    0    0  0.14564875060E+03 -0.31514313806E+02  0.21844623794E+03  0.29249011846E+03  0.12500000000E+03 0.  0.
</event>
<event>
 5    0  0.5572507E-005  0.2488233E+03  0.7546771E-02  0.1114051E+00
         21   -1    0    0  502  501  0.00000000000E+00  0.00000000000E+00  0.48949526269E+02  0.48949526269E+02  0.00000000000E+00 0.  1.
         21   -1    0    0  501  502 -0.00000000000E+00 -0.00000000000E+00 -0.12648337446E+04  0.12648337446E+04  0.00000000000E+00 0.  1.
         25    1    1    2    0    0 -0.10163796022E+03 -0.65695225498E+02 -0.52383102150E+03  0.55196927152E+03  0.12500000000E+03 0.  0.
         25    1    1    2    0    0  0.22808797836E+02  0.97124299558E+02 -0.43729972975E+03  0.46562798935E+03  0.12500000000E+03 0.  0.
         25    1    1    2    0    0  0.78829162380E+02 -0.31429074060E+02 -0.25475346711E+03  0.29618601004E+03  0.12500000000E+03 0.  0.
</event>
<event>
 5    0  0.5572507E-005  0.3040993E+03  0.7546771E-02  0.1083209E+00
         21   -1    0    0  502  501  0.00000000000E+00  0.00000000000E+00  0.54880976019E+03  0.54880976019E+03  0.00000000000E+00 0. -1.
         21   -1    0    0  501  502 -0.00000000000E+00 -0.00000000000E+00 -0.16850357351E+03  0.16850357351E+03  0.00000000000E+00 0. -1.
         25    1    1    2    0    0  0.62044636640E+02  0.16486781899E+03  0.20280336149E+03  0.29628556851E+03  0.12500000000E+03 0.  0.
         25    1    1    2    0    0 -0.46219855411E+01  0.34288938989E+02  0.17492682425E+02  0.13087432149E+03  0.12500000000E+03 0.  0.
         25    1    1    2    0    0 -0.57422651099E+02 -0.19915675798E+03  0.16001014277E+03  0.29015344371E+03  0.12500000000E+03 0.  0.
</event>
<event>
 5    0  0.6982869E-005  0.2777405E+03  0.7546771E-02  0.1096929E+00
         21   -1    0    0  502  501  0.00000000000E+00  0.00000000000E+00  0.22406418769E+03  0.22406418769E+03  0.00000000000E+00 0. -1.
         21   -1    0    0  501  502 -0.00000000000E+00 -0.00000000000E+00 -0.34427533646E+03  0.34427533646E+03  0.00000000000E+00 0. -1.
         25    1    1    2    0    0  0.11507986325E+03  0.31775679627E+02  0.24950459758E+02  0.17464419310E+03  0.12500000000E+03 0.  0.
         25    1    1    2    0    0 -0.10956902260E+03  0.57146849192E+02 -0.16229621462E+03  0.23924087102E+03  0.12500000000E+03 0.  0.
         25    1    1    2    0    0 -0.55108406516E+01 -0.88922528818E+02  0.17134606088E+02  0.15445446003E+03  0.12500000000E+03 0.  0.
</event>
<event>
 5    0  0.5572507E-005  0.2673651E+03  0.7546771E-02  0.1102797E+00
         21   -1    0    0  502  501  0.00000000000E+00  0.00000000000E+00  0.29207420014E+04  0.29207420014E+04  0.00000000000E+00 0. -1.
         21   -1    0    0  501  502 -0.00000000000E+00 -0.00000000000E+00 -0.24474635864E+02  0.24474635864E+02  0.00000000000E+00 0. -1.
         25    1    1    2    0    0  0.54896606363E+02  0.10286310781E+03  0.13698158486E+04  0.13804401165E+04  0.12500000000E+03 0.  0.
         25    1    1    2    0    0  0.12133011975E+02 -0.11886935447E+03  0.51389257828E+03  0.54220634027E+03  0.12500000000E+03 0.  0.
         25    1    1    2    0    0 -0.67029618337E+02  0.16006246663E+02  0.10125589387E+04  0.10225701805E+04  0.12500000000E+03 0.  0.
</event>
<event>
 5    0  0.6202373E-005  0.3385372E+03  0.7546771E-02  0.1067421E+00
         21   -1    0    0  502  501  0.00000000000E+00  0.00000000000E+00  0.47946968916E+03  0.47946968916E+03  0.00000000000E+00 0. -1.
         21   -1    0    0  501  502 -0.00000000000E+00 -0.00000000000E+00 -0.23902960804E+03  0.23902960804E+03  0.00000000000E+00 0. -1.
         25    1    1    2    0    0 -0.10576002289E+03 -0.14954529523E+03  0.24856727915E+02  0.22314084048E+03  0.12500000000E+03 0.  0.
         25    1    1    2    0    0 -0.36314738258E+02  0.20858940468E+03  0.14184795562E+03  0.28385584806E+03  0.12500000000E+03 0.  0.
         25    1    1    2    0    0  0.14207476115E+03 -0.59044109450E+02  0.73735397581E+02  0.21150260867E+03  0.12500000000E+03 0.  0.
</event>
<event>
 5    0  0.5572507E-005  0.2871607E+03  0.7546771E-02  0.1091841E+00
         21   -1    0    0  502  501  0.00000000000E+00  0.00000000000E+00  0.12005910087E+04  0.12005910087E+04  0.00000000000E+00 0.  1.
         21   -1    0    0  501  502 -0.00000000000E+00 -0.00000000000E+00 -0.68683885079E+02  0.68683885079E+02  0.00000000000E+00 0.  1.
         25    1    1    2    0    0 -0.39883260844E+02 -0.46588087711E+02  0.40196984222E+03  0.42540084445E+03  0.12500000000E+03 0.  0.
         25    1    1    2    0    0  0.93901702730E+02  0.16222443022E+03  0.27749430471E+03  0.35743864464E+03  0.12500000000E+03 0.  0.
         25    1    1    2    0    0 -0.54018441886E+02 -0.11563634251E+03  0.45244297669E+03  0.48643540468E+03  0.12500000000E+03 0.  0.
</event>
<event>
 5    0  0.5572507E-005  0.2722631E+03  0.7546771E-02  0.1099991E+00
         21   -1    0    0  502  501  0.00000000000E+00  0.00000000000E+00  0.12960482223E+03  0.12960482223E+03  0.00000000000E+00 0.  1.
         21   -1    0    0  501  502 -0.00000000000E+00 -0.00000000000E+00 -0.57194780731E+03  0.57194780731E+03  0.00000000000E+00 0.  1.
         25    1    1    2    0    0 -0.13598375062E+03 -0.87784459294E+02 -0.27112713491E+03  0.33960655914E+03  0.12500000000E+03 0.  0.
         25    1    1    2    0    0  0.80712789919E+02  0.99934950212E+02 -0.11893823732E+03  0.21511125732E+03  0.12500000000E+03 0.  0.
         25    1    1    2    0    0  0.55270960700E+02 -0.12150490918E+02 -0.52277612843E+02  0.14683481308E+03  0.12500000000E+03 0.  0.
</event>
<event>
 5    0  0.5707467E-005  0.2762046E+03  0.7546771E-02  0.1097780E+00
         21   -1    0    0  502  501  0.00000000000E+00  0.00000000000E+00  0.30863287902E+03  0.30863287902E+03  0.00000000000E+00 0. -1.
         21   -1    0    0  501  502 -0.00000000000E+00 -0.00000000000E+00 -0.24718362008E+03  0.24718362008E+03  0.00000000000E+00 0. -1.
         25    1    1    2    0    0 -0.83474038379E+01  0.35364449536E+02  0.14757813461E+03  0.19678574455E+03  0.12500000000E+03 0.  0.
         25    1    1    2    0    0  0.56299083260E+02  0.72425477755E+02 -0.10327800877E+03  0.18629649406E+03  0.12500000000E+03 0.  0.
         25    1    1    2    0    0 -0.47951679422E+02 -0.10778992729E+03  0.17149133093E+02  0.17273426050E+03  0.12500000000E+03 0.  0.
</event>
<event>
 5    0  0.5572507E-005  0.4705710E+03  0.7546771E-02  0.1021759E+00
         21   -1    0    0  502  501  0.00000000000E+00  0.00000000000E+00  0.18574237879E+04  0.18574237879E+04  0.00000000000E+00 0. -1.
         21   -1    0    0  501  502 -0.00000000000E+00 -0.00000000000E+00 -0.11921729951E+03  0.11921729951E+03  0.00000000000E+00 0. -1.
         25    1    1    2    0    0  0.19773654612E+02 -0.18428400016E+03  0.22330114741E+03  0.31597467076E+03  0.12500000000E+03 0.  0.
         25    1    1    2    0    0 -0.47569367378E+02 -0.47705842386E+02  0.13299692842E+04  0.13375283134E+04  0.12500000000E+03 0.  0.
         25    1    1    2    0    0  0.27795712766E+02  0.23198984254E+03  0.18493605675E+03  0.32313810326E+03  0.12500000000E+03 0.  0.
</event>
<event>
 5    0  0.5572507E-005  0.2986044E+03  0.7546771E-02  0.1085940E+00
         21   -1    0    0  502  501  0.00000000000E+00  0.00000000000E+00  0.26809295470E+04  0.26809295470E+04  0.00000000000E+00 0.  1.
         21   -1    0    0  501  502 -0.00000000000E+00 -0.00000000000E+00 -0.33258838739E+02  0.33258838739E+02  0.00000000000E+00 0.  1.
         25    1    1    2    0    0 -0.11496835952E+03  0.19412612852E+02  0.13424099663E+04  0.13532494563E+04  0.12500000000E+03 0.  0.
         25    1    1    2    0    0 -0.81532664202E+02 -0.79112194428E+01  0.58982393029E+03  0.60846317182E+03  0.12500000000E+03 0.  0.
         25    1    1    2    0    0  0.19650102372E+03 -0.11501393409E+02  0.71543681167E+03  0.75247575766E+03  0.12500000000E+03 0.  0.
</event>
<event>
 5    0  0.5572507E-005  0.3662004E+03  0.7546771E-02  0.1056155E+00
         21   -1    0    0  502  501  0.00000000000E+00  0.00000000000E+00  0.57279105980E+03  0.57279105980E+03  0.00000000000E+00 0.  1.
         21   -1    0    0  501  502 -0.00000000000E+00 -0.00000000000E+00 -0.23412151639E+03  0.23412151639E+03  0.00000000000E+00 0.  1.
         25    1    1    2    0    0 -0.11962607773E+03  0.17305589354E+03 -0.12206172291E+02  0.24501577787E+03  0.12500000000E+03 0.  0.
         25    1    1    2    0    0  0.30394007403E+02 -0.92160309241E+01  0.30712594903E+03  0.33310670885E+03  0.12500000000E+03 0.  0.
         25    1    1    2    0    0  0.89232070326E+02 -0.16383986262E+03  0.43749766664E+02  0.22879008947E+03  0.12500000000E+03 0.  0.
</event>
<event>
 5    0  0.5572507E-005  0.4403059E+03  0.7546771E-02  0.1030653E+00
         21   -1    0    0  502  501  0.00000000000E+00  0.00000000000E+00  0.91489448656E+02  0.91489448656E+02  0.00000000000E+00 0.  1.
         21   -1    0    0  501  502 -0.00000000000E+00 -0.00000000000E+00 -0.21190346333E+04  0.21190346333E+04  0.00000000000E+00 0.  1.
         25    1    1    2    0    0 -0.28175209849E+03  0.57075983397E+02 -0.11357925850E+04  0.11782579127E+04  0.12500000000E+03 0.  0.
         25    1    1    2    0    0  0.17475353487E+03  0.14180905789E+03 -0.51221967410E+03  0.57327358337E+03  0.12500000000E+03 0.  0.
         25    1    1    2    0    0  0.10699856361E+03 -0.19888504128E+03 -0.37953292557E+03  0.45899258584E+03  0.12500000000E+03 0.  0.
</event>
<event>
 5    0  0.5572507E-005  0.2597908E+03  0.7546771E-02  0.1107269E+00
         21   -1    0    0  502  501  0.00000000000E+00  0.00000000000E+00  0.13486656052E+03  0.13486656052E+03  0.00000000000E+00 0.  1.
         21   -1    0    0  501  502 -0.00000000000E+00 -0.00000000000E+00 -0.50042980585E+03  0.50042980585E+03  0.00000000000E+00 0.  1.
         25    1    1    2    0    0  0.62594144829E+02  0.14861110444E+00  0.39326196560E+02  0.14522258360E+03  0.12500000000E+03 0.  0.
         25    1    1    2    0    0  0.75743748768E+01 -0.26004014474E+02 -0.22269032569E+03  0.25680646619E+03  0.12500000000E+03 0.  0.
         25    1    1    2    0    0 -0.70168519705E+02  0.25855403369E+02 -0.18219911620E+03  0.23326731659E+03  0.12500000000E+03 0.  0.
</event>
<event>
 5    0  0.5702619E-005  0.2709827E+03  0.7546771E-02  0.1100718E+00
         21   -1    0    0  502  501  0.00000000000E+00  0.00000000000E+00  0.23268644809E+03  0.23268644809E+03  0.00000000000E+00 0.  1.
         21   -1    0    0  501  502 -0.00000000000E+00 -0.00000000000E+00 -0.31558194943E+03  0.31558194943E+03  0.00000000000E+00 0.  1.
         25    1    1    2    0    0  0.11732416006E+02  0.14167175556E+03 -0.24570649172E+02  0.19088544394E+03  0.12500000000E+03 0.  0.
         25    1    1    2    0    0 -0.10263836859E+03 -0.97977736829E+02 -0.54187779063E+02  0.19671193919E+03  0.12500000000E+03 0.  0.
         25    1    1    2    0    0  0.90905952582E+02 -0.43694018730E+02 -0.41370731038E+01  0.16067101438E+03  0.12500000000E+03 0.  0.
</event>
<event>
 5    0  0.5572507E-005  0.2719316E+03  0.7546771E-02  0.1100179E+00
         21   -1    0    0  502  501  0.00000000000E+00  0.00000000000E+00  0.33362547039E+02  0.33362547039E+02  0.00000000000E+00 0.  1.
         21   -1    0    0  501  502 -0.00000000000E+00 -0.00000000000E+00 -0.22164608706E+04  0.22164608706E+04  0.00000000000E+00 0.  1.
         25    1    1    2    0    0  0.98647166213E+02  0.36805146805E+02 -0.45118409727E+03  0.47987287052E+03  0.12500000000E+03 0.  0.
         25    1    1    2    0    0  0.32131061977E+02  0.15161451848E+02 -0.31746496504E+03  0.34303247484E+03  0.12500000000E+03 0.  0.
         25    1    1    2    0    0 -0.13077822819E+03 -0.51966598653E+02 -0.14144492613E+04  0.14269180723E+04  0.12500000000E+03 0.  0.
</event>
<event>
 5    0  0.5572507E-005  0.4921642E+03  0.7546771E-02  0.1015845E+00
         21   -1    0    0  502  501  0.00000000000E+00  0.00000000000E+00  0.51727776080E+03  0.51727776080E+03  0.00000000000E+00 0. -1.
         21   -1    0    0  501  502 -0.00000000000E+00 -0.00000000000E+00 -0.46826995600E+03  0.46826995600E+03  0.00000000000E+00 0. -1.
         25    1    1    2    0    0 -0.13066603002E+03  0.14664574529E+02  0.42595706333E+03  0.46298280848E+03  0.12500000000E+03 0.  0.
         25    1    1    2    0    0 -0.32048571875E+02 -0.48627160719E+02 -0.22906114366E+03  0.26736813433E+03  0.12500000000E+03 0.  0.
         25    1    1    2    0    0  0.16271460190E+03  0.33962586190E+02 -0.14788811487E+03  0.25519677398E+03  0.12500000000E+03 0.  0.
</event>
<event>
 5    0  0.5572507E-005  0.3103691E+03  0.7546771E-02  0.1080169E+00
         21   -1    0    0  502  501  0.00000000000E+00  0.00000000000E+00  0.42440047634E+03  0.42440047634E+03  0.00000000000E+00 0.  1.
         21   -1    0    0  501  502 -0.00000000000E+00 -0.00000000000E+00 -0.22697661192E+03  0.22697661192E+03  0.00000000000E+00 0.  1.
         25    1    1    2    0    0 -0.12820145848E+03  0.51564299246E+02  0.27550594842E+03  0.33260038865E+03  0.12500000000E+03 0.  0.
         25    1    1    2    0    0  0.69925272991E+02  0.33302042561E+02 -0.40782685700E+02  0.15260012220E+03  0.12500000000E+03 0.  0.
         25    1    1    2    0    0  0.58276185484E+02 -0.84866341808E+02 -0.37299398305E+02  0.16617657741E+03  0.12500000000E+03 0.  0.
</event>
<event>
 5    0  0.5572507E-005  0.2254923E+03  0.7546771E-02  0.1129853E+00
         21   -1    0    0  502  501  0.00000000000E+00  0.00000000000E+00  0.21579013649E+03  0.21579013649E+03  0.00000000000E+00 0. -1.
         21   -1    0    0  501  502 -0.00000000000E+00 -0.00000000000E+00 -0.23563073779E+03  0.23563073779E+03  0.00000000000E+00 0. -1.
         25    1    1    2    0    0  0.10710701976E+02 -0.23446503791E+02 -0.67712340454E+02  0.14447982117E+03  0.12500000000E+03 0.  0.
         25    1    1    2    0    0 -0.54451052596E+02  0.80970204130E+02  0.30949424424E+02  0.16156719332E+03  0.12500000000E+03 0.  0.
         25    1    1    2    0    0  0.43740350620E+02 -0.57523700339E+02  0.16922314735E+02  0.14537385979E+03  0.12500000000E+03 0.  0.
</event>
<event>
 5    0  0.5572507E-005  0.3126984E+03  0.7546771E-02  0.1079060E+00
         21   -1    0    0  502  501  0.00000000000E+00  0.00000000000E+00  0.16894309746E+04  0.16894309746E+04  0.00000000000E+00 0. -1.
         21   -1    0    0  501  502 -0.00000000000E+00 -0.00000000000E+00 -0.57877664443E+02  0.57877664443E+02  0.00000000000E+00 0. -1.
         25    1    1    2    0    0 -0.76100080610E+02 -0.13256790272E+03  0.33519243340E+03  0.38903012545E+03  0.12500000000E+03 0.  0.
         25    1    1    2    0    0  0.15636742068E+03  0.14211478256E+03  0.95149316616E+03  0.98265539582E+03  0.12500000000E+03 0.  0.
         25    1    1    2    0    0 -0.80267340070E+02 -0.95468798469E+01  0.34486771058E+03  0.37562311777E+03  0.12500000000E+03 0.  0.
</event>
<event>
 5    0  0.5572507E-005  0.4565807E+03  0.7546771E-02  0.1025778E+00
         21   -1    0    0  502  501  0.00000000000E+00  0.00000000000E+00  0.44176943467E+03  0.44176943467E+03  0.00000000000E+00 0. -1.
         21   -1    0    0  501  502 -0.00000000000E+00 -0.00000000000E+00 -0.47188850407E+03  0.47188850407E+03  0.00000000000E+00 0. -1.
         25    1    1    2    0    0  0.14096324235E+01 -0.66695299132E+02 -0.43187709837E+02  0.14812301736E+03  0.12500000000E+03 0.  0.
         25    1    1    2    0    0 -0.66806235811E+02 -0.22265612351E+03  0.25178351760E+03  0.36477220593E+03  0.12500000000E+03 0.  0.
         25    1    1    2    0    0  0.65396603388E+02  0.28935142265E+03 -0.23871487717E+03  0.40076271546E+03  0.12500000000E+03 0.  0.
</event>
<event>
 5    0  0.5572507E-005  0.2158747E+03  0.7546771E-02  0.1136997E+00
         21   -1    0    0  502  501  0.00000000000E+00  0.00000000000E+00  0.48513148376E+02  0.48513148376E+02  0.00000000000E+00 0.  1.
         21   -1    0    0  501  502 -0.00000000000E+00 -0.00000000000E+00 -0.96060316960E+03  0.96060316960E+03  0.00000000000E+00 0.  1.
         25    1    1    2    0    0 -0.13222709008E+02  0.49111288842E+01 -0.11505790631E+03  0.17047662897E+03  0.12500000000E+03 0.  0.
         25    1    1    2    0    0 -0.15455845709E+02 -0.23544598233E+02 -0.33136550683E+03  0.35527641406E+03  0.12500000000E+03 0.  0.
         25    1    1    2    0    0  0.28678554716E+02  0.18633469349E+02 -0.46566660808E+03  0.48336327495E+03  0.12500000000E+03 0.  0.
</event>
<event>
 5    0  0.5572507E-005  0.2612022E+03  0.7546771E-02  0.1106423E+00
         21   -1    0    0  502  501  0.00000000000E+00  0.00000000000E+00  0.53178261430E+02  0.53178261430E+02  0.00000000000E+00 0.  1.
         21   -1    0    0  501  502 -0.00000000000E+00 -0.00000000000E+00 -0.12829785846E+04  0.12829785846E+04  0.00000000000E+00 0.  1.
         25    1    1    2    0    0  0.48299226416E+02  0.72539087917E+01 -0.18515462521E+03  0.22867590538E+03  0.12500000000E+03 0.  0.
         25    1    1    2    0    0 -0.90872412582E+02  0.12087449815E+02 -0.88916773793E+03  0.90257862150E+03  0.12500000000E+03 0.  0.
         25    1    1    2    0    0  0.42573186166E+02 -0.19341358607E+02 -0.15547795998E+03  0.20490231910E+03  0.12500000000E+03 0.  0.
</event>
<event>
 5    0  0.5572507E-005  0.4015267E+03  0.7546771E-02  0.1043252E+00
         21   -1    0    0  502  501  0.00000000000E+00  0.00000000000E+00  0.46847681724E+03  0.46847681724E+03  0.00000000000E+00 0.  1.
         21   -1    0    0  501  502 -0.00000000000E+00 -0.00000000000E+00 -0.34414445759E+03  0.34414445759E+03  0.00000000000E+00 0.  1.
         25    1    1    2    0    0 -0.61446189928E+02  0.49883115599E+02 -0.94406542331E+02  0.17550371709E+03  0.12500000000E+03 0.  0.
         25    1    1    2    0    0 -0.15685376938E+03  0.16868279289E+03  0.64400154855E+02  0.26986917114E+03  0.12500000000E+03 0.  0.
         25    1    1    2    0    0  0.21829995931E+03 -0.21856590849E+03  0.15433874713E+03  0.36724838659E+03  0.12500000000E+03 0.  0.
</event>
<event>
 5    0  0.5572507E-005  0.4988441E+03  0.7546771E-02  0.1014081E+00
         21   -1    0    0  502  501  0.00000000000E+00  0.00000000000E+00  0.35800976630E+03  0.35800976630E+03  0.00000000000E+00 0.  1.
         21   -1    0    0  501  502 -0.00000000000E+00 -0.00000000000E+00 -0.69507990936E+03  0.69507990936E+03  0.00000000000E+00 0.  1.
         25    1    1    2    0    0  0.80818489314E+02  0.22259494447E+03  0.71263156307E+01  0.26787295849E+03  0.12500000000E+03 0.  0.
         25    1    1    2    0    0  0.66790709031E+02  0.19225522688E+03 -0.59402934784E+02  0.24612350505E+03  0.12500000000E+03 0.  0.
         25    1    1    2    0    0 -0.14760919834E+03 -0.41485017134E+03 -0.28479352391E+03  0.53909321213E+03  0.12500000000E+03 0.  0.
</event>
<event>
 5    0  0.5572507E-005  0.2955852E+03  0.7546771E-02  0.1087469E+00
         21   -1    0    0  502  501  0.00000000000E+00  0.00000000000E+00  0.33277448052E+03  0.33277448052E+03  0.00000000000E+00 0.  1.
         21   -1    0    0  501  502 -0.00000000000E+00 -0.00000000000E+00 -0.26255206438E+03  0.26255206438E+03  0.00000000000E+00 0.  1.
         25    1    1    2    0    0 -0.47568789871E+02  0.47820538039E+02  0.69982706730E+02  0.15834194918E+03  0.12500000000E+03 0.  0.
         25    1    1    2    0    0  0.79219352488E+01  0.15499724123E+02 -0.17078749724E+03  0.21235905378E+03  0.12500000000E+03 0.  0.
         25    1    1    2    0    0  0.39646854622E+02 -0.63320262162E+02  0.17102720665E+03  0.22462554195E+03  0.12500000000E+03 0.  0.
</event>
<event>
 5    0  0.5572507E-005  0.2652811E+03  0.7546771E-02  0.1104011E+00
         21   -1    0    0  502  501  0.00000000000E+00  0.00000000000E+00  0.33943625389E+02  0.33943625389E+02  0.00000000000E+00 0.  1.
         21   -1    0    0  501  502 -0.00000000000E+00 -0.00000000000E+00 -0.20732630683E+04  0.20732630683E+04  0.00000000000E+00 0.  1.
         25    1    1    2    0    0 -0.30934070352E+02 -0.10143625227E+03 -0.81416677208E+03  0.83050512505E+03  0.12500000000E+03 0.  0.
         25    1    1    2    0    0 -0.10155891799E+03  0.57895780246E+02 -0.54557002546E+03  0.57178473911E+03  0.12500000000E+03 0.  0.
         25    1    1    2    0    0  0.13249298834E+03  0.43540472024E+02 -0.67958264533E+03  0.70491682948E+03  0.12500000000E+03 0.  0.
</event>
<event>
 5    0  0.5572507E-005  0.2388111E+03  0.7546771E-02  0.1120587E+00
         21   -1    0    0  502  501  0.00000000000E+00  0.00000000000E+00  0.54032849416E+03  0.54032849416E+03  0.00000000000E+00 0.  1.
         21   -1    0    0  501  502 -0.00000000000E+00 -0.00000000000E+00 -0.10554824874E+03  0.10554824874E+03  0.00000000000E+00 0.  1.
         25    1    1    2    0    0  0.39260887375E+02  0.63559933388E+01  0.13440786830E+03  0.18780918771E+03  0.12500000000E+03 0.  0.
         25    1    1    2    0    0 -0.78048363048E+02  0.77653689269E+02  0.23800834780E+03  0.29050751462E+03  0.12500000000E+03 0.  0.
         25    1    1    2    0    0  0.38787475673E+02 -0.84009682608E+02  0.62364029330E+02  0.16756004057E+03  0.12500000000E+03 0.  0.
</event>
<event>
 5    0  0.5572507E-005  0.2622328E+03  0.7546771E-02  0.1105809E+00
         21   -1    0    0  502  501  0.00000000000E+00  0.00000000000E+00  0.95482152915E+03  0.95482152915E+03  0.00000000000E+00 0.  1.
         21   -1    0    0  501  502 -0.00000000000E+00 -0.00000000000E+00 -0.72019797888E+02  0.72019797888E+02  0.00000000000E+00 0.  1.
         25    1    1    2    0    0  0.58991164995E+02 -0.86769028444E+02  0.27066293069E+03  0.31605734273E+03  0.12500000000E+03 0.  0.
         25    1    1    2    0    0  0.77691387065E+02 -0.18148765883E+02  0.24384565161E+03  0.28539627036E+03  0.12500000000E+03 0.  0.
         25    1    1    2    0    0 -0.13668255206E+03  0.10491779433E+03  0.36829314897E+03  0.42538771395E+03  0.12500000000E+03 0.  0.
</event>
<event>
 5    0  0.5572507E-005  0.2488452E+03  0.7546771E-02  0.1114037E+00
         21   -1    0    0  502  501  0.00000000000E+00  0.00000000000E+00  0.14064845484E+03  0.14064845484E+03  0.00000000000E+00 0.  1.
         21   -1    0    0  501  502 -0.00000000000E+00 -0.00000000000E+00 -0.44027463338E+03  0.44027463338E+03  0.00000000000E+00 0.  1.
         25    1    1    2    0    0  0.59196825446E+02 -0.12039298073E+02 -0.26717401421E+03  0.30109161846E+03  0.12500000000E+03 0.  0.
         25    1    1    2    0    0 -0.21475766620E+02  0.33256585221E+02 -0.60828747501E+02  0.14454184700E+03  0.12500000000E+03 0.  0.
         25    1    1    2    0    0 -0.37721058826E+02 -0.21217287147E+02  0.28376583163E+02  0.13528962275E+03  0.12500000000E+03 0.  0.
</event>
<event>
 5    0  0.5572507E-005  0.3003036E+03  0.7546771E-02  0.1085089E+00
         21   -1    0    0  502  501  0.00000000000E+00  0.00000000000E+00  0.93232482340E+02  0.93232482340E+02  0.00000000000E+00 0. -1.
         21   -1    0    0  501  502 -0.00000000000E+00 -0.00000000000E+00 -0.96728374416E+03  0.96728374416E+03  0.00000000000E+00 0. -1.
         25    1    1    2    0    0 -0.34279612801E+02  0.18403334543E+02 -0.64428260320E+03  0.65744874125E+03  0.12500000000E+03 0.  0.
         25    1    1    2    0    0 -0.10655453684E+02  0.89771303266E+02 -0.72236226044E+02  0.17033936109E+03  0.12500000000E+03 0.  0.
         25    1    1    2    0    0  0.44935066484E+02 -0.10817463781E+03 -0.15753243257E+03  0.23272812417E+03  0.12500000000E+03 0.  0.
</event>
<event>
 5    0  0.5749138E-005  0.3285539E+03  0.7546771E-02  0.1071779E+00
         21   -1    0    0  502  501  0.00000000000E+00  0.00000000000E+00  0.66820764909E+03  0.66820764909E+03  0.00000000000E+00 0. -1.
         21   -1    0    0  501  502 -0.00000000000E+00 -0.00000000000E+00 -0.16154806674E+03  0.16154806674E+03  0.00000000000E+00 0. -1.
         25    1    1    2    0    0  0.16091519868E+03 -0.13518578506E+03  0.27464386225E+03  0.36772700298E+03  0.12500000000E+03 0.  0.
         25    1    1    2    0    0 -0.34516132848E+00  0.12840392693E+03  0.43162064077E+02  0.18432485281E+03  0.12500000000E+03 0.  0.
         25    1    1    2    0    0 -0.16057003735E+03  0.67818581255E+01  0.18885365602E+03  0.27770386005E+03  0.12500000000E+03 0.  0.
</event>
<event>
 5    0  0.5572507E-005  0.2400836E+03  0.7546771E-02  0.1119737E+00
         21   -1    0    0  502  501  0.00000000000E+00  0.00000000000E+00  0.43042678041E+02  0.43042678041E+02  0.00000000000E+00 0. -1.
         21   -1    0    0  501  502 -0.00000000000E+00 -0.00000000000E+00 -0.13391390581E+04  0.13391390581E+04  0.00000000000E+00 0. -1.
         25    1    1    2    0    0  0.28237337309E+02  0.35869810100E+02 -0.79615377048E+03  0.80719874674E+03  0.12500000000E+03 0.  0.
         25    1    1    2    0    0 -0.56664219097E+02  0.95371987370E+01 -0.32854517286E+03  0.35618635922E+03  0.12500000000E+03 0.  0.
         25    1    1    2    0    0  0.28426881788E+02 -0.45407008837E+02 -0.17139743669E+03  0.21879663015E+03  0.12500000000E+03 0.  0.
</event>
<event>
 5    0  0.5572507E-005  0.3809739E+03  0.7546771E-02  0.1050574E+00
         21   -1    0    0  502  501  0.00000000000E+00  0.00000000000E+00  0.67291414788E+02  0.67291414788E+02  0.00000000000E+00 0.  1.
         21   -1    0    0  501  502 -0.00000000000E+00 -0.00000000000E+00 -0.21569033172E+04  0.21569033172E+04  0.00000000000E+00 0.  1.
         25    1    1    2    0    0 -0.34555157777E+02  0.79260718180E+02 -0.28891048078E+03  0.32645150678E+03  0.12500000000E+03 0.  0.
         25    1    1    2    0    0 -0.50743269964E+02 -0.27989212284E+03 -0.65710878341E+03  0.72686410911E+03  0.12500000000E+03 0.  0.
         25    1    1    2    0    0  0.85298427740E+02  0.20063140466E+03 -0.11435926382E+04  0.11708791161E+04  0.12500000000E+03 0.  0.
</event>
<event>
 5    0  0.5572507E-005  0.2460255E+03  0.7546771E-02  0.1115843E+00
         21   -1    0    0  502  501  0.00000000000E+00  0.00000000000E+00  0.20527240733E+03  0.20527240733E+03  0.00000000000E+00 0.  1.
         21   -1    0    0  501  502 -0.00000000000E+00 -0.00000000000E+00 -0.29486937440E+03  0.29486937440E+03  0.00000000000E+00 0.  1.
         25    1    1    2    0    0 -0.64883873150E+02  0.12622499151E+03  0.13437624677E+02  0.18960019840E+03  0.12500000000E+03 0.  0.
         25    1    1    2    0    0  0.16151517219E+02 -0.73189150906E+02 -0.29846383128E+02  0.14877274584E+03  0.12500000000E+03 0.  0.
         25    1    1    2    0    0  0.48732355931E+02 -0.53035840601E+02 -0.73188208622E+02  0.16176883749E+03  0.12500000000E+03 0.  0.
</event>
<event>
 5    0  0.5572507E-005  0.2727295E+03  0.7546771E-02  0.1099728E+00
         21   -1    0    0  502  501  0.00000000000E+00  0.00000000000E+00  0.12800415917E+03  0.12800415917E+03  0.00000000000E+00 0. -1.
         21   -1    0    0  501  502 -0.00000000000E+00 -0.00000000000E+00 -0.58108552965E+03  0.58108552965E+03  0.00000000000E+00 0. -1.
         25    1    1    2    0    0 -0.10450644271E+03  0.70051661232E+02 -0.11311580428E+03  0.21035450313E+03  0.12500000000E+03 0.  0.
         25    1    1    2    0    0  0.71696965535E+02  0.66241123178E+02 -0.78937781292E+02  0.17715675144E+03  0.12500000000E+03 0.  0.
         25    1    1    2    0    0  0.32809477176E+02 -0.13629278441E+03 -0.26102778492E+03  0.32157843425E+03  0.12500000000E+03 0.  0.
</event>
<event>
 5    0  0.5572507E-005  0.2859862E+03  0.7546771E-02  0.1092464E+00
         21   -1    0    0  502  501  0.00000000000E+00  0.00000000000E+00  0.15651586611E+03  0.15651586611E+03  0.00000000000E+00 0. -1.
         21   -1    0    0  501  502 -0.00000000000E+00 -0.00000000000E+00 -0.52255489655E+03  0.52255489655E+03  0.00000000000E+00 0. -1.
         25    1    1    2    0    0 -0.18426697753E+03  0.87957619474E+02 -0.13339810264E+03  0.27406370723E+03  0.12500000000E+03 0.  0.
         25    1    1    2    0    0  0.73901642397E+02 -0.14724282722E+02 -0.13271163168E+03  0.19727046011E+03  0.12500000000E+03 0.  0.
         25    1    1    2    0    0  0.11036533514E+03 -0.73233336752E+02 -0.99929296122E+02  0.20773659532E+03  0.12500000000E+03 0.  0.
</event>
<event>
 5    0  0.5572507E-005  0.3255490E+03  0.7546771E-02  0.1073123E+00
         21   -1    0    0  502  501  0.00000000000E+00  0.00000000000E+00  0.11512106762E+04  0.11512106762E+04  0.00000000000E+00 0.  1.
         21   -1    0    0  501  502 -0.00000000000E+00 -0.00000000000E+00 -0.92061488705E+02  0.92061488705E+02  0.00000000000E+00 0.  1.
         25    1    1    2    0    0 -0.14110158950E+03 -0.81749446408E+02  0.54076341909E+03  0.57848310776E+03  0.12500000000E+03 0.  0.
         25    1    1    2    0    0  0.18998679378E+02  0.95615461437E+02  0.44918334435E+03  0.47633385679E+03  0.12500000000E+03 0.  0.
         25    1    1    2    0    0  0.12210291012E+03 -0.13866015029E+02  0.69202424009E+02  0.18845520030E+03  0.12500000000E+03 0.  0.
</event>
<event>
 5    0  0.5572507E-005  0.2753197E+03  0.7546771E-02  0.1098273E+00
         21   -1    0    0  502  501  0.00000000000E+00  0.00000000000E+00  0.14805637536E+03  0.14805637536E+03  0.00000000000E+00 0.  1.
         21   -1    0    0  501  502 -0.00000000000E+00 -0.00000000000E+00 -0.51197354943E+03  0.51197354943E+03  0.00000000000E+00 0.  1.
         25    1    1    2    0    0  0.38447605911E+02  0.11914479606E+03 -0.10647814836E+03  0.20648558523E+03  0.12500000000E+03 0.  0.
         25    1    1    2    0    0 -0.81862921565E+02 -0.15569669106E+03 -0.22645724256E+03  0.31281125338E+03  0.12500000000E+03 0.  0.
         25    1    1    2    0    0  0.43415315654E+02  0.36551895001E+02 -0.30981783145E+02  0.14073308619E+03  0.12500000000E+03 0.  0.
</event>
<event>
 5    0  0.5572507E-005  0.3235440E+03  0.7546771E-02  0.1074030E+00
         21   -1    0    0  502  501  0.00000000000E+00  0.00000000000E+00  0.12093643138E+03  0.12093643138E+03  0.00000000000E+00 0. -1.
         21   -1    0    0  501  502 -0.00000000000E+00 -0.00000000000E+00 -0.86558469311E+03  0.86558469311E+03  0.00000000000E+00 0. -1.
         25    1    1    2    0    0  0.15440024455E+03  0.13817743520E+03 -0.19395007992E+03  0.31011944895E+03  0.12500000000E+03 0.  0.
         25    1    1    2    0    0 -0.16332713246E+03 -0.34125927743E+02 -0.19625888802E+03  0.28632653085E+03  0.12500000000E+03 0.  0.
         25    1    1    2    0    0  0.89268879096E+01 -0.10405150746E+03 -0.35443929379E+03  0.39007514470E+03  0.12500000000E+03 0.  0.
</event>
<event>
 5    0  0.5572507E-005  0.2526839E+03  0.7546771E-02  0.1111620E+00
         21   -1    0    0  502  501  0.00000000000E+00  0.00000000000E+00  0.28818232459E+02  0.28818232459E+02  0.00000000000E+00 0.  1.
         21   -1    0    0  501  502 -0.00000000000E+00 -0.00000000000E+00 -0.22155823281E+04  0.22155823281E+04  0.00000000000E+00 0.  1.
         25    1    1    2    0    0  0.43812803796E+02 -0.41869615393E+02 -0.61019837745E+03  0.62581122258E+03  0.12500000000E+03 0.  0.
         25    1    1    2    0    0 -0.52353996859E+02 -0.10636863898E+03 -0.72701639658E+03  0.74714996435E+03  0.12500000000E+03 0.  0.
         25    1    1    2    0    0  0.85411930631E+01  0.14823825437E+03 -0.84954932162E+03  0.87143937362E+03  0.12500000000E+03 0.  0.
</event>
<event>
 5    0  0.5572507E-005  0.2881552E+03  0.7546771E-02  0.1091316E+00
         21   -1    0    0  502  501  0.00000000000E+00  0.00000000000E+00  0.10313117938E+03  0.10313117938E+03  0.00000000000E+00 0.  1.
         21   -1    0    0  501  502 -0.00000000000E+00 -0.00000000000E+00 -0.80512413378E+03  0.80512413378E+03  0.00000000000E+00 0.  1.
         25    1    1    2    0    0  0.71413447669E+02 -0.25829963200E+02 -0.30234974715E+03  0.33586818413E+03  0.12500000000E+03 0.  0.
         25    1    1    2    0    0 -0.60962759631E+02  0.15813129790E+03 -0.13195957238E+03  0.24851618494E+03  0.12500000000E+03 0.  0.
         25    1    1    2    0    0 -0.10450688039E+02 -0.13230133470E+03 -0.26768363487E+03  0.32387094408E+03  0.12500000000E+03 0.  0.
</event>
<event>
 5    0  0.5572507E-005  0.5129612E+03  0.7546771E-02  0.1010450E+00
         21   -1    0    0  502  501  0.00000000000E+00  0.00000000000E+00  0.17067900187E+03  0.17067900187E+03  0.00000000000E+00 0.  1.
         21   -1    0    0  501  502 -0.00000000000E+00 -0.00000000000E+00 -0.15416610961E+04  0.15416610961E+04  0.00000000000E+00 0.  1.
         25    1    1    2    0    0  0.28402406670E+03  0.36255895889E+01 -0.58625866249E+03  0.66333026066E+03  0.12500000000E+03 0.  0.
         25    1    1    2    0    0 -0.36590625797E+02  0.25547393810E+03 -0.49319664039E+03  0.57050305261E+03  0.12500000000E+03 0.  0.
         25    1    1    2    0    0 -0.24743344090E+03 -0.25909952769E+03 -0.29152679135E+03  0.47850678470E+03  0.12500000000E+03 0.  0.
</event>
<event>
 5    0  0.5572507E-005  0.2749518E+03  0.7546771E-02  0.1098479E+00
         21   -1    0    0  502  501  0.00000000000E+00  0.00000000000E+00  0.53060525219E+02  0.53060525219E+02  0.00000000000E+00 0.  1.
         21   -1    0    0  501  502 -0.00000000000E+00 -0.00000000000E+00 -0.14247593497E+04  0.14247593497E+04  0.00000000000E+00 0.  1.
         25    1    1    2    0    0 -0.17664755976E+02  0.80822512869E+02 -0.34853754025E+03  0.37940445326E+03  0.12500000000E+03 0.  0.
         25    1    1    2    0    0 -0.11698740889E+03 -0.11491102848E+03 -0.63457507436E+03  0.66723393446E+03  0.12500000000E+03 0.  0.
         25    1    1    2    0    0  0.13465216486E+03  0.34088515612E+02 -0.38858620991E+03  0.43118148723E+03  0.12500000000E+03 0.  0.
</event>
<event>
 5    0  0.5572507E-005  0.2552485E+03  0.7546771E-02  0.1110032E+00
         21   -1    0    0  502  501  0.00000000000E+00  0.00000000000E+00  0.27666066237E+03  0.27666066237E+03  0.00000000000E+00 0.  1.
         21   -1    0    0  501  502 -0.00000000000E+00 -0.00000000000E+00 -0.23549353172E+03  0.23549353172E+03  0.00000000000E+00 0.  1.
         25    1    1    2    0    0  0.75371628283E+02 -0.27082330144E+02  0.13652371559E+03  0.20168802611E+03  0.12500000000E+03 0.  0.
         25    1    1    2    0    0  0.91953049526E+01  0.39849111402E+02 -0.89137463428E+02  0.15888043523E+03  0.12500000000E+03 0.  0.
         25    1    1    2    0    0 -0.84566933235E+02 -0.12766781257E+02 -0.62191215181E+01  0.15158573275E+03  0.12500000000E+03 0.  0.
</event>
<event>
 5    0  0.5572507E-005  0.2698453E+03  0.7546771E-02  0.1101368E+00
         21   -1    0    0  502  501  0.00000000000E+00  0.00000000000E+00  0.16317722411E+04  0.16317722411E+04  0.00000000000E+00 0.  1.
         21   -1    0    0  501  502 -0.00000000000E+00 -0.00000000000E+00 -0.44624183780E+02  0.44624183780E+02  0.00000000000E+00 0.  1.
         25    1    1    2    0    0 -0.68627498928E+02 -0.26503820567E+02  0.30559549405E+03  0.33826881632E+03  0.12500000000E+03 0.  0.
         25    1    1    2    0    0 -0.62671855902E+01 -0.10370986689E+03  0.34458036020E+03  0.38099296416E+03  0.12500000000E+03 0.  0.
         25    1    1    2    0    0  0.74894684518E+02  0.13021368746E+03  0.93697220309E+03  0.95713464441E+03  0.12500000000E+03 0.  0.
</event>
<event>
 5    0  0.5572507E-005  0.3174579E+03  0.7546771E-02  0.1076825E+00
         21   -1    0    0  502  501  0.00000000000E+00  0.00000000000E+00  0.17471753883E+03  0.17471753883E+03  0.00000000000E+00 0.  1.
         21   -1    0    0  501  502 -0.00000000000E+00 -0.00000000000E+00 -0.57681390944E+03  0.57681390944E+03  0.00000000000E+00 0.  1.
         25    1    1    2    0    0  0.81407848178E+02 -0.60207680856E+02 -0.25809351825E+02  0.16292122397E+03  0.12500000000E+03 0.  0.
         25    1    1    2    0    0  0.11419633074E+03  0.12174211462E+03 -0.21376692556E+03  0.29863563567E+03  0.12500000000E+03 0.  0.
         25    1    1    2    0    0 -0.19560417892E+03 -0.61534433765E+02 -0.16252009323E+03  0.28997458863E+03  0.12500000000E+03 0.  0.
</event>
<event>
 5    0  0.5735592E-005  0.2652704E+03  0.7546771E-02  0.1104017E+00
         21   -1    0    0  502  501  0.00000000000E+00  0.00000000000E+00  0.97566799413E+02  0.97566799413E+02  0.00000000000E+00 0. -1.
         21   -1    0    0  501  502 -0.00000000000E+00 -0.00000000000E+00 -0.72123313189E+03  0.72123313189E+03  0.00000000000E+00 0. -1.
         25    1    1    2    0    0 -0.37687400493E+00  0.12684263212E+02 -0.50860056676E+02  0.13554622065E+03  0.12500000000E+03 0.  0.
         25    1    1    2    0    0 -0.12339910101E+03  0.60382233144E+01 -0.39547530187E+03  0.43276958379E+03  0.12500000000E+03 0.  0.
         25    1    1    2    0    0  0.12377597501E+03 -0.18722486527E+02 -0.17733097393E+03  0.25048412686E+03  0.12500000000E+03 0.  0.
</event>
<event>
 5    0  0.5572507E-005  0.2119386E+03  0.7546771E-02  0.1140040E+00
         21   -1    0    0  502  501  0.00000000000E+00  0.00000000000E+00  0.30185601555E+03  0.30185601555E+03  0.00000000000E+00 0.  1.
         21   -1    0    0  501  502 -0.00000000000E+00 -0.00000000000E+00 -0.14880590243E+03  0.14880590243E+03  0.00000000000E+00 0.  1.
         25    1    1    2    0    0  0.18074963588E+02 -0.38127959235E+02  0.69545020660E+02  0.14913737118E+03  0.12500000000E+03 0.  0.
         25    1    1    2    0    0 -0.28541637048E+02 -0.16806209004E+02  0.10017304525E+03  0.16357479238E+03  0.12500000000E+03 0.  0.
         25    1    1    2    0    0  0.10466673460E+02  0.54934168239E+02 -0.16667952791E+02  0.13794975442E+03  0.12500000000E+03 0.  0.
</event>
<event>
 5    0  0.5572507E-005  0.3032394E+03  0.7546771E-02  0.1083632E+00
         21   -1    0    0  502  501  0.00000000000E+00  0.00000000000E+00  0.29196988314E+03  0.29196988314E+03  0.00000000000E+00 0.  1.
         21   -1    0    0  501  502 -0.00000000000E+00 -0.00000000000E+00 -0.31494380875E+03  0.31494380875E+03  0.00000000000E+00 0.  1.
         25    1    1    2    0    0 -0.70133698681E+02 -0.95949070729E+02  0.10613691162E+03  0.20252161335E+03  0.12500000000E+03 0.  0.
         25    1    1    2    0    0 -0.47496179102E+02  0.58478929574E+02 -0.16995417899E+03  0.22402030084E+03  0.12500000000E+03 0.  0.
         25    1    1    2    0    0  0.11762987778E+03  0.37470141155E+02  0.40843341761E+02  0.18037177770E+03  0.12500000000E+03 0.  0.
</event>
<event>
 5    0  0.5572507E-005  0.2786082E+03  0.7546771E-02  0.1096452E+00
         21   -1    0    0  502  501  0.00000000000E+00  0.00000000000E+00  0.18752859463E+04  0.18752859463E+04  0.00000000000E+00 0. -1.
         21   -1    0    0  501  502 -0.00000000000E+00 -0.00000000000E+00 -0.41392380308E+02  0.41392380308E+02  0.00000000000E+00 0. -1.
         25    1    1    2    0    0 -0.15901776285E+02  0.58943455828E+02  0.58743268441E+03  0.60367984576E+03  0.12500000000E+03 0.  0.
         25    1    1    2    0    0  0.15851381605E+03 -0.79412311541E+02  0.76402992573E+03  0.79422897990E+03  0.12500000000E+03 0.  0.
         25    1    1    2    0    0 -0.14261203977E+03  0.20468855713E+02  0.48243095586E+03  0.51876950095E+03  0.12500000000E+03 0.  0.
</event>
<event>
 5    0  0.5572507E-005  0.3250893E+03  0.7546771E-02  0.1073331E+00
         21   -1    0    0  502  501  0.00000000000E+00  0.00000000000E+00  0.21091746871E+03  0.21091746871E+03  0.00000000000E+00 0.  1.
         21   -1    0    0  501  502 -0.00000000000E+00 -0.00000000000E+00 -0.50106348283E+03  0.50106348283E+03  0.00000000000E+00 0.  1.
         25    1    1    2    0    0 -0.80270572709E+02  0.10870402908E+03 -0.69902041849E+02  0.19690410416E+03  0.12500000000E+03 0.  0.
         25    1    1    2    0    0 -0.13739042809E+03  0.46429948846E+01 -0.54449859323E+02  0.19361682342E+03  0.12500000000E+03 0.  0.
         25    1    1    2    0    0  0.21766100080E+03 -0.11334702396E+03 -0.16579411295E+03  0.32146002395E+03  0.12500000000E+03 0.  0.
</event>
<event>
 5    0  0.5620425E-005  0.3120472E+03  0.7546771E-02  0.1079369E+00
         21   -1    0    0  502  501  0.00000000000E+00  0.00000000000E+00  0.61541224701E+03  0.61541224701E+03  0.00000000000E+00 0.  1.
         21   -1    0    0  501  502 -0.00000000000E+00 -0.00000000000E+00 -0.15822477838E+03  0.15822477838E+03  0.00000000000E+00 0.  1.
         25    1    1    2    0    0 -0.99839897950E+02 -0.59387981792E+02  0.40142956768E+03  0.43619449264E+03  0.12500000000E+03 0.  0.
         25    1    1    2    0    0  0.12292693467E+03  0.28779293077E+01  0.85675042834E+02  0.19515257290E+03  0.12500000000E+03 0.  0.
         25    1    1    2    0    0 -0.23087036720E+02  0.56510052484E+02 -0.29917141877E+02  0.14228995985E+03  0.12500000000E+03 0.  0.
</event>
<event>
 5    0  0.5572507E-005  0.2770110E+03  0.7546771E-02  0.1097333E+00
         21   -1    0    0  502  501  0.00000000000E+00  0.00000000000E+00  0.66714619182E+03  0.66714619182E+03  0.00000000000E+00 0. -1.
         21   -1    0    0  501  502 -0.00000000000E+00 -0.00000000000E+00 -0.11501992966E+03  0.11501992966E+03  0.00000000000E+00 0. -1.
         25    1    1    2    0    0 -0.11593078425E+02 -0.70640970688E+02  0.11905992598E+02  0.14453822632E+03  0.12500000000E+03 0.  0.
         25    1    1    2    0    0 -0.60637022901E+02  0.82186517560E+02  0.14602448489E+03  0.21766860684E+03  0.12500000000E+03 0.  0.
         25    1    1    2    0    0  0.72230101325E+02 -0.11545546872E+02  0.39419578468E+03  0.41995928833E+03  0.12500000000E+03 0.  0.
</event>
<event>
 5    0  0.5572507E-005  0.3160246E+03  0.7546771E-02  0.1077494E+00
         21   -1    0    0  502  501  0.00000000000E+00  0.00000000000E+00  0.66324700841E+03  0.66324700841E+03  0.00000000000E+00 0.  1.
         21   -1    0    0  501  502 -0.00000000000E+00 -0.00000000000E+00 -0.15057972013E+03  0.15057972013E+03  0.00000000000E+00 0.  1.
         25    1    1    2    0    0 -0.18694636424E+03 -0.88602667833E+02  0.20275782492E+03  0.31549185633E+03  0.12500000000E+03 0.  0.
         25    1    1    2    0    0  0.15768079531E+03 -0.43048746943E+02  0.14991824159E+03  0.25459164752E+03  0.12500000000E+03 0.  0.
         25    1    1    2    0    0  0.29265568929E+02  0.13165141478E+03  0.15999122178E+03  0.24374322469E+03  0.12500000000E+03 0.  0.
</event>
<event>
 5    0  0.6288206E-005  0.3055687E+03  0.7546771E-02  0.1082490E+00
         21   -1    0    0  502  501  0.00000000000E+00  0.00000000000E+00  0.22605994610E+03  0.22605994610E+03  0.00000000000E+00 0. -1.
         21   -1    0    0  501  502 -0.00000000000E+00 -0.00000000000E+00 -0.41304194844E+03  0.41304194844E+03  0.00000000000E+00 0. -1.
         25    1    1    2    0    0  0.16182810965E+02  0.11670150082E+03  0.15311156419E+02  0.17245450175E+03  0.12500000000E+03 0.  0.
         25    1    1    2    0    0 -0.43310749898E+02 -0.13625324723E+03 -0.26244871796E+03  0.32395230821E+03  0.12500000000E+03 0.  0.
         25    1    1    2    0    0  0.27127938933E+02  0.19551746406E+02  0.60155559207E+02  0.14269508457E+03  0.12500000000E+03 0.  0.
</event>
<event>
 5    0  0.5572507E-005  0.3177358E+03  0.7546771E-02  0.1076696E+00
         21   -1    0    0  502  501  0.00000000000E+00  0.00000000000E+00  0.26858482848E+03  0.26858482848E+03  0.00000000000E+00 0. -1.
         21   -1    0    0  501  502 -0.00000000000E+00 -0.00000000000E+00 -0.37588139137E+03  0.37588139137E+03  0.00000000000E+00 0. -1.
         25    1    1    2    0    0  0.55855344206E+02  0.10272753042E+03 -0.37349684372E+01  0.17120664406E+03  0.12500000000E+03 0.  0.
         25    1    1    2    0    0  0.78414491644E+02 -0.20053226025E+03 -0.22005838554E+02  0.24994254706E+03  0.12500000000E+03 0.  0.
         25    1    1    2    0    0 -0.13426983585E+03  0.97804729835E+02 -0.81555755897E+02  0.22331702872E+03  0.12500000000E+03 0.  0.
</event>
<event>
 5    0  0.5572507E-005  0.2875897E+03  0.7546771E-02  0.1091614E+00
         21   -1    0    0  502  501  0.00000000000E+00  0.00000000000E+00  0.29005719119E+03  0.29005719119E+03  0.00000000000E+00 0. -1.
         21   -1    0    0  501  502 -0.00000000000E+00 -0.00000000000E+00 -0.28514316370E+03  0.28514316370E+03  0.00000000000E+00 0. -1.
         25    1    1    2    0    0 -0.61084134536E+02  0.11252893109E+03 -0.21036501958E+02  0.18017093617E+03  0.12500000000E+03 0.  0.
         25    1    1    2    0    0  0.74149302624E+02  0.22205748832E+00 -0.10670791955E+03  0.18030459917E+03  0.12500000000E+03 0.  0.
         25    1    1    2    0    0 -0.13065168088E+02 -0.11275098858E+03  0.13265844899E+03  0.21472481955E+03  0.12500000000E+03 0.  0.
</event>
<event>
 5    0  0.5572507E-005  0.2695724E+03  0.7546771E-02  0.1101525E+00
         21   -1    0    0  502  501  0.00000000000E+00  0.00000000000E+00  0.26258624450E+03  0.26258624450E+03  0.00000000000E+00 0.  1.
         21   -1    0    0  501  502 -0.00000000000E+00 -0.00000000000E+00 -0.27674446750E+03  0.27674446750E+03  0.00000000000E+00 0.  1.
         25    1    1    2    0    0 -0.65789243879E+01 -0.26995595523E+02 -0.37479264372E+02  0.13342316021E+03  0.12500000000E+03 0.  0.
         25    1    1    2    0    0 -0.15443400186E+03 -0.44185897602E+01  0.18713323510E+02  0.19961105516E+03  0.12500000000E+03 0.  0.
         25    1    1    2    0    0  0.16101292624E+03  0.31414185283E+02  0.46077178629E+01  0.20629649662E+03  0.12500000000E+03 0.  0.
</event>
<event>
 5    0  0.5572507E-005  0.3539495E+03  0.7546771E-02  0.1061006E+00
         21   -1    0    0  502  501  0.00000000000E+00  0.00000000000E+00  0.35292868971E+03  0.35292868971E+03  0.00000000000E+00 0.  1.
         21   -1    0    0  501  502 -0.00000000000E+00 -0.00000000000E+00 -0.35497317468E+03  0.35497317468E+03  0.00000000000E+00 0.  1.
         25    1    1    2    0    0 -0.36667314403E+02 -0.13181000278E+03  0.64509222036E+01  0.18543188284E+03  0.12500000000E+03 0.  0.
         25    1    1    2    0    0 -0.88513622786E+02  0.70301584874E+02  0.18699990475E+03  0.25173585090E+03  0.12500000000E+03 0.  0.
         25    1    1    2    0    0  0.12518093719E+03  0.61508417902E+02 -0.19549531193E+03  0.27073413064E+03  0.12500000000E+03 0.  0.
</event>
<event>
 5    0  0.5670672E-005  0.2636836E+03  0.7546771E-02  0.1104950E+00
         21   -1    0    0  502  501  0.00000000000E+00  0.00000000000E+00  0.76956365397E+02  0.76956365397E+02  0.00000000000E+00 0. -1.
         21   -1    0    0  501  502 -0.00000000000E+00 -0.00000000000E+00 -0.90348620702E+03  0.90348620702E+03  0.00000000000E+00 0. -1.
         25    1    1    2    0    0  0.15885868800E+03  0.14648298712E+02 -0.37113845136E+03  0.42287043581E+03  0.12500000000E+03 0.  0.
         25    1    1    2    0    0 -0.60929196866E+02  0.36726561358E+02 -0.28401253190E+03  0.31835408842E+03  0.12500000000E+03 0.  0.
         25    1    1    2    0    0 -0.97929491135E+02 -0.51374860070E+02 -0.17137885837E+03  0.23921804818E+03  0.12500000000E+03 0.  0.
</event>
<event>
 5    0  0.5572507E-005  0.6432079E+03  0.7546771E-02  0.9819608E-01
         21   -1    0    0  502  501  0.00000000000E+00  0.00000000000E+00  0.14801224040E+04  0.14801224040E+04  0.00000000000E+00 0. -1.
         21   -1    0    0  501  502 -0.00000000000E+00 -0.00000000000E+00 -0.27951501164E+03  0.27951501164E+03  0.00000000000E+00 0.  1.
         25    1    1    2    0    0  0.92062549764E+02 -0.51090567913E+03  0.68327476905E+03  0.86717330220E+03  0.12500000000E+03 0.  0.
         25    1    1    2    0    0 -0.81412166817E+01  0.55377053009E+03  0.43731643707E+03  0.71665803947E+03  0.12500000000E+03 0.  0.
         25    1    1    2    0    0 -0.83921333082E+02 -0.42864850966E+02  0.80016186285E+02  0.17580607402E+03  0.12500000000E+03 0.  0.
</event>
<event>
 5    0  0.5986176E-005  0.3918885E+03  0.7546771E-02  0.1046625E+00
         21   -1    0    0  502  501  0.00000000000E+00  0.00000000000E+00  0.10677632341E+04  0.10677632341E+04  0.00000000000E+00 0.  1.
         21   -1    0    0  501  502 -0.00000000000E+00 -0.00000000000E+00 -0.14383020788E+03  0.14383020788E+03  0.00000000000E+00 0.  1.
         25    1    1    2    0    0 -0.60227487391E+02  0.26224803702E+03  0.35807537451E+03  0.46502081350E+03  0.12500000000E+03 0.  0.
         25    1    1    2    0    0  0.13304075422E+03 -0.38616257642E+02  0.37516108623E+03  0.41900107191E+03  0.12500000000E+03 0.  0.
         25    1    1    2    0    0 -0.72813266830E+02 -0.22363177938E+03  0.19069656544E+03  0.32757155653E+03  0.12500000000E+03 0.  0.
</event>
<event>
 5    0  0.5572507E-005  0.2729301E+03  0.7546771E-02  0.1099614E+00
         21   -1    0    0  502  501  0.00000000000E+00  0.00000000000E+00  0.22393471737E+03  0.22393471737E+03  0.00000000000E+00 0.  1.
         21   -1    0    0  501  502 -0.00000000000E+00 -0.00000000000E+00 -0.33264536940E+03  0.33264536940E+03  0.00000000000E+00 0.  1.
         25    1    1    2    0    0 -0.88204455530E+02 -0.86081251986E+02 -0.60221712972E+02  0.18558465085E+03  0.12500000000E+03 0.  0.
         25    1    1    2    0    0  0.12616063340E+03  0.44847129186E+01 -0.10566066039E+03  0.20670218485E+03  0.12500000000E+03 0.  0.
         25    1    1    2    0    0 -0.37956177867E+02  0.81596539068E+02  0.57171721331E+02  0.16429325107E+03  0.12500000000E+03 0.  0.
</event>
<event>
 5    0  0.5572507E-005  0.2493566E+03  0.7546771E-02  0.1113712E+00
         21   -1    0    0  502  501  0.00000000000E+00  0.00000000000E+00  0.11347008925E+03  0.11347008925E+03  0.00000000000E+00 0.  1.
         21   -1    0    0  501  502 -0.00000000000E+00 -0.00000000000E+00 -0.54797432799E+03  0.54797432799E+03  0.00000000000E+00 0.  1.
         25    1    1    2    0    0  0.23359706099E+02  0.90581129379E+02 -0.30033308080E+03  0.33849014209E+03  0.12500000000E+03 0.  0.
         25    1    1    2    0    0 -0.54117623795E+02 -0.48102231074E+02 -0.11782839773E+03  0.18641639721E+03  0.12500000000E+03 0.  0.
         25    1    1    2    0    0  0.30757917696E+02 -0.42478898305E+02 -0.16342760211E+02  0.13653787794E+03  0.12500000000E+03 0.  0.
</event>
<event>
 5    0  0.5572507E-005  0.8279713E+03  0.7546771E-02  0.9520390E-01
         21   -1    0    0  502  501  0.00000000000E+00  0.00000000000E+00  0.60893547236E+03  0.60893547236E+03  0.00000000000E+00 0. -1.
         21   -1    0    0  501  502 -0.00000000000E+00 -0.00000000000E+00 -0.11257950734E+04  0.11257950734E+04  0.00000000000E+00 0. -1.
         25    1    1    2    0    0  0.38434774107E+03  0.15276096859E+02 -0.90808454099E+03  0.99408202820E+03  0.12500000000E+03 0.  0.
         25    1    1    2    0    0 -0.24749465597E+02 -0.90945421787E+02  0.30530190664E+03  0.34310036431E+03  0.12500000000E+03 0.  0.
         25    1    1    2    0    0 -0.35959827548E+03  0.75669324928E+02  0.85923033354E+02  0.39754815321E+03  0.12500000000E+03 0.  0.
</event>
<event>
 5    0  0.5572507E-005  0.4322347E+03  0.7546771E-02  0.1033156E+00
         21   -1    0    0  502  501  0.00000000000E+00  0.00000000000E+00  0.62307479656E+03  0.62307479656E+03  0.00000000000E+00 0.  1.
         21   -1    0    0  501  502 -0.00000000000E+00 -0.00000000000E+00 -0.29984661770E+03  0.29984661770E+03  0.00000000000E+00 0.  1.
         25    1    1    2    0    0 -0.16467282740E+03 -0.22149146944E+03  0.26620482097E+02  0.30415335143E+03  0.12500000000E+03 0.  0.
         25    1    1    2    0    0 -0.93940856602E+02  0.49850113885E+02 -0.10677143928E+02  0.16446555808E+03  0.12500000000E+03 0.  0.
         25    1    1    2    0    0  0.25861368400E+03  0.17164135556E+03  0.30728484069E+03  0.45430250474E+03  0.12500000000E+03 0.  0.
</event>
<event>
 5    0  0.5572507E-005  0.2976018E+03  0.7546771E-02  0.1086446E+00
         21   -1    0    0  502  501  0.00000000000E+00  0.00000000000E+00  0.28087478678E+03  0.28087478678E+03  0.00000000000E+00 0.  1.
         21   -1    0    0  501  502 -0.00000000000E+00 -0.00000000000E+00 -0.31532495645E+03  0.31532495645E+03  0.00000000000E+00 0.  1.
         25    1    1    2    0    0  0.64504177953E+02  0.13497152061E+03  0.12841309042E+03  0.23343740519E+03  0.12500000000E+03 0.  0.
         25    1    1    2    0    0 -0.98759034129E+02 -0.48067271127E+02 -0.10256892359E+03  0.19547172036E+03  0.12500000000E+03 0.  0.
         25    1    1    2    0    0  0.34254856176E+02 -0.86904249485E+02 -0.60294336510E+02  0.16729061768E+03  0.12500000000E+03 0.  0.
</event>
<event>
 5    0  0.5572507E-005  0.2505967E+03  0.7546771E-02  0.1112928E+00
         21   -1    0    0  502  501  0.00000000000E+00  0.00000000000E+00  0.15302998353E+04  0.15302998353E+04  0.00000000000E+00 0. -1.
         21   -1    0    0  501  502 -0.00000000000E+00 -0.00000000000E+00 -0.41036867702E+02  0.41036867702E+02  0.00000000000E+00 0. -1.
         25    1    1    2    0    0  0.36956015264E+02  0.38869067148E+01  0.44014178779E+03  0.45905408012E+03  0.12500000000E+03 0.  0.
         25    1    1    2    0    0  0.77229595736E+02  0.14904089974E+01  0.78412855795E+03  0.79777768029E+03  0.12500000000E+03 0.  0.
         25    1    1    2    0    0 -0.11418561100E+03 -0.53773157122E+01  0.26499262188E+03  0.31450494262E+03  0.12500000000E+03 0.  0.
</event>
<event>
 5    0  0.5572507E-005  0.2206038E+03  0.7546771E-02  0.1133434E+00
         21   -1    0    0  502  501  0.00000000000E+00  0.00000000000E+00  0.10923516088E+04  0.10923516088E+04  0.00000000000E+00 0.  1.
         21   -1    0    0  501  502 -0.00000000000E+00 -0.00000000000E+00 -0.44551633578E+02  0.44551633578E+02  0.00000000000E+00 0.  1.
         25    1    1    2    0    0 -0.57796188780E+02  0.34161691674E+02  0.32096475030E+03  0.35092847070E+03  0.12500000000E+03 0.  0.
         25    1    1    2    0    0  0.40829683150E+02  0.53784507817E+02  0.29153637694E+03  0.32431203399E+03  0.12500000000E+03 0.  0.
         25    1    1    2    0    0  0.16966505630E+02 -0.87946199491E+02  0.43529884799E+03  0.46166273770E+03  0.12500000000E+03 0.  0.
</event>
<event>
 5    0  0.5867721E-005  0.2968537E+03  0.7546771E-02  0.1086824E+00
         21   -1    0    0  502  501  0.00000000000E+00  0.00000000000E+00  0.34451929582E+03  0.34451929582E+03  0.00000000000E+00 0. -1.
         21   -1    0    0  501  502 -0.00000000000E+00 -0.00000000000E+00 -0.25578289746E+03  0.25578289746E+03  0.00000000000E+00 0. -1.
         25    1    1    2    0    0  0.81378528749E+02  0.15719220574E+03  0.13454399238E+03  0.25506654107E+03  0.12500000000E+03 0.  0.
         25    1    1    2    0    0  0.18463877738E+02 -0.12307880004E+03 -0.43348249950E+02  0.18164078995E+03  0.12500000000E+03 0.  0.
         25    1    1    2    0    0 -0.99842406487E+02 -0.34113405698E+02 -0.24593440768E+01  0.16359486225E+03  0.12500000000E+03 0.  0.
</event>
<event>
 5    0  0.5572507E-005  0.3244595E+03  0.7546771E-02  0.1073615E+00
         21   -1    0    0  502  501  0.00000000000E+00  0.00000000000E+00  0.21134846839E+03  0.21134846839E+03  0.00000000000E+00 0. -1.
         21   -1    0    0  501  502 -0.00000000000E+00 -0.00000000000E+00 -0.49810625254E+03  0.49810625254E+03  0.00000000000E+00 0. -1.
         25    1    1    2    0    0 -0.44329739221E+02 -0.94725465614E+02 -0.28457354159E+03  0.32794075713E+03  0.12500000000E+03 0.  0.
         25    1    1    2    0    0 -0.31774748400E+02 -0.25228228730E+02 -0.10312449937E+03  0.16705017369E+03  0.12500000000E+03 0.  0.
         25    1    1    2    0    0  0.76104487621E+02  0.11995369434E+03  0.10094025680E+03  0.21446379011E+03  0.12500000000E+03 0.  0.
</event>
<event>
 5    0  0.5572507E-005  0.3672842E+03  0.7546771E-02  0.1055736E+00
         21   -1    0    0  502  501  0.00000000000E+00  0.00000000000E+00  0.19607739358E+04  0.19607739358E+04  0.00000000000E+00 0. -1.
         21   -1    0    0  501  502 -0.00000000000E+00 -0.00000000000E+00 -0.68798183961E+02  0.68798183961E+02  0.00000000000E+00 0. -1.
         25    1    1    2    0    0 -0.11006623753E+03  0.20184309932E+03  0.62788369349E+03  0.68023389061E+03  0.12500000000E+03 0.  0.
         25    1    1    2    0    0  0.20623986525E+02 -0.24390206724E+03  0.10308274705E+04  0.10668382451E+04  0.12500000000E+03 0.  0.
         25    1    1    2    0    0  0.89442251008E+02  0.42058967925E+02  0.23326458778E+03  0.28249998400E+03  0.12500000000E+03 0.  0.
</event>
<event>
 5    0  0.5572507E-005  0.2698483E+03  0.7546771E-02  0.1101366E+00
         21   -1    0    0  502  501  0.00000000000E+00  0.00000000000E+00  0.15054082284E+03  0.15054082284E+03  0.00000000000E+00 0. -1.
         21   -1    0    0  501  502 -0.00000000000E+00 -0.00000000000E+00 -0.48371012179E+03  0.48371012179E+03  0.00000000000E+00 0. -1.
         25    1    1    2    0    0  0.57767733636E+02  0.60937096208E+02  0.23928544581E+02  0.15247300085E+03  0.12500000000E+03 0.  0.
         25    1    1    2    0    0 -0.21578990356E+02 -0.10326247641E+03 -0.10334537661E+03  0.19347883276E+03  0.12500000000E+03 0.  0.
         25    1    1    2    0    0 -0.36188743280E+02  0.42325380197E+02 -0.25375246691E+03  0.28829911102E+03  0.12500000000E+03 0.  0.
</event>
<event>
 5    0  0.5572507E-005  0.2961920E+03  0.7546771E-02  0.1087160E+00
         21   -1    0    0  502  501  0.00000000000E+00  0.00000000000E+00  0.37869239029E+03  0.37869239029E+03  0.00000000000E+00 0. -1.
         21   -1    0    0  501  502 -0.00000000000E+00 -0.00000000000E+00 -0.23166480339E+03  0.23166480339E+03  0.00000000000E+00 0. -1.
         25    1    1    2    0    0 -0.10871672876E+03 -0.51325793385E+02 -0.57774083807E+02  0.18280182969E+03  0.12500000000E+03 0.  0.
         25    1    1    2    0    0 -0.48846993960E+02  0.76096299937E+02  0.15539792470E+03  0.21897531980E+03  0.12500000000E+03 0.  0.
         25    1    1    2    0    0  0.15756372272E+03 -0.24770506552E+02  0.49403746004E+02  0.20858004418E+03  0.12500000000E+03 0.  0.
</event>
<event>
 5    0  0.6740610E-005  0.3330326E+03  0.7546771E-02  0.1069803E+00
         21   -1    0    0  502  501  0.00000000000E+00  0.00000000000E+00  0.69791749752E+03  0.69791749752E+03  0.00000000000E+00 0. -1.
         21   -1    0    0  501  502 -0.00000000000E+00 -0.00000000000E+00 -0.15891663542E+03  0.15891663542E+03  0.00000000000E+00 0. -1.
         25    1    1    2    0    0  0.62203928683E+01 -0.11050995955E+03  0.38597479335E+03  0.42053856607E+03  0.12500000000E+03 0.  0.
         25    1    1    2    0    0 -0.10850459357E+03 -0.31101860560E+02 -0.67942744123E+01  0.16855780825E+03  0.12500000000E+03 0.  0.
         25    1    1    2    0    0  0.10228420071E+03  0.14161182011E+03  0.15982034316E+03  0.26773775863E+03  0.12500000000E+03 0.  0.
</event>
<event>
 5    0  0.5572507E-005  0.3492786E+03  0.7546771E-02  0.1062912E+00
         21   -1    0    0  502  501  0.00000000000E+00  0.00000000000E+00  0.24226483602E+03  0.24226483602E+03  0.00000000000E+00 0. -1.
         21   -1    0    0  501  502 -0.00000000000E+00 -0.00000000000E+00 -0.50356280462E+03  0.50356280462E+03  0.00000000000E+00 0. -1.
         25    1    1    2    0    0  0.86161746067E+02 -0.17242182441E+02 -0.95438445280E+02  0.18015170323E+03  0.12500000000E+03 0.  0.
         25    1    1    2    0    0  0.18586804002E+03 -0.40253085804E+02 -0.12038122848E+03  0.25745655825E+03  0.12500000000E+03 0.  0.
         25    1    1    2    0    0 -0.27202978608E+03  0.57495268245E+02 -0.45478294840E+02  0.30821937916E+03  0.12500000000E+03 0.  0.
</event>
<event>
 5    0  0.5572507E-005  0.4252240E+03  0.7546771E-02  0.1035379E+00
         21   -1    0    0  502  501  0.00000000000E+00  0.00000000000E+00  0.27857124129E+03  0.27857124129E+03  0.00000000000E+00 0.  1.
         21   -1    0    0  501  502 -0.00000000000E+00 -0.00000000000E+00 -0.64908140033E+03  0.64908140033E+03  0.00000000000E+00 0.  1.
         25    1    1    2    0    0  0.29569794743E+03  0.34806611749E+02 -0.13930129135E+03  0.35167972092E+03  0.12500000000E+03 0.  0.
         25    1    1    2    0    0 -0.14734736285E+03 -0.14664798861E+03  0.15161596423E+02  0.24304681012E+03  0.12500000000E+03 0.  0.
         25    1    1    2    0    0 -0.14835058458E+03  0.11184137687E+03 -0.24637046411E+03  0.33292611058E+03  0.12500000000E+03 0.  0.
</event>
<event>
 5    0  0.5572507E-005  0.4289968E+03  0.7546771E-02  0.1034177E+00
         21   -1    0    0  502  501  0.00000000000E+00  0.00000000000E+00  0.11316017138E+03  0.11316017138E+03  0.00000000000E+00 0.  1.
         21   -1    0    0  501  502 -0.00000000000E+00 -0.00000000000E+00 -0.16263518562E+04  0.16263518562E+04  0.00000000000E+00 0.  1.
         25    1    1    2    0    0  0.12386758129E+03  0.24777151030E+02 -0.78115691711E+02  0.19412404848E+03  0.12500000000E+03 0.  0.
         25    1    1    2    0    0  0.20160400287E+02 -0.18220460508E+03 -0.24774004211E+03  0.33257343297E+03  0.12500000000E+03 0.  0.
         25    1    1    2    0    0 -0.14402798158E+03  0.15742745405E+03 -0.11873359510E+04  0.12128145461E+04  0.12500000000E+03 0.  0.
</event>
<event>
 5    0  0.5572507E-005  0.1936587E+03  0.7546771E-02  0.1155202E+00
         21   -1    0    0  502  501  0.00000000000E+00  0.00000000000E+00  0.48867024539E+02  0.48867024539E+02  0.00000000000E+00 0. -1.
         21   -1    0    0  501  502 -0.00000000000E+00 -0.00000000000E+00 -0.76746419270E+03  0.76746419270E+03  0.00000000000E+00 0. -1.
         25    1    1    2    0    0  0.20597650252E+02 -0.28521235268E+02 -0.29139154148E+03  0.31901685614E+03  0.12500000000E+03 0.  0.
         25    1    1    2    0    0 -0.10808172915E+02  0.14016157281E+02 -0.18155952615E+03  0.22113826173E+03  0.12500000000E+03 0.  0.
         25    1    1    2    0    0 -0.97894773362E+01  0.14505077987E+02 -0.24564610053E+03  0.27617609937E+03  0.12500000000E+03 0.  0.
</event>
<event>
 5    0  0.5572507E-005  0.2619512E+03  0.7546771E-02  0.1105977E+00
         21   -1    0    0  502  501  0.00000000000E+00  0.00000000000E+00  0.68554902340E+03  0.68554902340E+03  0.00000000000E+00 0. -1.
         21   -1    0    0  501  502 -0.00000000000E+00 -0.00000000000E+00 -0.10009266035E+03  0.10009266035E+03  0.00000000000E+00 0. -1.
         25    1    1    2    0    0  0.11224506611E+03 -0.51966467193E+02  0.31822224875E+03  0.36357924607E+03  0.12500000000E+03 0.  0.
         25    1    1    2    0    0 -0.68627838645E+02  0.10365803375E+03  0.10032952580E+03  0.20284423074E+03  0.12500000000E+03 0.  0.
         25    1    1    2    0    0 -0.43617227462E+02 -0.51691566559E+02  0.16690458851E+03  0.21921820693E+03  0.12500000000E+03 0.  0.
</event>
<event>
 5    0  0.5572507E-005  0.3603042E+03  0.7546771E-02  0.1058463E+00
         21   -1    0    0  502  501  0.00000000000E+00  0.00000000000E+00  0.12502395243E+04  0.12502395243E+04  0.00000000000E+00 0. -1.
         21   -1    0    0  501  502 -0.00000000000E+00 -0.00000000000E+00 -0.10383538632E+03  0.10383538632E+03  0.00000000000E+00 0. -1.
         25    1    1    2    0    0  0.53026835176E+02 -0.27512648669E+02  0.21284333741E+03  0.25396077919E+03  0.12500000000E+03 0.  0.
         25    1    1    2    0    0 -0.18590580288E+03 -0.10341729655E+03  0.80368126463E+03  0.84070487086E+03  0.12500000000E+03 0.  0.
         25    1    1    2    0    0  0.13287896770E+03  0.13092994522E+03  0.12987953593E+03  0.25940926056E+03  0.12500000000E+03 0.  0.
</event>
<event>
 5    0  0.5572507E-005  0.2912304E+03  0.7546771E-02  0.1089709E+00
         21   -1    0    0  502  501  0.00000000000E+00  0.00000000000E+00  0.45628237476E+03  0.45628237476E+03  0.00000000000E+00 0. -1.
         21   -1    0    0  501  502 -0.00000000000E+00 -0.00000000000E+00 -0.18588296065E+03  0.18588296065E+03  0.00000000000E+00 0. -1.
         25    1    1    2    0    0 -0.16009799388E+02  0.42425131023E+02  0.45467141502E+01  0.13304840483E+03  0.12500000000E+03 0.  0.
         25    1    1    2    0    0 -0.10275181335E+03 -0.15830940332E+03  0.13398696461E+03  0.26305381391E+03  0.12500000000E+03 0.  0.
         25    1    1    2    0    0  0.11876161274E+03  0.11588427229E+03  0.13186573536E+03  0.24606311667E+03  0.12500000000E+03 0.  0.
</event>
<event>
 5    0  0.5572507E-005  0.4218702E+03  0.7546771E-02  0.1036459E+00
         21   -1    0    0  502  501  0.00000000000E+00  0.00000000000E+00  0.81072874826E+03  0.81072874826E+03  0.00000000000E+00 0. -1.
         21   -1    0    0  501  502 -0.00000000000E+00 -0.00000000000E+00 -0.21952408887E+03  0.21952408887E+03  0.00000000000E+00 0. -1.
         25    1    1    2    0    0 -0.88491245514E+02 -0.16666684752E+03  0.26410944579E+03  0.34783234173E+03  0.12500000000E+03 0.  0.
         25    1    1    2    0    0 -0.41190571462E+02  0.82909284027E+02  0.43102594721E+03  0.45823463392E+03  0.12500000000E+03 0.  0.
         25    1    1    2    0    0  0.12968181698E+03  0.83757563494E+02 -0.10393073361E+03  0.22418586148E+03  0.12500000000E+03 0.  0.
</event>
<event>
 5    0  0.5572507E-005  0.2691350E+03  0.7546771E-02  0.1101776E+00
         21   -1    0    0  502  501  0.00000000000E+00  0.00000000000E+00  0.24762348888E+03  0.24762348888E+03  0.00000000000E+00 0. -1.
         21   -1    0    0  501  502 -0.00000000000E+00 -0.00000000000E+00 -0.29251524594E+03  0.29251524594E+03  0.00000000000E+00 0. -1.
         25    1    1    2    0    0  0.51212189032E+02 -0.89836780239E+02  0.67924076885E+02  0.17587499996E+03  0.12500000000E+03 0.  0.
         25    1    1    2    0    0 -0.95352279628E+02 -0.16415363954E+02  0.39412499504E+01  0.15812038090E+03  0.12500000000E+03 0.  0.
         25    1    1    2    0    0  0.44140090596E+02  0.10625214419E+03 -0.11675708390E+03  0.20614335397E+03  0.12500000000E+03 0.  0.
</event>
<event>
 5    0  0.5572507E-005  0.3828625E+03  0.7546771E-02  0.1049881E+00
         21   -1    0    0  502  501  0.00000000000E+00  0.00000000000E+00  0.80786895524E+03  0.80786895524E+03  0.00000000000E+00 0.  1.
         21   -1    0    0  501  502 -0.00000000000E+00 -0.00000000000E+00 -0.18144492814E+03  0.18144492814E+03  0.00000000000E+00 0.  1.
         25    1    1    2    0    0  0.46964390917E+02 -0.23817428669E+03  0.99596690038E+02  0.29064952352E+03  0.12500000000E+03 0.  0.
         25    1    1    2    0    0  0.46779949943E+02 -0.39640711329E+02  0.14014820969E+03  0.19755067803E+03  0.12500000000E+03 0.  0.
         25    1    1    2    0    0 -0.93744340860E+02  0.27781499802E+03  0.38667912737E+03  0.50111368182E+03  0.12500000000E+03 0.  0.
</event>
<event>
 5    0  0.5572507E-005  0.2526939E+03  0.7546771E-02  0.1111614E+00
         21   -1    0    0  502  501  0.00000000000E+00  0.00000000000E+00  0.39263043591E+03  0.39263043591E+03  0.00000000000E+00 0.  1.
         21   -1    0    0  501  502 -0.00000000000E+00 -0.00000000000E+00 -0.16263178664E+03  0.16263178664E+03  0.00000000000E+00 0.  1.
         25    1    1    2    0    0  0.87574303460E+01 -0.32891634523E+02  0.21254425083E+02  0.13128329213E+03  0.12500000000E+03 0.  0.
         25    1    1    2    0    0 -0.13429492138E+03 -0.12323445133E+02  0.12837120656E+03  0.22425690598E+03  0.12500000000E+03 0.  0.
         25    1    1    2    0    0  0.12553749103E+03  0.45215079656E+02  0.80373017628E+02  0.19972202444E+03  0.12500000000E+03 0.  0.
</event>
<event>
 5    0  0.5572507E-005  0.2184158E+03  0.7546771E-02  0.1135070E+00
         21   -1    0    0  502  501  0.00000000000E+00  0.00000000000E+00  0.42044229284E+02  0.42044229284E+02  0.00000000000E+00 0.  1.
         21   -1    0    0  501  502 -0.00000000000E+00 -0.00000000000E+00 -0.11346498428E+04  0.11346498428E+04  0.00000000000E+00 0.  1.
         25    1    1    2    0    0  0.85101495659E+02 -0.30251391671E+02 -0.26723017062E+03  0.30853585748E+03  0.12500000000E+03 0.  0.
         25    1    1    2    0    0 -0.54952161757E+02  0.92417544686E+01 -0.47581383744E+03  0.49510499695E+03  0.12500000000E+03 0.  0.
         25    1    1    2    0    0 -0.30149333901E+02  0.21009637202E+02 -0.34956160542E+03  0.37305321762E+03  0.12500000000E+03 0.  0.
</event>
<event>
 5    0  0.5572507E-005  0.3253760E+03  0.7546771E-02  0.1073201E+00
         21   -1    0    0  502  501  0.00000000000E+00  0.00000000000E+00  0.15102990327E+03  0.15102990327E+03  0.00000000000E+00 0.  1.
         21   -1    0    0  501  502 -0.00000000000E+00 -0.00000000000E+00 -0.70098404069E+03  0.70098404069E+03  0.00000000000E+00 0.  1.
         25    1    1    2    0    0  0.12544676517E+02 -0.44219290948E+02 -0.39424601735E+03  0.41613415721E+03  0.12500000000E+03 0.  0.
         25    1    1    2    0    0 -0.24093135469E+01  0.91172927595E+02  0.72814129736E+02  0.17101229490E+03  0.12500000000E+03 0.  0.
         25    1    1    2    0    0 -0.10135362970E+02 -0.46953636647E+02 -0.22852224981E+03  0.26486749184E+03  0.12500000000E+03 0.  0.
</event>
<event>
 5    0  0.5572507E-005  0.2427543E+03  0.7546771E-02  0.1117971E+00
         21   -1    0    0  502  501  0.00000000000E+00  0.00000000000E+00  0.27407938640E+03  0.27407938640E+03  0.00000000000E+00 0.  1.
         21   -1    0    0  501  502 -0.00000000000E+00 -0.00000000000E+00 -0.21500943614E+03  0.21500943614E+03  0.00000000000E+00 0.  1.
         25    1    1    2    0    0 -0.25347417416E+02  0.11518020923E+03  0.12048894041E+02  0.17227637103E+03  0.12500000000E+03 0.  0.
         25    1    1    2    0    0 -0.17908378216E+02  0.81861836669E+01 -0.10593900330E+02  0.12698407120E+03  0.12500000000E+03 0.  0.
         25    1    1    2    0    0  0.43255795631E+02 -0.12336639290E+03  0.57614956551E+02  0.18982838031E+03  0.12500000000E+03 0.  0.
</event>
<event>
 5    0  0.5572507E-005  0.4733563E+03  0.7546771E-02  0.1020977E+00
         21   -1    0    0  502  501  0.00000000000E+00  0.00000000000E+00  0.73781600729E+02  0.73781600729E+02  0.00000000000E+00 0.  1.
         21   -1    0    0  501  502 -0.00000000000E+00 -0.00000000000E+00 -0.30368844978E+04  0.30368844978E+04  0.00000000000E+00 0.  1.
         25    1    1    2    0    0 -0.11435615531E+03  0.22349748718E+03 -0.60789270791E+03  0.66946770001E+03  0.12500000000E+03 0.  0.
         25    1    1    2    0    0 -0.22266640047E+02  0.14366115269E+03 -0.11947226067E+04  0.12100088583E+04  0.12500000000E+03 0.  0.
         25    1    1    2    0    0  0.13662279536E+03 -0.36715863986E+03 -0.11604875824E+04  0.12311895402E+04  0.12500000000E+03 0.  0.
</event>
<event>
 5    0  0.5572507E-005  0.2584492E+03  0.7546771E-02  0.1108079E+00
         21   -1    0    0  502  501  0.00000000000E+00  0.00000000000E+00  0.77671315460E+03  0.77671315460E+03  0.00000000000E+00 0. -1.
         21   -1    0    0  501  502 -0.00000000000E+00 -0.00000000000E+00 -0.85998272410E+02  0.85998272410E+02  0.00000000000E+00 0. -1.
         25    1    1    2    0    0 -0.17381504244E+02 -0.11152853925E+03  0.13495856156E+03  0.21582294849E+03  0.12500000000E+03 0.  0.
         25    1    1    2    0    0  0.36725350534E+02  0.45079826784E+02  0.10290881046E+03  0.17203536097E+03  0.12500000000E+03 0.  0.
         25    1    1    2    0    0 -0.19343846291E+02  0.66448712464E+02  0.45284751017E+03  0.47485311755E+03  0.12500000000E+03 0.  0.
</event>
<event>
 5    0  0.5572507E-005  0.2964815E+03  0.7546771E-02  0.1087013E+00
         21   -1    0    0  502  501  0.00000000000E+00  0.00000000000E+00  0.59732348741E+02  0.59732348741E+02  0.00000000000E+00 0.  1.
         21   -1    0    0  501  502 -0.00000000000E+00 -0.00000000000E+00 -0.14715861737E+04  0.14715861737E+04  0.00000000000E+00 0.  1.
         25    1    1    2    0    0  0.13381944803E+02 -0.25466126036E+02 -0.21259883661E+03  0.24829592295E+03  0.12500000000E+03 0.  0.
         25    1    1    2    0    0 -0.69543002698E+02 -0.77078816979E+01 -0.11030967226E+04  0.11123592136E+04  0.12500000000E+03 0.  0.
         25    1    1    2    0    0  0.56161057895E+02  0.33174007734E+02 -0.96158265731E+02  0.17066338588E+03  0.12500000000E+03 0.  0.
</event>
<event>
 5    0  0.5572507E-005  0.3464391E+03  0.7546771E-02  0.1064086E+00
         21   -1    0    0  502  501  0.00000000000E+00  0.00000000000E+00  0.71534754771E+02  0.71534754771E+02  0.00000000000E+00 0.  1.
         21   -1    0    0  501  502 -0.00000000000E+00 -0.00000000000E+00 -0.16777864949E+04  0.16777864949E+04  0.00000000000E+00 0.  1.
         25    1    1    2    0    0  0.11915939948E+03  0.42142000047E+02 -0.55546181690E+03  0.58321328918E+03  0.12500000000E+03 0.  0.
         25    1    1    2    0    0 -0.96704042264E+02 -0.19247698920E+03 -0.84679409995E+03  0.88265752751E+03  0.12500000000E+03 0.  0.
         25    1    1    2    0    0 -0.22455357217E+02  0.15033498916E+03 -0.20399582326E+03  0.28345043295E+03  0.12500000000E+03 0.  0.
</event>
<event>
 5    0  0.5572507E-005  0.5218817E+03  0.7546771E-02  0.1008220E+00
         21   -1    0    0  502  501  0.00000000000E+00  0.00000000000E+00  0.22589524540E+03  0.22589524540E+03  0.00000000000E+00 0. -1.
         21   -1    0    0  501  502 -0.00000000000E+00 -0.00000000000E+00 -0.12056938423E+04  0.12056938423E+04  0.00000000000E+00 0. -1.
         25    1    1    2    0    0  0.11225157941E+03 -0.35251955928E+03 -0.16561541124E+03  0.42417439950E+03  0.12500000000E+03 0.  0.
         25    1    1    2    0    0 -0.12017041058E+03 -0.41421177241E+02 -0.28059247224E+03  0.33243612467E+03  0.12500000000E+03 0.  0.
         25    1    1    2    0    0  0.79188311623E+01  0.39394073652E+03 -0.53359071341E+03  0.67497856353E+03  0.12500000000E+03 0.  0.
</event>
<event>
 5    0  0.5572507E-005  0.4075256E+03  0.7546771E-02  0.1041205E+00
         21   -1    0    0  502  501  0.00000000000E+00  0.00000000000E+00  0.62455967696E+02  0.62455967696E+02  0.00000000000E+00 0.  1.
         21   -1    0    0  501  502 -0.00000000000E+00 -0.00000000000E+00 -0.26591068637E+04  0.26591068637E+04  0.00000000000E+00 0.  1.
         25    1    1    2    0    0 -0.29785000230E+02  0.28261160493E+03 -0.63968895428E+03  0.71104389718E+03  0.12500000000E+03 0.  0.
         25    1    1    2    0    0  0.13673344970E+03 -0.14974325565E+03 -0.81313101771E+03  0.84730521705E+03  0.12500000000E+03 0.  0.
         25    1    1    2    0    0 -0.10694844947E+03 -0.13286834928E+03 -0.11438309240E+04  0.11632137171E+04  0.12500000000E+03 0.  0.
</event>
<event>
 5    0  0.7006875E-005  0.4209935E+03  0.7546771E-02  0.1036743E+00
         21   -1    0    0  502  501  0.00000000000E+00  0.00000000000E+00  0.71094563526E+03  0.71094563526E+03  0.00000000000E+00 0. -1.
         21   -1    0    0  501  502 -0.00000000000E+00 -0.00000000000E+00 -0.24929552537E+03  0.24929552537E+03  0.00000000000E+00 0. -1.
         25    1    1    2    0    0  0.10578777313E+03 -0.31212719275E+01  0.47486846160E+03  0.50232046654E+03  0.12500000000E+03 0.  0.
         25    1    1    2    0    0  0.28127941444E+02  0.11369950931E-01 -0.17268500903E+03  0.21502626249E+03  0.12500000000E+03 0.  0.
         25    1    1    2    0    0 -0.13391571458E+03  0.31099019766E+01  0.15946665732E+03  0.24289443159E+03  0.12500000000E+03 0.  0.
</event>
<event>
 5    0  0.5572507E-005  0.5536478E+03  0.7546771E-02  0.1000653E+00
         21   -1    0    0  502  501  0.00000000000E+00  0.00000000000E+00  0.24815287033E+04  0.24815287033E+04  0.00000000000E+00 0. -1.
         21   -1    0    0  501  502 -0.00000000000E+00 -0.00000000000E+00 -0.12352302830E+03  0.12352302830E+03  0.00000000000E+00 0. -1.
         25    1    1    2    0    0  0.29168950536E+03  0.45043797063E+02  0.13435951205E+04  0.13812981427E+04  0.12500000000E+03 0.  0.
         25    1    1    2    0    0  0.23024681607E+02 -0.19016268393E+03  0.70972273536E+03  0.74566972810E+03  0.12500000000E+03 0.  0.
         25    1    1    2    0    0 -0.31471418697E+03  0.14511888686E+03  0.30468781910E+03  0.47808386075E+03  0.12500000000E+03 0.  0.
</event>
<event>
 5    0  0.5572507E-005  0.2442335E+03  0.7546771E-02  0.1117004E+00
         21   -1    0    0  502  501  0.00000000000E+00  0.00000000000E+00  0.53289931867E+03  0.53289931867E+03  0.00000000000E+00 0. -1.
         21   -1    0    0  501  502 -0.00000000000E+00 -0.00000000000E+00 -0.11193488526E+03  0.11193488526E+03  0.00000000000E+00 0. -1.
         25    1    1    2    0    0  0.29817617081E+02 -0.64515834528E+01  0.92360920890E+02  0.15838640385E+03  0.12500000000E+03 0.  0.
         25    1    1    2    0    0  0.88870759371E+02  0.77433475828E+02  0.14539042021E+03  0.22507183151E+03  0.12500000000E+03 0.  0.
         25    1    1    2    0    0 -0.11868837645E+03 -0.70981892376E+02  0.18321309232E+03  0.26137596857E+03  0.12500000000E+03 0.  0.
</event>
<event>
 5    0  0.5572507E-005  0.2752248E+03  0.7546771E-02  0.1098326E+00
         21   -1    0    0  502  501  0.00000000000E+00  0.00000000000E+00  0.12278969832E+04  0.12278969832E+04  0.00000000000E+00 0.  1.
         21   -1    0    0  501  502 -0.00000000000E+00 -0.00000000000E+00 -0.61689786069E+02  0.61689786069E+02  0.00000000000E+00 0.  1.
         25    1    1    2    0    0 -0.56481911964E+02  0.29027211376E+02  0.13334581865E+03  0.19349132469E+03  0.12500000000E+03 0.  0.
         25    1    1    2    0    0  0.13833629390E+03  0.45631400394E+02  0.66381803711E+03  0.69101269258E+03  0.12500000000E+03 0.  0.
         25    1    1    2    0    0 -0.81854381940E+02 -0.74658611771E+02  0.36904334134E+03  0.40508275197E+03  0.12500000000E+03 0.  0.
</event>
<event>
 5    0  0.5572507E-005  0.4026742E+03  0.7546771E-02  0.1042858E+00
         21   -1    0    0  502  501  0.00000000000E+00  0.00000000000E+00  0.36449626624E+03  0.36449626624E+03  0.00000000000E+00 0.  1.
         21   -1    0    0  501  502 -0.00000000000E+00 -0.00000000000E+00 -0.44485102950E+03  0.44485102950E+03  0.00000000000E+00 0.  1.
         25    1    1    2    0    0  0.15376526094E+03 -0.82546415425E+01  0.33107585405E+02  0.20107960312E+03  0.12500000000E+03 0.  0.
         25    1    1    2    0    0  0.16313046795E+03 -0.10313949106E+03  0.73036665343E+01  0.23006009592E+03  0.12500000000E+03 0.  0.
         25    1    1    2    0    0 -0.31689572889E+03  0.11139413260E+03 -0.12076601520E+03  0.37820759669E+03  0.12500000000E+03 0.  0.
</event>
<event>
 5    0  0.5572507E-005  0.3161670E+03  0.7546771E-02  0.1077427E+00
         21   -1    0    0  502  501  0.00000000000E+00  0.00000000000E+00  0.11561511050E+03  0.11561511050E+03  0.00000000000E+00 0. -1.
         21   -1    0    0  501  502 -0.00000000000E+00 -0.00000000000E+00 -0.86460672904E+03  0.86460672904E+03  0.00000000000E+00 0. -1.
         25    1    1    2    0    0  0.12109350162E+02  0.91433365846E+02 -0.26913023662E+03  0.31074552453E+03  0.12500000000E+03 0.  0.
         25    1    1    2    0    0  0.14032513726E+03 -0.22005452017E+02 -0.40579587317E+03  0.44773951663E+03  0.12500000000E+03 0.  0.
         25    1    1    2    0    0 -0.15243448742E+03 -0.69427913829E+02 -0.74065508741E+02  0.22173679839E+03  0.12500000000E+03 0.  0.
</event>
<event>
 5    0  0.8228920E-005  0.4294174E+03  0.7546771E-02  0.1034044E+00
         21   -1    0    0  502  501  0.00000000000E+00  0.00000000000E+00  0.12585384051E+04  0.12585384051E+04  0.00000000000E+00 0.  1.
         21   -1    0    0  501  502 -0.00000000000E+00 -0.00000000000E+00 -0.14651862364E+03  0.14651862364E+03  0.00000000000E+00 0.  1.
         25    1    1    2    0    0 -0.11939562424E+03 -0.41179716271E+02 -0.36657493236E+02  0.18143829786E+03  0.12500000000E+03 0.  0.
         25    1    1    2    0    0 -0.76859955121E+02  0.12318709980E+02  0.72103132716E+03  0.73591465406E+03  0.12500000000E+03 0.  0.
         25    1    1    2    0    0  0.19625557936E+03  0.28861006291E+02  0.42764594758E+03  0.48770407687E+03  0.12500000000E+03 0.  0.
</event>
<event>
 5    0  0.5572507E-005  0.5686930E+03  0.7546771E-02  0.9972575E-01
         21   -1    0    0  502  501  0.00000000000E+00  0.00000000000E+00  0.46681732157E+03  0.46681732157E+03  0.00000000000E+00 0.  1.
         21   -1    0    0  501  502 -0.00000000000E+00 -0.00000000000E+00 -0.69280158922E+03  0.69280158922E+03  0.00000000000E+00 0.  1.
         25    1    1    2    0    0  0.14919685668E+03  0.34944858394E+03 -0.37762284048E+03  0.55008910598E+03  0.12500000000E+03 0.  0.
         25    1    1    2    0    0 -0.11185883388E+02 -0.31997876980E+03  0.22102720711E+03  0.40864356522E+03  0.12500000000E+03 0.  0.
         25    1    1    2    0    0 -0.13801097329E+03 -0.29469814140E+02 -0.69388634282E+02  0.20088623960E+03  0.12500000000E+03 0.  0.
</event>
<event>
 5    0  0.5572507E-005  0.2820671E+03  0.7546771E-02  0.1094565E+00
         21   -1    0    0  502  501  0.00000000000E+00  0.00000000000E+00  0.13640222495E+04  0.13640222495E+04  0.00000000000E+00 0. -1.
         21   -1    0    0  501  502 -0.00000000000E+00 -0.00000000000E+00 -0.58328839237E+02  0.58328839237E+02  0.00000000000E+00 0. -1.
         25    1    1    2    0    0  0.25282192502E+02  0.42457208929E+02  0.30410092062E+03  0.33248183976E+03  0.12500000000E+03 0.  0.
         25    1    1    2    0    0  0.80056661776E+02 -0.18840585814E+02  0.85819446854E+03  0.87114108077E+03  0.12500000000E+03 0.  0.
         25    1    1    2    0    0 -0.10533885428E+03 -0.23616623115E+02  0.14339802108E+03  0.21872816818E+03  0.12500000000E+03 0.  0.
</event>
<event>
 5    0  0.5572507E-005  0.3542412E+03  0.7546771E-02  0.1060888E+00
         21   -1    0    0  502  501  0.00000000000E+00  0.00000000000E+00  0.34494707208E+03  0.34494707208E+03  0.00000000000E+00 0. -1.
         21   -1    0    0  501  502 -0.00000000000E+00 -0.00000000000E+00 -0.36378575906E+03  0.36378575906E+03  0.00000000000E+00 0. -1.
         25    1    1    2    0    0 -0.26976255865E+02  0.41409177973E+02  0.72441086887E+02  0.15269299090E+03  0.12500000000E+03 0.  0.
         25    1    1    2    0    0  0.10044351708E+03  0.34891749789E+02 -0.26850421630E+03  0.31468372773E+03  0.12500000000E+03 0.  0.
         25    1    1    2    0    0 -0.73467261214E+02 -0.76300927762E+02  0.17722444244E+03  0.24135611251E+03  0.12500000000E+03 0.  0.
</event>
<event>
 5    0  0.5572507E-005  0.4165556E+03  0.7546771E-02  0.1038193E+00
         21   -1    0    0  502  501  0.00000000000E+00  0.00000000000E+00  0.18214172182E+03  0.18214172182E+03  0.00000000000E+00 0.  1.
         21   -1    0    0  501  502 -0.00000000000E+00 -0.00000000000E+00 -0.95265672224E+03  0.95265672224E+03  0.00000000000E+00 0.  1.
         25    1    1    2    0    0 -0.54164277092E+01 -0.13574482661E+03 -0.30468386245E+03  0.35624886200E+03  0.12500000000E+03 0.  0.
         25    1    1    2    0    0 -0.53970755351E+02  0.34336544196E+03 -0.22942499711E+03  0.43482582544E+03  0.12500000000E+03 0.  0.
         25    1    1    2    0    0  0.59387183061E+02 -0.20762061536E+03 -0.23640614085E+03  0.34372375662E+03  0.12500000000E+03 0.  0.
</event>
<event>
 5    0  0.5572507E-005  0.2962212E+03  0.7546771E-02  0.1087145E+00
         21   -1    0    0  502  501  0.00000000000E+00  0.00000000000E+00  0.17925380857E+04  0.17925380857E+04  0.00000000000E+00 0.  1.
         21   -1    0    0  501  502 -0.00000000000E+00 -0.00000000000E+00 -0.48951258017E+02  0.48951258017E+02  0.00000000000E+00 0.  1.
         25    1    1    2    0    0 -0.13788710527E+02  0.14284138151E+03  0.29219621063E+03  0.34870820799E+03  0.12500000000E+03 0.  0.
         25    1    1    2    0    0 -0.40046938652E+02 -0.97079798380E+02  0.40630779825E+03  0.43788043056E+03  0.12500000000E+03 0.  0.
         25    1    1    2    0    0  0.53835649179E+02 -0.45761583133E+02  0.10450828188E+04  0.10549007052E+04  0.12500000000E+03 0.  0.
</event>
<event>
 5    0  0.5572507E-005  0.3000173E+03  0.7546771E-02  0.1085232E+00
         21   -1    0    0  502  501  0.00000000000E+00  0.00000000000E+00  0.14537162022E+03  0.14537162022E+03  0.00000000000E+00 0.  1.
         21   -1    0    0  501  502 -0.00000000000E+00 -0.00000000000E+00 -0.61917424666E+03  0.61917424666E+03  0.00000000000E+00 0.  1.
         25    1    1    2    0    0 -0.75826158944E+02  0.59505743957E+02 -0.16275677024E+03  0.22672738300E+03  0.12500000000E+03 0.  0.
         25    1    1    2    0    0  0.32902226982E+02 -0.20453613425E+03 -0.18539194216E+03  0.30481594278E+03  0.12500000000E+03 0.  0.
         25    1    1    2    0    0  0.42923931962E+02  0.14503039030E+03 -0.12565391404E+03  0.23300254110E+03  0.12500000000E+03 0.  0.
</event>
<event>
 5    0  0.5572507E-005  0.3563096E+03  0.7546771E-02  0.1060055E+00
         21   -1    0    0  502  501  0.00000000000E+00  0.00000000000E+00  0.81541275962E+03  0.81541275962E+03  0.00000000000E+00 0. -1.
         21   -1    0    0  501  502 -0.00000000000E+00 -0.00000000000E+00 -0.15569600547E+03  0.15569600547E+03  0.00000000000E+00 0. -1.
         25    1    1    2    0    0 -0.40500662136E+02  0.33971760840E+02  0.90475203283E+01  0.13601926993E+03  0.12500000000E+03 0.  0.
         25    1    1    2    0    0  0.33606942232E+02 -0.10204140797E+03 -0.42183839757E+01  0.16487774341E+03  0.12500000000E+03 0.  0.
         25    1    1    2    0    0  0.68937199043E+01  0.68069647133E+02  0.65488761780E+03  0.67021175175E+03  0.12500000000E+03 0.  0.
</event>
<event>
 5    0  0.5572507E-005  0.2924189E+03  0.7546771E-02  0.1089093E+00
         21   -1    0    0  502  501  0.00000000000E+00  0.00000000000E+00  0.75052303328E+02  0.75052303328E+02  0.00000000000E+00 0.  1.
         21   -1    0    0  501  502 -0.00000000000E+00 -0.00000000000E+00 -0.11393226184E+04  0.11393226184E+04  0.00000000000E+00 0.  1.
         25    1    1    2    0    0  0.17507533110E+02  0.60048647822E+02 -0.40720111699E+02  0.14558667974E+03  0.12500000000E+03 0.  0.
         25    1    1    2    0    0  0.68494184823E+02 -0.81239644293E+01 -0.57408599304E+03  0.59157178732E+03  0.12500000000E+03 0.  0.
         25    1    1    2    0    0 -0.86001717933E+02 -0.51924683393E+02 -0.44946421033E+03  0.47721645466E+03  0.12500000000E+03 0.  0.
</event>
<event>
 5    0  0.5572507E-005  0.3107522E+03  0.7546771E-02  0.1079986E+00
         21   -1    0    0  502  501  0.00000000000E+00  0.00000000000E+00  0.10579275122E+04  0.10579275122E+04  0.00000000000E+00 0.  1.
         21   -1    0    0  501  502 -0.00000000000E+00 -0.00000000000E+00 -0.91279354078E+02  0.91279354078E+02  0.00000000000E+00 0.  1.
         25    1    1    2    0    0 -0.67118649116E+01  0.49598810453E+02  0.96637104172E+02  0.16573720473E+03  0.12500000000E+03 0.  0.
         25    1    1    2    0    0 -0.14502406925E+03 -0.13259752840E+03  0.34003054519E+03  0.41214057901E+03  0.12500000000E+03 0.  0.
         25    1    1    2    0    0  0.15173593416E+03  0.82998717943E+02  0.52998050876E+03  0.57132908255E+03  0.12500000000E+03 0.  0.
</event>
<event>
 5    0  0.5572507E-005  0.5022794E+03  0.7546771E-02  0.1013186E+00
         21   -1    0    0  502  501  0.00000000000E+00  0.00000000000E+00  0.92019056035E+02  0.92019056035E+02  0.00000000000E+00 0.  1.
         21   -1    0    0  501  502 -0.00000000000E+00 -0.00000000000E+00 -0.27416561014E+04  0.27416561014E+04  0.00000000000E+00 0.  1.
         25    1    1    2    0    0 -0.98224315974E+01 -0.14556575536E+03 -0.68366187176E+03  0.71014394611E+03  0.12500000000E+03 0.  0.
         25    1    1    2    0    0  0.13660921514E+03  0.94386035843E+02 -0.19219007660E+04  0.19331058833E+04  0.12500000000E+03 0.  0.
         25    1    1    2    0    0 -0.12678678354E+03  0.51179719515E+02 -0.44074407585E+02  0.19042532808E+03  0.12500000000E+03 0.  0.
</event>
<event>
 5    0  0.5572507E-005  0.5668405E+03  0.7546771E-02  0.9976695E-01
         21   -1    0    0  502  501  0.00000000000E+00  0.00000000000E+00  0.80153570988E+03  0.80153570988E+03  0.00000000000E+00 0.  1.
         21   -1    0    0  501  502 -0.00000000000E+00 -0.00000000000E+00 -0.40086572066E+03  0.40086572066E+03  0.00000000000E+00 0.  1.
         25    1    1    2    0    0  0.16547823744E+03  0.42470181004E+03  0.82257674398E+02  0.47973534320E+03  0.12500000000E+03 0.  0.
         25    1    1    2    0    0 -0.47127097687E+02  0.57760975615E+00 -0.41123330398E+02  0.13977634017E+03  0.12500000000E+03 0.  0.
         25    1    1    2    0    0 -0.11835113975E+03 -0.42527941979E+03  0.35953564522E+03  0.58288974717E+03  0.12500000000E+03 0.  0.
</event>
<event>
 5    0  0.5572507E-005  0.3035129E+03  0.7546771E-02  0.1083498E+00
         21   -1    0    0  502  501  0.00000000000E+00  0.00000000000E+00  0.72263519111E+03  0.72263519111E+03  0.00000000000E+00 0.  1.
         21   -1    0    0  501  502 -0.00000000000E+00 -0.00000000000E+00 -0.12747796388E+03  0.12747796388E+03  0.00000000000E+00 0.  1.
         25    1    1    2    0    0  0.60696850129E+02 -0.87438094058E+02  0.12177919241E+03  0.20441306126E+03  0.12500000000E+03 0.  0.
         25    1    1    2    0    0 -0.19408171407E+03  0.10559513196E+03  0.24735559504E+03  0.35444016989E+03  0.12500000000E+03 0.  0.
         25    1    1    2    0    0  0.13338486394E+03 -0.18157037901E+02  0.22602243978E+03  0.29125992384E+03  0.12500000000E+03 0.  0.
</event>
<event>
 5    0  0.5701192E-005  0.3171735E+03  0.7546771E-02  0.1076958E+00
         21   -1    0    0  502  501  0.00000000000E+00  0.00000000000E+00  0.56831931192E+03  0.56831931192E+03  0.00000000000E+00 0.  1.
         21   -1    0    0  501  502 -0.00000000000E+00 -0.00000000000E+00 -0.17701149301E+03  0.17701149301E+03  0.00000000000E+00 0.  1.
         25    1    1    2    0    0  0.22666110652E+03  0.34115259722E+01  0.16242124230E+03  0.30560195626E+03  0.12500000000E+03 0.  0.
         25    1    1    2    0    0 -0.77704874371E+02 -0.57883685102E+02  0.39814814256E+02  0.16309134844E+03  0.12500000000E+03 0.  0.
         25    1    1    2    0    0 -0.14895623215E+03  0.54472159130E+02  0.18907176235E+03  0.27663750023E+03  0.12500000000E+03 0.  0.
</event>
<event>
 5    0  0.5572507E-005  0.5075742E+03  0.7546771E-02  0.1011821E+00
         21   -1    0    0  502  501  0.00000000000E+00  0.00000000000E+00  0.17793525433E+04  0.17793525433E+04  0.00000000000E+00 0. -1.
         21   -1    0    0  501  502 -0.00000000000E+00 -0.00000000000E+00 -0.14478948302E+03  0.14478948302E+03  0.00000000000E+00 0. -1.
         25    1    1    2    0    0 -0.28404700599E+03  0.26089423939E+03  0.74769350568E+03  0.85054046593E+03  0.12500000000E+03 0.  0.
         25    1    1    2    0    0 -0.51771294639E+02  0.35267185202E+02  0.22080198406E+03  0.26134757979E+03  0.12500000000E+03 0.  0.
         25    1    1    2    0    0  0.33581830063E+03 -0.29616142459E+03  0.66606757056E+03  0.81225398060E+03  0.12500000000E+03 0.  0.
</event>
<event>
 5    0  0.5572507E-005  0.7027323E+03  0.7546771E-02  0.9712571E-01
         21   -1    0    0  502  501  0.00000000000E+00  0.00000000000E+00  0.12348200757E+04  0.12348200757E+04  0.00000000000E+00 0. -1.
         21   -1    0    0  501  502 -0.00000000000E+00 -0.00000000000E+00 -0.39992276956E+03  0.39992276956E+03  0.00000000000E+00 0. -1.
         25    1    1    2    0    0 -0.19254125625E+03 -0.47681253236E+03  0.59174526948E+03  0.79385753780E+03  0.12500000000E+03 0.  0.
         25    1    1    2    0    0  0.31954796809E+03  0.13670234955E+03  0.26765262819E+03  0.45613744163E+03  0.12500000000E+03 0.  0.
         25    1    1    2    0    0 -0.12700671184E+03  0.34011018282E+03 -0.24500591491E+02  0.38474786587E+03  0.12500000000E+03 0.  0.
</event>
<event>
 5    0  0.5572507E-005  0.3001348E+03  0.7546771E-02  0.1085173E+00
         21   -1    0    0  502  501  0.00000000000E+00  0.00000000000E+00  0.83565454728E+03  0.83565454728E+03  0.00000000000E+00 0.  1.
         21   -1    0    0  501  502 -0.00000000000E+00 -0.00000000000E+00 -0.10779679531E+03  0.10779679531E+03  0.00000000000E+00 0.  1.
         25    1    1    2    0    0 -0.64664159722E+02 -0.12944318054E+03  0.35974142804E+03  0.40740138143E+03  0.12500000000E+03 0.  0.
         25    1    1    2    0    0  0.85652247814E+02  0.45415784505E+02  0.34849396532E+03  0.38271653335E+03  0.12500000000E+03 0.  0.
         25    1    1    2    0    0 -0.20988088091E+02  0.84027396035E+02  0.19622358609E+02  0.15333342781E+03  0.12500000000E+03 0.  0.
</event>
<event>
 5    0  0.5572507E-005  0.3139318E+03  0.7546771E-02  0.1078476E+00
         21   -1    0    0  502  501  0.00000000000E+00  0.00000000000E+00  0.52197967938E+03  0.52197967938E+03  0.00000000000E+00 0. -1.
         21   -1    0    0  501  502 -0.00000000000E+00 -0.00000000000E+00 -0.18880659082E+03  0.18880659082E+03  0.00000000000E+00 0. -1.
         25    1    1    2    0    0 -0.38770837792E+02 -0.10563328831E+03  0.59824402762E+02  0.17850918360E+03  0.12500000000E+03 0.  0.
         25    1    1    2    0    0 -0.11667846174E+03 -0.75377126565E+02  0.12422965000E+03  0.22439603513E+03  0.12500000000E+03 0.  0.
         25    1    1    2    0    0  0.15544929953E+03  0.18101041488E+03  0.14911903579E+03  0.30788105147E+03  0.12500000000E+03 0.  0.
</event>
<event>
 5    0  0.5572507E-005  0.3110154E+03  0.7546771E-02  0.1079860E+00
         21   -1    0    0  502  501  0.00000000000E+00  0.00000000000E+00  0.17796954141E+03  0.17796954141E+03  0.00000000000E+00 0. -1.
         21   -1    0    0  501  502 -0.00000000000E+00 -0.00000000000E+00 -0.54352325233E+03  0.54352325233E+03  0.00000000000E+00 0. -1.
         25    1    1    2    0    0 -0.34462172987E+02  0.72365824003E+02 -0.22578440640E+03  0.27023702934E+03  0.12500000000E+03 0.  0.
         25    1    1    2    0    0  0.13867923746E+03 -0.15209663060E+03 -0.39160985172E+02  0.24397520099E+03  0.12500000000E+03 0.  0.
         25    1    1    2    0    0 -0.10421706447E+03  0.79730806593E+02 -0.10060831934E+03  0.20728056341E+03  0.12500000000E+03 0.  0.
</event>
<event>
 5    0  0.6765012E-005  0.3432878E+03  0.7546771E-02  0.1065404E+00
         21   -1    0    0  502  501  0.00000000000E+00  0.00000000000E+00  0.17786237364E+03  0.17786237364E+03  0.00000000000E+00 0. -1.
         21   -1    0    0  501  502 -0.00000000000E+00 -0.00000000000E+00 -0.66257144337E+03  0.66257144337E+03  0.00000000000E+00 0. -1.
         25    1    1    2    0    0  0.11013337635E+03  0.75775155823E+02  0.50874412075E+02  0.18995904988E+03  0.12500000000E+03 0.  0.
         25    1    1    2    0    0  0.57767017312E+02 -0.30803970636E+02 -0.30362791114E+03  0.33481460739E+03  0.12500000000E+03 0.  0.
         25    1    1    2    0    0 -0.16790039367E+03 -0.44971185187E+02 -0.23195557066E+03  0.31566015975E+03  0.12500000000E+03 0.  0.
</event>
<event>
 5    0  0.5572507E-005  0.3028318E+03  0.7546771E-02  0.1083834E+00
         21   -1    0    0  502  501  0.00000000000E+00  0.00000000000E+00  0.27638273350E+03  0.27638273350E+03  0.00000000000E+00 0. -1.
         21   -1    0    0  501  502 -0.00000000000E+00 -0.00000000000E+00 -0.33181202260E+03  0.33181202260E+03  0.00000000000E+00 0. -1.
         25    1    1    2    0    0 -0.13801501205E+02 -0.13905323168E+02  0.13790640783E+02  0.12727537555E+03  0.12500000000E+03 0.  0.
         25    1    1    2    0    0  0.16997516870E+01 -0.70330985214E+02  0.15454325798E+03  0.21085055187E+03  0.12500000000E+03 0.  0.
         25    1    1    2    0    0  0.12101749518E+02  0.84236308382E+02 -0.22376318786E+03  0.27006882869E+03  0.12500000000E+03 0.  0.
</event>
<event>
 5    0  0.5572507E-005  0.8777677E+03  0.7546771E-02  0.9453808E-01
         21   -1    0    0  502  501  0.00000000000E+00  0.00000000000E+00  0.24368835244E+03  0.24368835244E+03  0.00000000000E+00 0. -1.
         21   -1    0    0  501  502 -0.00000000000E+00 -0.00000000000E+00 -0.31617275189E+04  0.31617275189E+04  0.00000000000E+00 0. -1.
         25    1    1    2    0    0 -0.11004961869E+03  0.56571714198E+02 -0.28225811945E+04  0.28280560243E+04  0.12500000000E+03 0.  0.
         25    1    1    2    0    0 -0.18288058069E+02  0.17282358496E+03  0.90011176717E+02  0.23222716577E+03  0.12500000000E+03 0.  0.
         25    1    1    2    0    0  0.12833767676E+03 -0.22939529916E+03 -0.18546914875E+03  0.34513268128E+03  0.12500000000E+03 0.  0.
</event>
<event>
 5    0  0.5572507E-005  0.2553255E+03  0.7546771E-02  0.1109985E+00
         21   -1    0    0  502  501  0.00000000000E+00  0.00000000000E+00  0.99934036340E+02  0.99934036340E+02  0.00000000000E+00 0. -1.
         21   -1    0    0  501  502 -0.00000000000E+00 -0.00000000000E+00 -0.65234163584E+03  0.65234163584E+03  0.00000000000E+00 0. -1.
         25    1    1    2    0    0  0.97421019576E+02 -0.16437404451E+02 -0.13848765231E+03  0.21110393924E+03  0.12500000000E+03 0.  0.
         25    1    1    2    0    0 -0.11510212328E+03 -0.49634782588E+02 -0.33346015156E+03  0.37753514155E+03  0.12500000000E+03 0.  0.
         25    1    1    2    0    0  0.17681103705E+02  0.66072187039E+02 -0.80459795626E+02  0.16363659139E+03  0.12500000000E+03 0.  0.
</event>
<event>
 5    0  0.5572507E-005  0.3220580E+03  0.7546771E-02  0.1074706E+00
         21   -1    0    0  502  501  0.00000000000E+00  0.00000000000E+00  0.90588718813E+02  0.90588718813E+02  0.00000000000E+00 0.  1.
         21   -1    0    0  501  502 -0.00000000000E+00 -0.00000000000E+00 -0.11449699407E+04  0.11449699407E+04  0.00000000000E+00 0.  1.
         25    1    1    2    0    0  0.64383719018E+02 -0.73148687930E+02 -0.26549388359E+03  0.30920542693E+03  0.12500000000E+03 0.  0.
         25    1    1    2    0    0  0.80758519124E+02 -0.13486914575E+03 -0.28714940296E+03  0.35041604488E+03  0.12500000000E+03 0.  0.
         25    1    1    2    0    0 -0.14514223814E+03  0.20801783368E+03 -0.50173793532E+03  0.57593718769E+03  0.12500000000E+03 0.  0.
</event>
<event>
 5    0  0.5572507E-005  0.3575030E+03  0.7546771E-02  0.1059577E+00
         21   -1    0    0  502  501  0.00000000000E+00  0.00000000000E+00  0.16563434548E+04  0.16563434548E+04  0.00000000000E+00 0.  1.
         21   -1    0    0  501  502 -0.00000000000E+00 -0.00000000000E+00 -0.77162990632E+02  0.77162990632E+02  0.00000000000E+00 0.  1.
         25    1    1    2    0    0 -0.63607220145E+02  0.75334579739E+02  0.10527498446E+04  0.10647198752E+04  0.12500000000E+03 0.  0.
         25    1    1    2    0    0 -0.65115707589E+02  0.89665872623E+00  0.42756971696E+03  0.45020186831E+03  0.12500000000E+03 0.  0.
         25    1    1    2    0    0  0.12872292773E+03 -0.76231238466E+02  0.98860902600E+02  0.21858470190E+03  0.12500000000E+03 0.  0.
</event>
<event>
 5    0  0.5572507E-005  0.3788129E+03  0.7546771E-02  0.1051373E+00
         21   -1    0    0  502  501  0.00000000000E+00  0.00000000000E+00  0.13938070497E+04  0.13938070497E+04  0.00000000000E+00 0.  1.
         21   -1    0    0  501  502 -0.00000000000E+00 -0.00000000000E+00 -0.10295488243E+03  0.10295488243E+03  0.00000000000E+00 0.  1.
         25    1    1    2    0    0 -0.15307441209E+03  0.20567194140E+03  0.31188841020E+03  0.42264891285E+03  0.12500000000E+03 0.  0.
         25    1    1    2    0    0  0.77838957544E+01 -0.20317394826E+03  0.41845959455E+03  0.48174025631E+03  0.12500000000E+03 0.  0.
         25    1    1    2    0    0  0.14529051634E+03 -0.24979931326E+01  0.56050416248E+03  0.59237276293E+03  0.12500000000E+03 0.  0.
</event>
<event>
 5    0  0.5572507E-005  0.5603187E+03  0.7546771E-02  0.9991334E-01
         21   -1    0    0  502  501  0.00000000000E+00  0.00000000000E+00  0.38942282597E+03  0.38942282597E+03  0.00000000000E+00 0.  1.
         21   -1    0    0  501  502 -0.00000000000E+00 -0.00000000000E+00 -0.80621116149E+03  0.80621116149E+03  0.00000000000E+00 0. -1.
         25    1    1    2    0    0  0.42702420065E+02  0.12834044239E+03 -0.58600334043E+03  0.61426352718E+03  0.12500000000E+03 0.  0.
         25    1    1    2    0    0 -0.24644974509E+03 -0.10138299839E+03  0.17177822656E+03  0.34080602744E+03  0.12500000000E+03 0.  0.
         25    1    1    2    0    0  0.20374732503E+03 -0.26957443997E+02 -0.25632216530E+01  0.24056443284E+03  0.12500000000E+03 0.  0.
</event>
<event>
 5    0  0.5572507E-005  0.4525857E+03  0.7546771E-02  0.1026954E+00
         21   -1    0    0  502  501  0.00000000000E+00  0.00000000000E+00  0.28974497575E+03  0.28974497575E+03  0.00000000000E+00 0. -1.
         21   -1    0    0  501  502 -0.00000000000E+00 -0.00000000000E+00 -0.70694517355E+03  0.70694517355E+03  0.00000000000E+00 0. -1.
         25    1    1    2    0    0 -0.17046245401E+03  0.24175997298E+03 -0.30562655346E+03  0.44332597819E+03  0.12500000000E+03 0.  0.
         25    1    1    2    0    0  0.23353684625E+03 -0.14912236674E+03  0.63785365630E+02  0.31059702460E+03  0.12500000000E+03 0.  0.
         25    1    1    2    0    0 -0.63074392248E+02 -0.92637606239E+02 -0.17535900997E+03  0.24276714651E+03  0.12500000000E+03 0.  0.
</event>
<event>
 5    0  0.5572507E-005  0.2933492E+03  0.7546771E-02  0.1088613E+00
         21   -1    0    0  502  501  0.00000000000E+00  0.00000000000E+00  0.19547948925E+03  0.19547948925E+03  0.00000000000E+00 0. -1.
         21   -1    0    0  501  502 -0.00000000000E+00 -0.00000000000E+00 -0.44021881004E+03  0.44021881004E+03  0.00000000000E+00 0. -1.
         25    1    1    2    0    0 -0.13702260488E+03 -0.69344316664E+02 -0.24184292196E+02  0.19948360456E+03  0.12500000000E+03 0.  0.
         25    1    1    2    0    0  0.12306527053E+03  0.11327569664E+03 -0.41272278471E+02  0.21284934867E+03  0.12500000000E+03 0.  0.
         25    1    1    2    0    0  0.13957334345E+02 -0.43931379975E+02 -0.17928275012E+03  0.22336534605E+03  0.12500000000E+03 0.  0.
</event>
<event>
 5    0  0.5572507E-005  0.5009152E+03  0.7546771E-02  0.1013540E+00
         21   -1    0    0  502  501  0.00000000000E+00  0.00000000000E+00  0.10371802508E+04  0.10371802508E+04  0.00000000000E+00 0.  1.
         21   -1    0    0  501  502 -0.00000000000E+00 -0.00000000000E+00 -0.24192137707E+03  0.24192137707E+03  0.00000000000E+00 0.  1.
         25    1    1    2    0    0 -0.10191105883E+03 -0.37388223905E+02  0.60159190074E+02  0.17614730015E+03  0.12500000000E+03 0.  0.
         25    1    1    2    0    0  0.15281735926E+03 -0.31425692070E+03  0.13594641032E+03  0.39524294299E+03  0.12500000000E+03 0.  0.
         25    1    1    2    0    0 -0.50906300436E+02  0.35164514461E+03  0.59915327335E+03  0.70771138476E+03  0.12500000000E+03 0.  0.
</event>
<event>
 5    0  0.5572507E-005  0.2693927E+03  0.7546771E-02  0.1101628E+00
         21   -1    0    0  502  501  0.00000000000E+00  0.00000000000E+00  0.42992259009E+02  0.42992259009E+02  0.00000000000E+00 0. -1.
         21   -1    0    0  501  502 -0.00000000000E+00 -0.00000000000E+00 -0.16880344192E+04  0.16880344192E+04  0.00000000000E+00 0. -1.
         25    1    1    2    0    0  0.44861363236E+02 -0.78432488821E+02 -0.46314922234E+03  0.48815612192E+03  0.12500000000E+03 0.  0.
         25    1    1    2    0    0 -0.83201506338E+02  0.66351468556E+02 -0.10259898231E+04  0.10390404829E+04  0.12500000000E+03 0.  0.
         25    1    1    2    0    0  0.38340143102E+02  0.12081020265E+02 -0.15590311478E+03  0.20383007340E+03  0.12500000000E+03 0.  0.
</event>
<event>
 5    0  0.5572507E-005  0.2849746E+03  0.7546771E-02  0.1093003E+00
         21   -1    0    0  502  501  0.00000000000E+00  0.00000000000E+00  0.23901017560E+03  0.23901017560E+03  0.00000000000E+00 0. -1.
         21   -1    0    0  501  502 -0.00000000000E+00 -0.00000000000E+00 -0.33977845909E+03  0.33977845909E+03  0.00000000000E+00 0. -1.
         25    1    1    2    0    0 -0.12821403104E+03  0.12147119818E+03  0.12164329953E+02  0.21671885167E+03  0.12500000000E+03 0.  0.
         25    1    1    2    0    0  0.11019306462E+03 -0.10735595729E+03 -0.12511758933E+03  0.23440824264E+03  0.12500000000E+03 0.  0.
         25    1    1    2    0    0  0.18020966419E+02 -0.14115240889E+02  0.12184975884E+02  0.12766154038E+03  0.12500000000E+03 0.  0.
</event>
<event>
 5    0  0.7498783E-005  0.2919341E+03  0.7546771E-02  0.1089344E+00
         21   -1    0    0  502  501  0.00000000000E+00  0.00000000000E+00  0.27468134545E+03  0.27468134545E+03  0.00000000000E+00 0.  1.
         21   -1    0    0  501  502 -0.00000000000E+00 -0.00000000000E+00 -0.31027044335E+03  0.31027044335E+03  0.00000000000E+00 0.  1.
         25    1    1    2    0    0 -0.12763340317E+03  0.15870229571E+03 -0.54712187082E+02  0.24514307594E+03  0.12500000000E+03 0.  0.
         25    1    1    2    0    0  0.25950927091E+02 -0.10630533698E+03 -0.15554841946E+02  0.16685690994E+03  0.12500000000E+03 0.  0.
         25    1    1    2    0    0  0.10168247608E+03 -0.52396958725E+02  0.34677931122E+02  0.17295180292E+03  0.12500000000E+03 0.  0.
</event>
<event>
 5    0  0.5572507E-005  0.4029977E+03  0.7546771E-02  0.1042747E+00
         21   -1    0    0  502  501  0.00000000000E+00  0.00000000000E+00  0.10699739366E+03  0.10699739366E+03  0.00000000000E+00 0.  1.
         21   -1    0    0  501  502 -0.00000000000E+00 -0.00000000000E+00 -0.15178606541E+04  0.15178606541E+04  0.00000000000E+00 0.  1.
         25    1    1    2    0    0 -0.16426606239E+03 -0.50697578593E+02 -0.43175165122E+03  0.48123598376E+03  0.12500000000E+03 0.  0.
         25    1    1    2    0    0 -0.93804082608E+02  0.60240255586E+02 -0.77151349190E+03  0.78948474494E+03  0.12500000000E+03 0.  0.
         25    1    1    2    0    0  0.25807014500E+03 -0.95426769934E+01 -0.20759811728E+03  0.35413731902E+03  0.12500000000E+03 0.  0.
</event>
<event>
 5    0  0.5572507E-005  0.3223594E+03  0.7546771E-02  0.1074569E+00
         21   -1    0    0  502  501  0.00000000000E+00  0.00000000000E+00  0.11074230968E+04  0.11074230968E+04  0.00000000000E+00 0. -1.
         21   -1    0    0  501  502 -0.00000000000E+00 -0.00000000000E+00 -0.93835470090E+02  0.93835470090E+02  0.00000000000E+00 0. -1.
         25    1    1    2    0    0 -0.60617043267E+02 -0.11619525706E+03  0.60566159058E+03  0.63216036415E+03  0.12500000000E+03 0.  0.
         25    1    1    2    0    0  0.81331886784E+02  0.17561242543E+03  0.14781848781E+03  0.27373327366E+03  0.12500000000E+03 0.  0.
         25    1    1    2    0    0 -0.20714843516E+02 -0.59417168364E+02  0.26010754836E+03  0.29536492911E+03  0.12500000000E+03 0.  0.
</event>
<event>
 5    0  0.5572507E-005  0.3429601E+03  0.7546771E-02  0.1065542E+00
         21   -1    0    0  502  501  0.00000000000E+00  0.00000000000E+00  0.77070215797E+03  0.77070215797E+03  0.00000000000E+00 0.  1.
         21   -1    0    0  501  502 -0.00000000000E+00 -0.00000000000E+00 -0.15261619581E+03  0.15261619581E+03  0.00000000000E+00 0.  1.
         25    1    1    2    0    0 -0.73933653708E+02  0.19101387739E+02  0.67866361626E+02  0.16143695737E+03  0.12500000000E+03 0.  0.
         25    1    1    2    0    0 -0.39452861959E+02 -0.20279370085E+03  0.40973605585E+03  0.47559483690E+03  0.12500000000E+03 0.  0.
         25    1    1    2    0    0  0.11338651567E+03  0.18369231311E+03  0.14048354469E+03  0.28628655952E+03  0.12500000000E+03 0.  0.
</event>
<event>
 5    0  0.5572507E-005  0.3675047E+03  0.7546771E-02  0.1055651E+00
         21   -1    0    0  502  501  0.00000000000E+00  0.00000000000E+00  0.78049803995E+02  0.78049803995E+02  0.00000000000E+00 0. -1.
         21   -1    0    0  501  502 -0.00000000000E+00 -0.00000000000E+00 -0.17304297502E+04  0.17304297502E+04  0.00000000000E+00 0. -1.
         25    1    1    2    0    0 -0.55855949829E+02  0.15839838678E+03 -0.30368462379E+03  0.36886215148E+03  0.12500000000E+03 0.  0.
         25    1    1    2    0    0 -0.13295879731E+03 -0.34953116527E+02 -0.25253721007E+03  0.31352799653E+03  0.12500000000E+03 0.  0.
         25    1    1    2    0    0  0.18881474714E+03 -0.12344527025E+03 -0.10961581124E+04  0.11260894062E+04  0.12500000000E+03 0.  0.
</event>
<event>
 5    0  0.6124608E-005  0.3297432E+03  0.7546771E-02  0.1071251E+00
         21   -1    0    0  502  501  0.00000000000E+00  0.00000000000E+00  0.37276761343E+03  0.37276761343E+03  0.00000000000E+00 0.  1.
         21   -1    0    0  501  502 -0.00000000000E+00 -0.00000000000E+00 -0.29168464928E+03  0.29168464928E+03  0.00000000000E+00 0.  1.
         25    1    1    2    0    0 -0.14014345298E+03  0.12638672773E+03 -0.43387395518E+02  0.23048049473E+03  0.12500000000E+03 0.  0.
         25    1    1    2    0    0  0.97685776004E+02 -0.53250690247E+02  0.20361697968E+03  0.26355838302E+03  0.12500000000E+03 0.  0.
         25    1    1    2    0    0  0.42457676976E+02 -0.73136037486E+02 -0.79146620013E+02  0.17041338496E+03  0.12500000000E+03 0.  0.
</event>
<event>
 5    0  0.5572507E-005  0.2380085E+03  0.7546771E-02  0.1121127E+00
         21   -1    0    0  502  501  0.00000000000E+00  0.00000000000E+00  0.38214408354E+03  0.38214408354E+03  0.00000000000E+00 0.  1.
         21   -1    0    0  501  502 -0.00000000000E+00 -0.00000000000E+00 -0.14823745657E+03  0.14823745657E+03  0.00000000000E+00 0.  1.
         25    1    1    2    0    0  0.90164682824E+01 -0.88047824721E+02  0.19943998818E+03  0.25146575319E+03  0.12500000000E+03 0.  0.
         25    1    1    2    0    0 -0.16676170610E+02  0.70239315602E+02 -0.10343168213E+02  0.14471916684E+03  0.12500000000E+03 0.  0.
         25    1    1    2    0    0  0.76597023279E+01  0.17808509119E+02  0.44809806996E+02  0.13419662008E+03  0.12500000000E+03 0.  0.
</event>
<event>
 5    0  0.5572507E-005  0.3958987E+03  0.7546771E-02  0.1045209E+00
         21   -1    0    0  502  501  0.00000000000E+00  0.00000000000E+00  0.32996218083E+03  0.32996218083E+03  0.00000000000E+00 0. -1.
         21   -1    0    0  501  502 -0.00000000000E+00 -0.00000000000E+00 -0.47501146835E+03  0.47501146835E+03  0.00000000000E+00 0. -1.
         25    1    1    2    0    0 -0.25990330546E+02  0.26010770090E+03  0.93985312559E+02  0.30461410395E+03  0.12500000000E+03 0.  0.
         25    1    1    2    0    0  0.13375414008E+03 -0.15874950619E+03 -0.16428695755E+03  0.29275720337E+03  0.12500000000E+03 0.  0.
         25    1    1    2    0    0 -0.10776380954E+03 -0.10135819471E+03 -0.74747642534E+02  0.20760234186E+03  0.12500000000E+03 0.  0.
</event>
<event>
 5    0  0.5572507E-005  0.2587639E+03  0.7546771E-02  0.1107888E+00
         21   -1    0    0  502  501  0.00000000000E+00  0.00000000000E+00  0.35279439396E+02  0.35279439396E+02  0.00000000000E+00 0. -1.
         21   -1    0    0  501  502 -0.00000000000E+00 -0.00000000000E+00 -0.18979547308E+04  0.18979547308E+04  0.00000000000E+00 0. -1.
         25    1    1    2    0    0  0.92987631604E+01  0.84835898707E+02 -0.60786155503E+03  0.62642179623E+03  0.12500000000E+03 0.  0.
         25    1    1    2    0    0  0.11264035947E+03  0.43122858666E+01 -0.54298882362E+03  0.56847894330E+03  0.12500000000E+03 0.  0.
         25    1    1    2    0    0 -0.12193912263E+03 -0.89148184574E+02 -0.71182491279E+03  0.73833343071E+03  0.12500000000E+03 0.  0.
</event>
<event>
 5    0  0.5572507E-005  0.2133846E+03  0.7546771E-02  0.1138913E+00
         21   -1    0    0  502  501  0.00000000000E+00  0.00000000000E+00  0.17238623874E+03  0.17238623874E+03  0.00000000000E+00 0. -1.
         21   -1    0    0  501  502 -0.00000000000E+00 -0.00000000000E+00 -0.26413365938E+03  0.26413365938E+03  0.00000000000E+00 0. -1.
         25    1    1    2    0    0 -0.42114248135E+02  0.27886324685E+02 -0.69648805756E+02  0.15174720144E+03  0.12500000000E+03 0.  0.
         25    1    1    2    0    0 -0.26850494960E+02 -0.17153572276E+02  0.29970201842E+02  0.13243265126E+03  0.12500000000E+03 0.  0.
         25    1    1    2    0    0  0.68964743095E+02 -0.10732752408E+02 -0.52068816722E+02  0.15234004542E+03  0.12500000000E+03 0.  0.
</event>
<event>
 5    0  0.5572507E-005  0.3372786E+03  0.7546771E-02  0.1067961E+00
         21   -1    0    0  502  501  0.00000000000E+00  0.00000000000E+00  0.16784384966E+03  0.16784384966E+03  0.00000000000E+00 0. -1.
         21   -1    0    0  501  502 -0.00000000000E+00 -0.00000000000E+00 -0.67775409569E+03  0.67775409569E+03  0.00000000000E+00 0. -1.
         25    1    1    2    0    0  0.38447746123E+02 -0.16185148269E+03 -0.16443504705E+03  0.26521315263E+03  0.12500000000E+03 0.  0.
         25    1    1    2    0    0  0.15286537886E+03  0.12508787278E+03 -0.15328023107E+03  0.27952572190E+03  0.12500000000E+03 0.  0.
         25    1    1    2    0    0 -0.19131312498E+03  0.36763609915E+02 -0.19219496791E+03  0.30085907082E+03  0.12500000000E+03 0.  0.
</event>
<event>
 5    0  0.5572507E-005  0.3221254E+03  0.7546771E-02  0.1074675E+00
         21   -1    0    0  502  501  0.00000000000E+00  0.00000000000E+00  0.23478988811E+04  0.23478988811E+04  0.00000000000E+00 0. -1.
         21   -1    0    0  501  502 -0.00000000000E+00 -0.00000000000E+00 -0.44194741911E+02  0.44194741911E+02  0.00000000000E+00 0. -1.
         25    1    1    2    0    0 -0.80951817719E+01 -0.43566914468E+02  0.20521917827E+03  0.24434303578E+03  0.12500000000E+03 0.  0.
         25    1    1    2    0    0  0.17652946350E+03 -0.18592844979E+02  0.72017189022E+03  0.75218408441E+03  0.12500000000E+03 0.  0.
         25    1    1    2    0    0 -0.16843428173E+03  0.62159759447E+02  0.13783130707E+04  0.13955665029E+04  0.12500000000E+03 0.  0.
</event>
<event>
 5    0  0.5572507E-005  0.2283352E+03  0.7546771E-02  0.1127817E+00
         21   -1    0    0  502  501  0.00000000000E+00  0.00000000000E+00  0.68865677121E+03  0.68865677121E+03  0.00000000000E+00 0. -1.
         21   -1    0    0  501  502 -0.00000000000E+00 -0.00000000000E+00 -0.75708175837E+02  0.75708175837E+02  0.00000000000E+00 0. -1.
         25    1    1    2    0    0  0.15876581084E+02 -0.72862635907E+02  0.13336820744E+03  0.19741607912E+03  0.12500000000E+03 0.  0.
         25    1    1    2    0    0  0.51047500594E+02 -0.14562792806E+02  0.21471462826E+03  0.25405765850E+03  0.12500000000E+03 0.  0.
         25    1    1    2    0    0 -0.66924081678E+02  0.87425428713E+02  0.26486575967E+03  0.31289120943E+03  0.12500000000E+03 0.  0.
</event>
