<event>
 5    0  0.5728184E-005  0.4293608E+03  0.7546771E-02  0.1034062E+00
         21   -1    0    0  502  501  0.00000000000E+00  0.00000000000E+00  0.30885380516E+03  0.30885380516E+03  0.00000000000E+00 0. -1.
         21   -1    0    0  501  502 -0.00000000000E+00 -0.00000000000E+00 -0.59688661156E+03  0.59688661156E+03  0.00000000000E+00 0. -1.
         25    1    1    2    0    0 -0.10984552172E+03  0.19592694361E+03 -0.24297696884E+03  0.35371770279E+03  0.12500000000E+03 0.  0.
         25    1    1    2    0    0  0.17742373919E+03 -0.18640114785E+02  0.14003993635E+03  0.25896490279E+03  0.12500000000E+03 0.  0.
         25    1    1    2    0    0 -0.67578217466E+02 -0.17728682883E+03 -0.18509577391E+03  0.29305781114E+03  0.12500000000E+03 0.  0.
</event>
<event>
 5    0  0.5728184E-005  0.2536135E+03  0.7546771E-02  0.1111042E+00
         21   -1    0    0  502  501  0.00000000000E+00  0.00000000000E+00  0.75737964063E+03  0.75737964063E+03  0.00000000000E+00 0.  1.
         21   -1    0    0  501  502 -0.00000000000E+00 -0.00000000000E+00 -0.84924144752E+02  0.84924144752E+02  0.00000000000E+00 0.  1.
         25    1    1    2    0    0 -0.22361247394E+02  0.29980460379E+02  0.11614323922E+03  0.17468000860E+03  0.12500000000E+03 0.  0.
         25    1    1    2    0    0  0.59192524548E+02  0.98438027989E+02  0.36695283814E+03  0.40431817389E+03  0.12500000000E+03 0.  0.
         25    1    1    2    0    0 -0.36831277155E+02 -0.12841848837E+03  0.18935941851E+03  0.26330560289E+03  0.12500000000E+03 0.  0.
</event>
<event>
 5    0  0.6483364E-005  0.7062957E+03  0.7546771E-02  0.9706526E-01
         21   -1    0    0  502  501  0.00000000000E+00  0.00000000000E+00  0.79015796416E+03  0.79015796416E+03  0.00000000000E+00 0. -1.
         21   -1    0    0  501  502 -0.00000000000E+00 -0.00000000000E+00 -0.63133404704E+03  0.63133404704E+03  0.00000000000E+00 0. -1.
         25    1    1    2    0    0 -0.42898756907E+02 -0.28278193106E+03 -0.14196029402E+03  0.34290472285E+03  0.12500000000E+03 0.  0.
         25    1    1    2    0    0 -0.34040049818E+03 -0.14972776780E+03  0.28885747914E+03  0.48719046262E+03  0.12500000000E+03 0.  0.
         25    1    1    2    0    0  0.38329925508E+03  0.43250969885E+03  0.11926731993E+02  0.59139682573E+03  0.12500000000E+03 0.  0.
</event>
<event>
 5    0  0.5728184E-005  0.2619544E+03  0.7546771E-02  0.1105975E+00
         21   -1    0    0  502  501  0.00000000000E+00  0.00000000000E+00  0.56381324775E+02  0.56381324775E+02  0.00000000000E+00 0. -1.
         21   -1    0    0  501  502 -0.00000000000E+00 -0.00000000000E+00 -0.12170715927E+04  0.12170715927E+04  0.00000000000E+00 0. -1.
         25    1    1    2    0    0  0.88000235425E+02  0.75801228097E+02 -0.41620257646E+03  0.44982157826E+03  0.12500000000E+03 0.  0.
         25    1    1    2    0    0  0.37860965873E+02  0.39216174120E+02 -0.35812130175E+03  0.38320650805E+03  0.12500000000E+03 0.  0.
         25    1    1    2    0    0 -0.12586120130E+03 -0.11501740222E+03 -0.38636638976E+03  0.44042483121E+03  0.12500000000E+03 0.  0.
</event>
<event>
 5    0  0.5728184E-005  0.2508820E+03  0.7546771E-02  0.1112749E+00
         21   -1    0    0  502  501  0.00000000000E+00  0.00000000000E+00  0.14927861398E+03  0.14927861398E+03  0.00000000000E+00 0.  1.
         21   -1    0    0  501  502 -0.00000000000E+00 -0.00000000000E+00 -0.42163959257E+03  0.42163959257E+03  0.00000000000E+00 0.  1.
         25    1    1    2    0    0 -0.19664790259E+02  0.45967148471E+02  0.29675073540E+02  0.13785968484E+03  0.12500000000E+03 0.  0.
         25    1    1    2    0    0 -0.45079098547E+02 -0.38710184722E+02 -0.55594580854E+02  0.14915214027E+03  0.12500000000E+03 0.  0.
         25    1    1    2    0    0  0.64743888806E+02 -0.72569637498E+01 -0.24644147127E+03  0.28390638144E+03  0.12500000000E+03 0.  0.
</event>
<event>
 5    0  0.5728184E-005  0.3069048E+03  0.7546771E-02  0.1081839E+00
         21   -1    0    0  502  501  0.00000000000E+00  0.00000000000E+00  0.48953615751E+02  0.48953615751E+02  0.00000000000E+00 0. -1.
         21   -1    0    0  501  502 -0.00000000000E+00 -0.00000000000E+00 -0.19240778042E+04  0.19240778042E+04  0.00000000000E+00 0. -1.
         25    1    1    2    0    0  0.44650616627E+02  0.86285893264E+02 -0.75586070031E+03  0.77226247560E+03  0.12500000000E+03 0.  0.
         25    1    1    2    0    0 -0.48613218889E+02 -0.33706742614E+02 -0.10280061340E+04  0.10372661187E+04  0.12500000000E+03 0.  0.
         25    1    1    2    0    0  0.39626022613E+01 -0.52579150650E+02 -0.91257354147E+02  0.16350282562E+03  0.12500000000E+03 0.  0.
</event>
<event>
 5    0  0.6117797E-005  0.2964008E+03  0.7546771E-02  0.1087054E+00
         21   -1    0    0  502  501  0.00000000000E+00  0.00000000000E+00  0.14079479660E+03  0.14079479660E+03  0.00000000000E+00 0. -1.
         21   -1    0    0  501  502 -0.00000000000E+00 -0.00000000000E+00 -0.62398212774E+03  0.62398212774E+03  0.00000000000E+00 0. -1.
         25    1    1    2    0    0 -0.13704051874E+03 -0.66192125385E+01 -0.21428398112E+03  0.28348993335E+03  0.12500000000E+03 0.  0.
         25    1    1    2    0    0  0.14093330727E+03 -0.10914254414E+03 -0.20573171151E+03  0.29954103085E+03  0.12500000000E+03 0.  0.
         25    1    1    2    0    0 -0.38927885318E+01  0.11576175668E+03 -0.63171638518E+02  0.18174596014E+03  0.12500000000E+03 0.  0.
</event>
<event>
 5    0  0.5728184E-005  0.3318120E+03  0.7546771E-02  0.1070338E+00
         21   -1    0    0  502  501  0.00000000000E+00  0.00000000000E+00  0.39552571293E+03  0.39552571293E+03  0.00000000000E+00 0. -1.
         21   -1    0    0  501  502 -0.00000000000E+00 -0.00000000000E+00 -0.27836167486E+03  0.27836167486E+03  0.00000000000E+00 0. -1.
         25    1    1    2    0    0  0.21139896382E+02 -0.48305625894E+02 -0.11144621524E+02  0.13612322102E+03  0.12500000000E+03 0.  0.
         25    1    1    2    0    0 -0.11157946806E+03  0.22826835020E+03  0.93352006086E+02  0.29815434667E+03  0.12500000000E+03 0.  0.
         25    1    1    2    0    0  0.90439571683E+02 -0.17996272431E+03  0.34956653504E+02  0.23960982010E+03  0.12500000000E+03 0.  0.
</event>
<event>
 5    0  0.5728184E-005  0.2812334E+03  0.7546771E-02  0.1095017E+00
         21   -1    0    0  502  501  0.00000000000E+00  0.00000000000E+00  0.27322317237E+03  0.27322317237E+03  0.00000000000E+00 0. -1.
         21   -1    0    0  501  502 -0.00000000000E+00 -0.00000000000E+00 -0.28947849629E+03  0.28947849629E+03  0.00000000000E+00 0. -1.
         25    1    1    2    0    0 -0.18863550120E+03 -0.93874522368E+01 -0.80817549402E+02  0.24047443287E+03  0.12500000000E+03 0.  0.
         25    1    1    2    0    0  0.74777470588E+02  0.23813833984E+01  0.41218865719E+02  0.15139793917E+03  0.12500000000E+03 0.  0.
         25    1    1    2    0    0  0.11385803061E+03  0.70060688384E+01  0.23343359764E+02  0.17082929661E+03  0.12500000000E+03 0.  0.
</event>
<event>
 5    0  0.5728184E-005  0.3076366E+03  0.7546771E-02  0.1081484E+00
         21   -1    0    0  502  501  0.00000000000E+00  0.00000000000E+00  0.43695922659E+02  0.43695922659E+02  0.00000000000E+00 0.  1.
         21   -1    0    0  501  502 -0.00000000000E+00 -0.00000000000E+00 -0.21658834396E+04  0.21658834396E+04  0.00000000000E+00 0.  1.
         25    1    1    2    0    0  0.52452038645E+02  0.55807526930E+01 -0.57574386024E+03  0.59151361249E+03  0.12500000000E+03 0.  0.
         25    1    1    2    0    0 -0.20390778853E+03 -0.96259541070E+02 -0.91339526765E+03  0.94908387429E+03  0.12500000000E+03 0.  0.
         25    1    1    2    0    0  0.15145574989E+03  0.90678788377E+02 -0.63304838904E+03  0.66898187546E+03  0.12500000000E+03 0.  0.
</event>
<event>
 5    0  0.5913078E-005  0.3535270E+03  0.7546771E-02  0.1061177E+00
         21   -1    0    0  502  501  0.00000000000E+00  0.00000000000E+00  0.21697543740E+03  0.21697543740E+03  0.00000000000E+00 0.  1.
         21   -1    0    0  501  502 -0.00000000000E+00 -0.00000000000E+00 -0.57601612775E+03  0.57601612775E+03  0.00000000000E+00 0.  1.
         25    1    1    2    0    0 -0.30296690460E+02 -0.67254764228E+02  0.21564929976E+02  0.14673492757E+03  0.12500000000E+03 0.  0.
         25    1    1    2    0    0  0.23563670872E+03  0.87824805999E+02 -0.21344147021E+03  0.35273235782E+03  0.12500000000E+03 0.  0.
         25    1    1    2    0    0 -0.20534001827E+03 -0.20570041771E+02 -0.16716415012E+03  0.29352427975E+03  0.12500000000E+03 0.  0.
</event>
<event>
 5    0  0.5728184E-005  0.3654590E+03  0.7546771E-02  0.1056443E+00
         21   -1    0    0  502  501  0.00000000000E+00  0.00000000000E+00  0.12717236047E+03  0.12717236047E+03  0.00000000000E+00 0. -1.
         21   -1    0    0  501  502 -0.00000000000E+00 -0.00000000000E+00 -0.10502301803E+04  0.10502301803E+04  0.00000000000E+00 0. -1.
         25    1    1    2    0    0 -0.15698978024E+03  0.27171697627E+02 -0.12771434095E+03  0.23941605029E+03  0.12500000000E+03 0.  0.
         25    1    1    2    0    0 -0.84700698232E+02 -0.82741322678E+02 -0.51647858763E+03  0.54442213974E+03  0.12500000000E+03 0.  0.
         25    1    1    2    0    0  0.24169047847E+03  0.55569625052E+02 -0.27886489126E+03  0.39356435076E+03  0.12500000000E+03 0.  0.
</event>
<event>
 5    0  0.5728184E-005  0.3138377E+03  0.7546771E-02  0.1078521E+00
         21   -1    0    0  502  501  0.00000000000E+00  0.00000000000E+00  0.36028087034E+03  0.36028087034E+03  0.00000000000E+00 0. -1.
         21   -1    0    0  501  502 -0.00000000000E+00 -0.00000000000E+00 -0.27338143951E+03  0.27338143951E+03  0.00000000000E+00 0.  1.
         25    1    1    2    0    0  0.23147108140E+02 -0.22322617070E+02  0.74925811948E+02  0.14924129839E+03  0.12500000000E+03 0.  0.
         25    1    1    2    0    0  0.28924941259E+02 -0.11706315810E+03 -0.15150182562E+03  0.23047394295E+03  0.12500000000E+03 0.  0.
         25    1    1    2    0    0 -0.52072049399E+02  0.13938577517E+03  0.16347544450E+03  0.25394706851E+03  0.12500000000E+03 0.  0.
</event>
<event>
 5    0  0.5728184E-005  0.2341244E+03  0.7546771E-02  0.1123770E+00
         21   -1    0    0  502  501  0.00000000000E+00  0.00000000000E+00  0.14185855494E+03  0.14185855494E+03  0.00000000000E+00 0.  1.
         21   -1    0    0  501  502 -0.00000000000E+00 -0.00000000000E+00 -0.38640073869E+03  0.38640073869E+03  0.00000000000E+00 0.  1.
         25    1    1    2    0    0 -0.49058133461E+02  0.40570055453E+02  0.63742127464E+01  0.14042172356E+03  0.12500000000E+03 0.  0.
         25    1    1    2    0    0  0.18837019583E+02 -0.74554202271E+01 -0.21623793708E+03  0.25058783297E+03  0.12500000000E+03 0.  0.
         25    1    1    2    0    0  0.30221113878E+02 -0.33114635226E+02 -0.34678459410E+02  0.13724973711E+03  0.12500000000E+03 0.  0.
</event>
<event>
 5    0  0.5728184E-005  0.5178481E+03  0.7546771E-02  0.1009223E+00
         21   -1    0    0  502  501  0.00000000000E+00  0.00000000000E+00  0.33627451764E+03  0.33627451764E+03  0.00000000000E+00 0. -1.
         21   -1    0    0  501  502 -0.00000000000E+00 -0.00000000000E+00 -0.79746350299E+03  0.79746350299E+03  0.00000000000E+00 0. -1.
         25    1    1    2    0    0  0.23178806417E+03 -0.11162598842E+03  0.21536850474E+03  0.35804281981E+03  0.12500000000E+03 0.  0.
         25    1    1    2    0    0 -0.71246343952E+02  0.92637606223E+02 -0.25325618195E+03  0.30564924556E+03  0.12500000000E+03 0.  0.
         25    1    1    2    0    0 -0.16054172022E+03  0.18988382193E+02 -0.42330130813E+03  0.47004595526E+03  0.12500000000E+03 0.  0.
</event>
<event>
 5    0  0.5728184E-005  0.3228311E+03  0.7546771E-02  0.1074354E+00
         21   -1    0    0  502  501  0.00000000000E+00  0.00000000000E+00  0.95733203649E+02  0.95733203649E+02  0.00000000000E+00 0. -1.
         21   -1    0    0  501  502 -0.00000000000E+00 -0.00000000000E+00 -0.10886496969E+04  0.10886496969E+04  0.00000000000E+00 0. -1.
         25    1    1    2    0    0  0.78604011824E+02 -0.41411513470E+02 -0.57970077682E+03  0.59964280598E+03  0.12500000000E+03 0.  0.
         25    1    1    2    0    0 -0.96818444839E+01 -0.38896059800E+02  0.92926498594E+01  0.13159785303E+03  0.12500000000E+03 0.  0.
         25    1    1    2    0    0 -0.68922167340E+02  0.80307573270E+02 -0.42250836625E+03  0.45314224150E+03  0.12500000000E+03 0.  0.
</event>
<event>
 5    0  0.5728184E-005  0.3128627E+03  0.7546771E-02  0.1078982E+00
         21   -1    0    0  502  501  0.00000000000E+00  0.00000000000E+00  0.67315767317E+03  0.67315767317E+03  0.00000000000E+00 0. -1.
         21   -1    0    0  501  502 -0.00000000000E+00 -0.00000000000E+00 -0.14540887224E+03  0.14540887224E+03  0.00000000000E+00 0. -1.
         25    1    1    2    0    0 -0.56829764315E+02 -0.25866819505E+02  0.11195708610E+03  0.17904776902E+03  0.12500000000E+03 0.  0.
         25    1    1    2    0    0 -0.47444854589E+02 -0.17919018724E+03  0.17687626567E+03  0.28507955168E+03  0.12500000000E+03 0.  0.
         25    1    1    2    0    0  0.10427461890E+03  0.20505700674E+03  0.23891544916E+03  0.35443922470E+03  0.12500000000E+03 0.  0.
</event>
<event>
 5    0  0.5728184E-005  0.3625680E+03  0.7546771E-02  0.1057572E+00
         21   -1    0    0  502  501  0.00000000000E+00  0.00000000000E+00  0.73303417697E+03  0.73303417697E+03  0.00000000000E+00 0.  1.
         21   -1    0    0  501  502 -0.00000000000E+00 -0.00000000000E+00 -0.17933068638E+03  0.17933068638E+03  0.00000000000E+00 0. -1.
         25    1    1    2    0    0  0.17786363341E+03 -0.65280439910E+02  0.53674992334E+02  0.23324453419E+03  0.12500000000E+03 0.  0.
         25    1    1    2    0    0 -0.25522785865E+03 -0.11385990587E+02  0.24750428607E+03  0.37703351606E+03  0.12500000000E+03 0.  0.
         25    1    1    2    0    0  0.77364225233E+02  0.76666430497E+02  0.25252421218E+03  0.30208681310E+03  0.12500000000E+03 0.  0.
</event>
<event>
 5    0  0.5728184E-005  0.2902966E+03  0.7546771E-02  0.1090194E+00
         21   -1    0    0  502  501  0.00000000000E+00  0.00000000000E+00  0.14225261656E+03  0.14225261656E+03  0.00000000000E+00 0.  1.
         21   -1    0    0  501  502 -0.00000000000E+00 -0.00000000000E+00 -0.59241165592E+03  0.59241165592E+03  0.00000000000E+00 0.  1.
         25    1    1    2    0    0 -0.47760889855E+02 -0.16986065173E+03 -0.30977186300E+03  0.37777950012E+03  0.12500000000E+03 0.  0.
         25    1    1    2    0    0  0.24056868838E+02  0.12560975753E+03 -0.13133155544E+03  0.22187726692E+03  0.12500000000E+03 0.  0.
         25    1    1    2    0    0  0.23704021017E+02  0.44250894208E+02 -0.90556209213E+01  0.13500750542E+03  0.12500000000E+03 0.  0.
</event>
<event>
 5    0  0.5728184E-005  0.4697892E+03  0.7546771E-02  0.1021980E+00
         21   -1    0    0  502  501  0.00000000000E+00  0.00000000000E+00  0.25359754812E+03  0.25359754812E+03  0.00000000000E+00 0. -1.
         21   -1    0    0  501  502 -0.00000000000E+00 -0.00000000000E+00 -0.87028419986E+03  0.87028419986E+03  0.00000000000E+00 0. -1.
         25    1    1    2    0    0 -0.19119387836E+03 -0.92777450278E+02 -0.63924533284E+03  0.68514403592E+03  0.12500000000E+03 0.  0.
         25    1    1    2    0    0  0.16631461784E+03 -0.56946654165E+02 -0.62391558174E+02  0.22454661000E+03  0.12500000000E+03 0.  0.
         25    1    1    2    0    0  0.24879260516E+02  0.14972410444E+03  0.84950239271E+02  0.21419110207E+03  0.12500000000E+03 0.  0.
</event>
<event>
 5    0  0.5728184E-005  0.2736621E+03  0.7546771E-02  0.1099202E+00
         21   -1    0    0  502  501  0.00000000000E+00  0.00000000000E+00  0.77504750275E+02  0.77504750275E+02  0.00000000000E+00 0.  1.
         21   -1    0    0  501  502 -0.00000000000E+00 -0.00000000000E+00 -0.96627532688E+03  0.96627532688E+03  0.00000000000E+00 0.  1.
         25    1    1    2    0    0  0.67555975115E+02 -0.43009552998E+02 -0.17077204337E+03  0.22627797555E+03  0.12500000000E+03 0.  0.
         25    1    1    2    0    0 -0.15155213959E+02 -0.90368202870E+02 -0.13939490894E+03  0.20845151292E+03  0.12500000000E+03 0.  0.
         25    1    1    2    0    0 -0.52400761157E+02  0.13337775587E+03 -0.57860362430E+03  0.60905058869E+03  0.12500000000E+03 0.  0.
</event>
<event>
 5    0  0.5728184E-005  0.3429494E+03  0.7546771E-02  0.1065547E+00
         21   -1    0    0  502  501  0.00000000000E+00  0.00000000000E+00  0.80190541630E+03  0.80190541630E+03  0.00000000000E+00 0.  1.
         21   -1    0    0  501  502 -0.00000000000E+00 -0.00000000000E+00 -0.14666855862E+03  0.14666855862E+03  0.00000000000E+00 0.  1.
         25    1    1    2    0    0  0.12537193233E+03 -0.93872132136E+01  0.62615307703E+02  0.18802105719E+03  0.12500000000E+03 0.  0.
         25    1    1    2    0    0 -0.40968332520E+02 -0.86638397199E+02  0.17738860151E+02  0.15850641406E+03  0.12500000000E+03 0.  0.
         25    1    1    2    0    0 -0.84403599812E+02  0.96025610412E+02  0.57488268983E+03  0.60204650367E+03  0.12500000000E+03 0.  0.
</event>
<event>
 5    0  0.5728184E-005  0.2230495E+03  0.7546771E-02  0.1131630E+00
         21   -1    0    0  502  501  0.00000000000E+00  0.00000000000E+00  0.23435626401E+02  0.23435626401E+02  0.00000000000E+00 0.  1.
         21   -1    0    0  501  502 -0.00000000000E+00 -0.00000000000E+00 -0.21228819897E+04  0.21228819897E+04  0.00000000000E+00 0.  1.
         25    1    1    2    0    0 -0.85496000477E+02 -0.70667347060E+01 -0.68910366358E+03  0.70558370446E+03  0.12500000000E+03 0.  0.
         25    1    1    2    0    0  0.17123839997E+02 -0.44958022646E+02 -0.48998505552E+03  0.50796142012E+03  0.12500000000E+03 0.  0.
         25    1    1    2    0    0  0.68372160480E+02  0.52024757352E+02 -0.92035764417E+03  0.93277249149E+03  0.12500000000E+03 0.  0.
</event>
<event>
 5    0  0.5728184E-005  0.2481555E+03  0.7546771E-02  0.1114476E+00
         21   -1    0    0  502  501  0.00000000000E+00  0.00000000000E+00  0.34841315941E+03  0.34841315941E+03  0.00000000000E+00 0. -1.
         21   -1    0    0  501  502 -0.00000000000E+00 -0.00000000000E+00 -0.17674745453E+03  0.17674745453E+03  0.00000000000E+00 0. -1.
         25    1    1    2    0    0  0.43845686875E+01  0.45666570404E+02 -0.56205214362E+02  0.14452918811E+03  0.12500000000E+03 0.  0.
         25    1    1    2    0    0 -0.27524563314E+02 -0.41654192904E+02  0.18793964321E+02  0.13590763947E+03  0.12500000000E+03 0.  0.
         25    1    1    2    0    0  0.23139994626E+02 -0.40123774994E+01  0.20907695492E+03  0.24472378635E+03  0.12500000000E+03 0.  0.
</event>
<event>
 5    0  0.5728184E-005  0.3633962E+03  0.7546771E-02  0.1057247E+00
         21   -1    0    0  502  501  0.00000000000E+00  0.00000000000E+00  0.17537014799E+03  0.17537014799E+03  0.00000000000E+00 0. -1.
         21   -1    0    0  501  502 -0.00000000000E+00 -0.00000000000E+00 -0.75301771279E+03  0.75301771279E+03  0.00000000000E+00 0. -1.
         25    1    1    2    0    0  0.87551961675E+02 -0.17701874510E+02  0.29188211468E+02  0.15638303630E+03  0.12500000000E+03 0.  0.
         25    1    1    2    0    0  0.63145103081E+02 -0.26918138489E+02 -0.54281356833E+03  0.56123387299E+03  0.12500000000E+03 0.  0.
         25    1    1    2    0    0 -0.15069706476E+03  0.44620013000E+02 -0.64022207935E+02  0.21077095150E+03  0.12500000000E+03 0.  0.
</event>
<event>
 5    0  0.5728184E-005  0.5154433E+03  0.7546771E-02  0.1009825E+00
         21   -1    0    0  502  501  0.00000000000E+00  0.00000000000E+00  0.92141006700E+03  0.92141006700E+03  0.00000000000E+00 0.  1.
         21   -1    0    0  501  502 -0.00000000000E+00 -0.00000000000E+00 -0.28834266979E+03  0.28834266979E+03  0.00000000000E+00 0.  1.
         25    1    1    2    0    0  0.11484389617E+03  0.31511759136E+03  0.28774794970E+02  0.35908384216E+03  0.12500000000E+03 0.  0.
         25    1    1    2    0    0  0.10654675880E+03  0.32153683846E+02  0.19132253154E+03  0.25419555911E+03  0.12500000000E+03 0.  0.
         25    1    1    2    0    0 -0.22139065497E+03 -0.34727127521E+03  0.41297007069E+03  0.59647333552E+03  0.12500000000E+03 0.  0.
</event>
<event>
 5    0  0.5728184E-005  0.3386310E+03  0.7546771E-02  0.1067381E+00
         21   -1    0    0  502  501  0.00000000000E+00  0.00000000000E+00  0.92298040557E+02  0.92298040557E+02  0.00000000000E+00 0. -1.
         21   -1    0    0  501  502 -0.00000000000E+00 -0.00000000000E+00 -0.12423982407E+04  0.12423982407E+04  0.00000000000E+00 0. -1.
         25    1    1    2    0    0  0.84638340670E+02  0.12122155414E+02 -0.30142663560E+02  0.15441559354E+03  0.12500000000E+03 0.  0.
         25    1    1    2    0    0 -0.91720123123E+02 -0.62964851967E+02 -0.94245068444E+03  0.95719143654E+03  0.12500000000E+03 0.  0.
         25    1    1    2    0    0  0.70817824534E+01  0.50842696553E+02 -0.17750685215E+03  0.22308925119E+03  0.12500000000E+03 0.  0.
</event>
<event>
 5    0  0.5728184E-005  0.3170253E+03  0.7546771E-02  0.1077027E+00
         21   -1    0    0  502  501  0.00000000000E+00  0.00000000000E+00  0.10658191639E+03  0.10658191639E+03  0.00000000000E+00 0. -1.
         21   -1    0    0  501  502 -0.00000000000E+00 -0.00000000000E+00 -0.94298376022E+03  0.94298376022E+03  0.00000000000E+00 0. -1.
         25    1    1    2    0    0  0.54366354191E+01  0.29884538754E+01  0.33771561962E+02  0.12963026753E+03  0.12500000000E+03 0.  0.
         25    1    1    2    0    0 -0.15693530770E+02 -0.81806084680E+02 -0.45118275827E+03  0.47553065491E+03  0.12500000000E+03 0.  0.
         25    1    1    2    0    0  0.10256895351E+02  0.78817630805E+02 -0.41899064751E+03  0.44440475417E+03  0.12500000000E+03 0.  0.
</event>
<event>
 5    0  0.5728184E-005  0.2743503E+03  0.7546771E-02  0.1098815E+00
         21   -1    0    0  502  501  0.00000000000E+00  0.00000000000E+00  0.26824008796E+04  0.26824008796E+04  0.00000000000E+00 0.  1.
         21   -1    0    0  501  502 -0.00000000000E+00 -0.00000000000E+00 -0.28059967450E+02  0.28059967450E+02  0.00000000000E+00 0.  1.
         25    1    1    2    0    0  0.95018082834E+02  0.58593281004E+02  0.16161451997E+04  0.16248113476E+04  0.12500000000E+03 0.  0.
         25    1    1    2    0    0 -0.12927029148E+03 -0.53555806259E+02  0.62919089161E+03  0.65657079643E+03  0.12500000000E+03 0.  0.
         25    1    1    2    0    0  0.34252208644E+02 -0.50374747449E+01  0.40900482086E+03  0.42907870307E+03  0.12500000000E+03 0.  0.
</event>
<event>
 5    0  0.5728184E-005  0.3925781E+03  0.7546771E-02  0.1046380E+00
         21   -1    0    0  502  501  0.00000000000E+00  0.00000000000E+00  0.13115768795E+04  0.13115768795E+04  0.00000000000E+00 0. -1.
         21   -1    0    0  501  502 -0.00000000000E+00 -0.00000000000E+00 -0.11750553473E+03  0.11750553473E+03  0.00000000000E+00 0. -1.
         25    1    1    2    0    0 -0.13998699717E+02  0.16228962708E+03  0.21212837091E+03  0.29522420700E+03  0.12500000000E+03 0.  0.
         25    1    1    2    0    0 -0.19194198518E+03 -0.22434152323E+02  0.70270283629E+03  0.73943308892E+03  0.12500000000E+03 0.  0.
         25    1    1    2    0    0  0.20594068489E+03 -0.13985547476E+03  0.27924013754E+03  0.39442511828E+03  0.12500000000E+03 0.  0.
</event>
<event>
 5    0  0.5728184E-005  0.2228010E+03  0.7546771E-02  0.1131812E+00
         21   -1    0    0  502  501  0.00000000000E+00  0.00000000000E+00  0.21051144470E+03  0.21051144470E+03  0.00000000000E+00 0. -1.
         21   -1    0    0  501  502 -0.00000000000E+00 -0.00000000000E+00 -0.23580795820E+03  0.23580795820E+03  0.00000000000E+00 0. -1.
         25    1    1    2    0    0 -0.18166394190E+02 -0.51450295792E+02 -0.26210949588E+02  0.13888543730E+03  0.12500000000E+03 0.  0.
         25    1    1    2    0    0 -0.40831065715E+02  0.45383040257E+02 -0.65736197592E+02  0.15386046908E+03  0.12500000000E+03 0.  0.
         25    1    1    2    0    0  0.58997459906E+02  0.60672555349E+01  0.66650633682E+02  0.15357349653E+03  0.12500000000E+03 0.  0.
</event>
<event>
 5    0  0.5728184E-005  0.3510046E+03  0.7546771E-02  0.1062203E+00
         21   -1    0    0  502  501  0.00000000000E+00  0.00000000000E+00  0.62664045607E+03  0.62664045607E+03  0.00000000000E+00 0. -1.
         21   -1    0    0  501  502 -0.00000000000E+00 -0.00000000000E+00 -0.19661068258E+03  0.19661068258E+03  0.00000000000E+00 0. -1.
         25    1    1    2    0    0 -0.11929546881E+03  0.11003621628E+02 -0.13553923224E+02  0.17366979416E+03  0.12500000000E+03 0.  0.
         25    1    1    2    0    0  0.84330174597E+02 -0.18420708715E+03  0.13815636878E+03  0.27523809972E+03  0.12500000000E+03 0.  0.
         25    1    1    2    0    0  0.34965294213E+02  0.17320346552E+03  0.30542732793E+03  0.37434324478E+03  0.12500000000E+03 0.  0.
</event>
<event>
 5    0  0.5728184E-005  0.3263062E+03  0.7546771E-02  0.1072783E+00
         21   -1    0    0  502  501  0.00000000000E+00  0.00000000000E+00  0.12795773514E+04  0.12795773514E+04  0.00000000000E+00 0.  1.
         21   -1    0    0  501  502 -0.00000000000E+00 -0.00000000000E+00 -0.83211665697E+02  0.83211665697E+02  0.00000000000E+00 0.  1.
         25    1    1    2    0    0 -0.14932811617E+03  0.95469714708E+02  0.47211252898E+03  0.51954652604E+03  0.12500000000E+03 0.  0.
         25    1    1    2    0    0  0.49827209338E+02  0.87775932687E+01  0.60140986080E+03  0.61634293830E+03  0.12500000000E+03 0.  0.
         25    1    1    2    0    0  0.99500906835E+02 -0.10424730798E+03  0.12284329592E+03  0.22689955274E+03  0.12500000000E+03 0.  0.
</event>
<event>
 5    0  0.5728184E-005  0.3186044E+03  0.7546771E-02  0.1076293E+00
         21   -1    0    0  502  501  0.00000000000E+00  0.00000000000E+00  0.10601590979E+04  0.10601590979E+04  0.00000000000E+00 0. -1.
         21   -1    0    0  501  502 -0.00000000000E+00 -0.00000000000E+00 -0.95748619205E+02  0.95748619205E+02  0.00000000000E+00 0. -1.
         25    1    1    2    0    0 -0.45957188510E+02  0.21995421119E+03  0.27526726355E+03  0.37668154265E+03  0.12500000000E+03 0.  0.
         25    1    1    2    0    0  0.31008391634E+02 -0.16119078419E+03  0.52555784671E+03  0.56460609233E+03  0.12500000000E+03 0.  0.
         25    1    1    2    0    0  0.14948796876E+02 -0.58763426995E+02  0.16358536842E+03  0.21462008210E+03  0.12500000000E+03 0.  0.
</event>
<event>
 5    0  0.5728184E-005  0.4039262E+03  0.7546771E-02  0.1042429E+00
         21   -1    0    0  502  501  0.00000000000E+00  0.00000000000E+00  0.19936223010E+04  0.19936223010E+04  0.00000000000E+00 0. -1.
         21   -1    0    0  501  502 -0.00000000000E+00 -0.00000000000E+00 -0.81839172360E+02  0.81839172360E+02  0.00000000000E+00 0. -1.
         25    1    1    2    0    0 -0.12859122959E+03 -0.88561689675E+02  0.10962508915E+04  0.11143472952E+04  0.12500000000E+03 0.  0.
         25    1    1    2    0    0  0.18477079119E+03  0.22146141279E+03  0.55935950985E+03  0.64163343421E+03  0.12500000000E+03 0.  0.
         25    1    1    2    0    0 -0.56179561605E+02 -0.13289972311E+03  0.25617272726E+03  0.31948074392E+03  0.12500000000E+03 0.  0.
</event>
<event>
 5    0  0.5728184E-005  0.3271877E+03  0.7546771E-02  0.1072388E+00
         21   -1    0    0  502  501  0.00000000000E+00  0.00000000000E+00  0.15044219589E+03  0.15044219589E+03  0.00000000000E+00 0. -1.
         21   -1    0    0  501  502 -0.00000000000E+00 -0.00000000000E+00 -0.71158101365E+03  0.71158101365E+03  0.00000000000E+00 0. -1.
         25    1    1    2    0    0 -0.14735986841E+03  0.32044581342E+01  0.29700780603E+02  0.19553090737E+03  0.12500000000E+03 0.  0.
         25    1    1    2    0    0  0.68872508328E+02  0.42136543609E+02 -0.35108867084E+03  0.38132291500E+03  0.12500000000E+03 0.  0.
         25    1    1    2    0    0  0.78487360079E+02 -0.45341001743E+02 -0.23975092752E+03  0.28516938717E+03  0.12500000000E+03 0.  0.
</event>
<event>
 5    0  0.5728184E-005  0.3259456E+03  0.7546771E-02  0.1072945E+00
         21   -1    0    0  502  501  0.00000000000E+00  0.00000000000E+00  0.78265274998E+03  0.78265274998E+03  0.00000000000E+00 0. -1.
         21   -1    0    0  501  502 -0.00000000000E+00 -0.00000000000E+00 -0.13574411628E+03  0.13574411628E+03  0.00000000000E+00 0. -1.
         25    1    1    2    0    0 -0.16029605065E+03 -0.63886665855E+02  0.44513277606E+03  0.49350229812E+03  0.12500000000E+03 0.  0.
         25    1    1    2    0    0  0.10465787348E+03  0.14215182369E+03  0.11741038608E+03  0.24611097136E+03  0.12500000000E+03 0.  0.
         25    1    1    2    0    0  0.55638177165E+02 -0.78265157838E+02  0.84365471551E+02  0.17878359679E+03  0.12500000000E+03 0.  0.
</event>
<event>
 5    0  0.5728184E-005  0.2583701E+03  0.7546771E-02  0.1108126E+00
         21   -1    0    0  502  501  0.00000000000E+00  0.00000000000E+00  0.22292426848E+03  0.22292426848E+03  0.00000000000E+00 0.  1.
         21   -1    0    0  501  502 -0.00000000000E+00 -0.00000000000E+00 -0.29945194421E+03  0.29945194421E+03  0.00000000000E+00 0.  1.
         25    1    1    2    0    0 -0.10471603924E+03 -0.73836633825E+02  0.19812816631E+01  0.17901458836E+03  0.12500000000E+03 0.  0.
         25    1    1    2    0    0  0.44733910691E+02  0.81429366738E+02  0.40011021086E+02  0.16080344008E+03  0.12500000000E+03 0.  0.
         25    1    1    2    0    0  0.59982128544E+02 -0.75927329133E+01 -0.11851997848E+03  0.18255818425E+03  0.12500000000E+03 0.  0.
</event>
<event>
 5    0  0.5728184E-005  0.5227955E+03  0.7546771E-02  0.1007994E+00
         21   -1    0    0  502  501  0.00000000000E+00  0.00000000000E+00  0.54853492433E+03  0.54853492433E+03  0.00000000000E+00 0.  1.
         21   -1    0    0  501  502 -0.00000000000E+00 -0.00000000000E+00 -0.49826389104E+03  0.49826389104E+03  0.00000000000E+00 0.  1.
         25    1    1    2    0    0 -0.76729640974E+02 -0.10817648029E+03  0.87107328241E+02  0.20199573096E+03  0.12500000000E+03 0.  0.
         25    1    1    2    0    0 -0.17588909046E+03 -0.28518887055E+03  0.16175005064E+02  0.35798923841E+03  0.12500000000E+03 0.  0.
         25    1    1    2    0    0  0.25261873144E+03  0.39336535084E+03 -0.53011300014E+02  0.48681384599E+03  0.12500000000E+03 0.  0.
</event>
<event>
 5    0  0.5728184E-005  0.3729953E+03  0.7546771E-02  0.1053554E+00
         21   -1    0    0  502  501  0.00000000000E+00  0.00000000000E+00  0.27300912764E+03  0.27300912764E+03  0.00000000000E+00 0.  1.
         21   -1    0    0  501  502 -0.00000000000E+00 -0.00000000000E+00 -0.50960009938E+03  0.50960009938E+03  0.00000000000E+00 0.  1.
         25    1    1    2    0    0  0.35677046813E+02 -0.10938412446E+03  0.11986207736E+03  0.20791742578E+03  0.12500000000E+03 0.  0.
         25    1    1    2    0    0  0.13177387669E+03  0.29317109630E+02 -0.41949999116E+02  0.18870254350E+03  0.12500000000E+03 0.  0.
         25    1    1    2    0    0 -0.16745092351E+03  0.80067014834E+02 -0.31450304999E+03  0.38598925775E+03  0.12500000000E+03 0.  0.
</event>
<event>
 5    0  0.5728184E-005  0.3264148E+03  0.7546771E-02  0.1072734E+00
         21   -1    0    0  502  501  0.00000000000E+00  0.00000000000E+00  0.11930110389E+03  0.11930110389E+03  0.00000000000E+00 0.  1.
         21   -1    0    0  501  502 -0.00000000000E+00 -0.00000000000E+00 -0.89308980016E+03  0.89308980016E+03  0.00000000000E+00 0.  1.
         25    1    1    2    0    0  0.73524058278E+02  0.14747625483E+03 -0.37970420324E+03  0.43238329621E+03  0.12500000000E+03 0.  0.
         25    1    1    2    0    0 -0.15125649474E+03  0.93721506700E+01 -0.11494262415E+03  0.22760310028E+03  0.12500000000E+03 0.  0.
         25    1    1    2    0    0  0.77732436461E+02 -0.15684840550E+03 -0.27914186888E+03  0.35240450756E+03  0.12500000000E+03 0.  0.
</event>
<event>
 5    0  0.5728184E-005  0.3071939E+03  0.7546771E-02  0.1081699E+00
         21   -1    0    0  502  501  0.00000000000E+00  0.00000000000E+00  0.93144707892E+03  0.93144707892E+03  0.00000000000E+00 0. -1.
         21   -1    0    0  501  502 -0.00000000000E+00 -0.00000000000E+00 -0.10131344238E+03  0.10131344238E+03  0.00000000000E+00 0. -1.
         25    1    1    2    0    0 -0.48372751342E+02 -0.21129691462E+02  0.14893864876E+03  0.20147979558E+03  0.12500000000E+03 0.  0.
         25    1    1    2    0    0 -0.15280611834E+01 -0.10143535869E+03  0.41584174791E+02  0.16626999295E+03  0.12500000000E+03 0.  0.
         25    1    1    2    0    0  0.49900812526E+02  0.12256505015E+03  0.63961081299E+03  0.66501073277E+03  0.12500000000E+03 0.  0.
</event>
<event>
 5    0  0.5728184E-005  0.3073536E+03  0.7546771E-02  0.1081621E+00
         21   -1    0    0  502  501  0.00000000000E+00  0.00000000000E+00  0.13366964032E+03  0.13366964032E+03  0.00000000000E+00 0. -1.
         21   -1    0    0  501  502 -0.00000000000E+00 -0.00000000000E+00 -0.70671409218E+03  0.70671409218E+03  0.00000000000E+00 0. -1.
         25    1    1    2    0    0 -0.13312376814E+03 -0.16968816037E+03 -0.22846189826E+03  0.33813584308E+03  0.12500000000E+03 0.  0.
         25    1    1    2    0    0  0.15236292252E+03  0.10239595325E+03 -0.21340361663E+03  0.30800242692E+03  0.12500000000E+03 0.  0.
         25    1    1    2    0    0 -0.19239154374E+02  0.67292207129E+02 -0.13117893696E+03  0.19424546251E+03  0.12500000000E+03 0.  0.
</event>
<event>
 5    0  0.5728184E-005  0.2409683E+03  0.7546771E-02  0.1119149E+00
         21   -1    0    0  502  501  0.00000000000E+00  0.00000000000E+00  0.25751767561E+03  0.25751767561E+03  0.00000000000E+00 0.  1.
         21   -1    0    0  501  502 -0.00000000000E+00 -0.00000000000E+00 -0.22548251155E+03  0.22548251155E+03  0.00000000000E+00 0.  1.
         25    1    1    2    0    0 -0.59021052853E+01  0.50784504717E+02 -0.69060367217E+02  0.15168465673E+03  0.12500000000E+03 0.  0.
         25    1    1    2    0    0  0.71513475879E+02  0.34508384347E+02  0.68604786417E+02  0.16320729929E+03  0.12500000000E+03 0.  0.
         25    1    1    2    0    0 -0.65611370594E+02 -0.85292889064E+02  0.32490744852E+02  0.16810823114E+03  0.12500000000E+03 0.  0.
</event>
<event>
 5    0  0.5728184E-005  0.4916334E+03  0.7546771E-02  0.1015986E+00
         21   -1    0    0  502  501  0.00000000000E+00  0.00000000000E+00  0.91641402931E+03  0.91641402931E+03  0.00000000000E+00 0. -1.
         21   -1    0    0  501  502 -0.00000000000E+00 -0.00000000000E+00 -0.26374913136E+03  0.26374913136E+03  0.00000000000E+00 0. -1.
         25    1    1    2    0    0 -0.28606786705E+03  0.11849445228E+03  0.50048068470E+02  0.33764710711E+03  0.12500000000E+03 0.  0.
         25    1    1    2    0    0  0.18022462548E+03  0.65994656892E+02  0.45918810532E+02  0.23360168563E+03  0.12500000000E+03 0.  0.
         25    1    1    2    0    0  0.10584324157E+03 -0.18448910917E+03  0.55669801894E+03  0.60891436794E+03  0.12500000000E+03 0.  0.
</event>
<event>
 5    0  0.5728184E-005  0.3229854E+03  0.7546771E-02  0.1074283E+00
         21   -1    0    0  502  501  0.00000000000E+00  0.00000000000E+00  0.24613085161E+03  0.24613085161E+03  0.00000000000E+00 0. -1.
         21   -1    0    0  501  502 -0.00000000000E+00 -0.00000000000E+00 -0.42383783363E+03  0.42383783363E+03  0.00000000000E+00 0. -1.
         25    1    1    2    0    0  0.16823135165E+03 -0.12970368460E+03 -0.17078920353E+03  0.29986461198E+03  0.12500000000E+03 0.  0.
         25    1    1    2    0    0 -0.10674673171E+02 -0.32244177771E+01  0.21609501210E+02  0.12734330002E+03  0.12500000000E+03 0.  0.
         25    1    1    2    0    0 -0.15755667848E+03  0.13292810238E+03 -0.28527279701E+02  0.24276077324E+03  0.12500000000E+03 0.  0.
</event>
<event>
 5    0  0.5728184E-005  0.2910822E+03  0.7546771E-02  0.1089785E+00
         21   -1    0    0  502  501  0.00000000000E+00  0.00000000000E+00  0.20018921240E+03  0.20018921240E+03  0.00000000000E+00 0. -1.
         21   -1    0    0  501  502 -0.00000000000E+00 -0.00000000000E+00 -0.42324395722E+03  0.42324395722E+03  0.00000000000E+00 0. -1.
         25    1    1    2    0    0 -0.15141830540E+02 -0.24278755745E+02 -0.14198139961E+02  0.12901674384E+03  0.12500000000E+03 0.  0.
         25    1    1    2    0    0  0.13112814176E+03 -0.47678715446E+02  0.32639712311E+02  0.19015309697E+03  0.12500000000E+03 0.  0.
         25    1    1    2    0    0 -0.11598631122E+03  0.71957471190E+02 -0.24149631717E+03  0.30426332881E+03  0.12500000000E+03 0.  0.
</event>
<event>
 5    0  0.5728184E-005  0.4604963E+03  0.7546771E-02  0.1024637E+00
         21   -1    0    0  502  501  0.00000000000E+00  0.00000000000E+00  0.36891176429E+03  0.36891176429E+03  0.00000000000E+00 0. -1.
         21   -1    0    0  501  502 -0.00000000000E+00 -0.00000000000E+00 -0.57481723218E+03  0.57481723218E+03  0.00000000000E+00 0. -1.
         25    1    1    2    0    0 -0.27292925733E+03 -0.13946831725E+03  0.13514757981E+03  0.35753553579E+03  0.12500000000E+03 0.  0.
         25    1    1    2    0    0  0.14521774887E+03  0.60963654749E+02 -0.33524350651E+03  0.39091939124E+03  0.12500000000E+03 0.  0.
         25    1    1    2    0    0  0.12771150846E+03  0.78504662497E+02 -0.58095411820E+01  0.19527406944E+03  0.12500000000E+03 0.  0.
</event>
<event>
 5    0  0.5728184E-005  0.5311673E+03  0.7546771E-02  0.1005949E+00
         21   -1    0    0  502  501  0.00000000000E+00  0.00000000000E+00  0.74163202756E+03  0.74163202756E+03  0.00000000000E+00 0. -1.
         21   -1    0    0  501  502 -0.00000000000E+00 -0.00000000000E+00 -0.38042951006E+03  0.38042951006E+03  0.00000000000E+00 0. -1.
         25    1    1    2    0    0 -0.72276546991E+02 -0.10542175064E+03  0.66164410745E+02  0.19063151366E+03  0.12500000000E+03 0.  0.
         25    1    1    2    0    0  0.39046171235E+03  0.96283207694E+02  0.39265600695E+03  0.57579036523E+03  0.12500000000E+03 0.  0.
         25    1    1    2    0    0 -0.31818516536E+03  0.91385429446E+01 -0.97617900192E+02  0.35563965873E+03  0.12500000000E+03 0.  0.
</event>
<event>
 5    0  0.5728184E-005  0.4165028E+03  0.7546771E-02  0.1038211E+00
         21   -1    0    0  502  501  0.00000000000E+00  0.00000000000E+00  0.60260926343E+02  0.60260926343E+02  0.00000000000E+00 0. -1.
         21   -1    0    0  501  502 -0.00000000000E+00 -0.00000000000E+00 -0.28787238366E+04  0.28787238366E+04  0.00000000000E+00 0. -1.
         25    1    1    2    0    0 -0.79945628344E+02  0.16171935488E+03 -0.49997899856E+03  0.54602971735E+03  0.12500000000E+03 0.  0.
         25    1    1    2    0    0  0.20639189268E+03  0.10696433897E+03 -0.87444077804E+03  0.91340607479E+03  0.12500000000E+03 0.  0.
         25    1    1    2    0    0 -0.12644626434E+03 -0.26868369385E+03 -0.14440431337E+04  0.14795489708E+04  0.12500000000E+03 0.  0.
</event>
<event>
 5    0  0.5728184E-005  0.3293549E+03  0.7546771E-02  0.1071423E+00
         21   -1    0    0  502  501  0.00000000000E+00  0.00000000000E+00  0.12445528295E+03  0.12445528295E+03  0.00000000000E+00 0. -1.
         21   -1    0    0  501  502 -0.00000000000E+00 -0.00000000000E+00 -0.87159527914E+03  0.87159527914E+03  0.00000000000E+00 0. -1.
         25    1    1    2    0    0 -0.12995101779E+03  0.16392249794E+03 -0.12418721339E+03  0.27350560565E+03  0.12500000000E+03 0.  0.
         25    1    1    2    0    0  0.14565966239E+03 -0.56444873785E+02 -0.35742845520E+03  0.40961306328E+03  0.12500000000E+03 0.  0.
         25    1    1    2    0    0 -0.15708644607E+02 -0.10747762416E+03 -0.26552432760E+03  0.31293189316E+03  0.12500000000E+03 0.  0.
</event>
<event>
 5    0  0.5728184E-005  0.6149740E+03  0.7546771E-02  0.9874818E-01
         21   -1    0    0  502  501  0.00000000000E+00  0.00000000000E+00  0.36280003285E+03  0.36280003285E+03  0.00000000000E+00 0. -1.
         21   -1    0    0  501  502 -0.00000000000E+00 -0.00000000000E+00 -0.10424282771E+04  0.10424282771E+04  0.00000000000E+00 0. -1.
         25    1    1    2    0    0 -0.21068550265E+03  0.73229902339E+02  0.29209484968E+02  0.25735033249E+03  0.12500000000E+03 0.  0.
         25    1    1    2    0    0  0.47814589885E+03 -0.23944531628E+03 -0.33464911385E+03  0.64309609661E+03  0.12500000000E+03 0.  0.
         25    1    1    2    0    0 -0.26746039620E+03  0.16621541394E+03 -0.37418861541E+03  0.50478188089E+03  0.12500000000E+03 0.  0.
</event>
<event>
 5    0  0.5728184E-005  0.3242054E+03  0.7546771E-02  0.1073730E+00
         21   -1    0    0  502  501  0.00000000000E+00  0.00000000000E+00  0.33521715906E+03  0.33521715906E+03  0.00000000000E+00 0. -1.
         21   -1    0    0  501  502 -0.00000000000E+00 -0.00000000000E+00 -0.31355538491E+03  0.31355538491E+03  0.00000000000E+00 0. -1.
         25    1    1    2    0    0  0.80991732616E+02 -0.78937057041E+02  0.21913760745E+03  0.27647244117E+03  0.12500000000E+03 0.  0.
         25    1    1    2    0    0 -0.73833548562E+02 -0.28174118324E+02 -0.68123142038E+02  0.16282179313E+03  0.12500000000E+03 0.  0.
         25    1    1    2    0    0 -0.71581840547E+01  0.10711117537E+03 -0.12935269127E+03  0.20947830968E+03  0.12500000000E+03 0.  0.
</event>
<event>
 5    0  0.5728184E-005  0.4841778E+03  0.7546771E-02  0.1017993E+00
         21   -1    0    0  502  501  0.00000000000E+00  0.00000000000E+00  0.29265293835E+03  0.29265293835E+03  0.00000000000E+00 0.  1.
         21   -1    0    0  501  502 -0.00000000000E+00 -0.00000000000E+00 -0.80104503955E+03  0.80104503955E+03  0.00000000000E+00 0.  1.
         25    1    1    2    0    0 -0.25995511882E+02 -0.32438113373E+03 -0.72634246755E+01  0.34867842476E+03  0.12500000000E+03 0.  0.
         25    1    1    2    0    0 -0.14266150353E+01  0.38302764076E+03 -0.31379569699E+03  0.51069065810E+03  0.12500000000E+03 0.  0.
         25    1    1    2    0    0  0.27422126918E+02 -0.58646507029E+02 -0.18733297952E+03  0.23432889504E+03  0.12500000000E+03 0.  0.
</event>
<event>
 5    0  0.5728184E-005  0.3050582E+03  0.7546771E-02  0.1082739E+00
         21   -1    0    0  502  501  0.00000000000E+00  0.00000000000E+00  0.74247505664E+02  0.74247505664E+02  0.00000000000E+00 0.  1.
         21   -1    0    0  501  502 -0.00000000000E+00 -0.00000000000E+00 -0.12533824552E+04  0.12533824552E+04  0.00000000000E+00 0.  1.
         25    1    1    2    0    0  0.65531546527E+02  0.36637113139E+02 -0.76938280434E+02  0.16486709995E+03  0.12500000000E+03 0.  0.
         25    1    1    2    0    0 -0.15644619183E+03  0.28604525661E+02 -0.57819596947E+03  0.61255955542E+03  0.12500000000E+03 0.  0.
         25    1    1    2    0    0  0.90914645306E+02 -0.65241638800E+02 -0.52400069968E+03  0.55020330554E+03  0.12500000000E+03 0.  0.
</event>
<event>
 5    0  0.6323319E-005  0.4068516E+03  0.7546771E-02  0.1041433E+00
         21   -1    0    0  502  501  0.00000000000E+00  0.00000000000E+00  0.67434021691E+03  0.67434021691E+03  0.00000000000E+00 0.  1.
         21   -1    0    0  501  502 -0.00000000000E+00 -0.00000000000E+00 -0.24546698845E+03  0.24546698845E+03  0.00000000000E+00 0.  1.
         25    1    1    2    0    0  0.50177172884E+02  0.19459741587E+03  0.34998922234E+03  0.42249657832E+03  0.12500000000E+03 0.  0.
         25    1    1    2    0    0 -0.19519118806E+03 -0.74521104159E+02 -0.32029194007E+02  0.24556845100E+03  0.12500000000E+03 0.  0.
         25    1    1    2    0    0  0.14501401517E+03 -0.12007631171E+03  0.11091320013E+03  0.25174217603E+03  0.12500000000E+03 0.  0.
</event>
<event>
 5    0  0.5728184E-005  0.2526559E+03  0.7546771E-02  0.1111638E+00
         21   -1    0    0  502  501  0.00000000000E+00  0.00000000000E+00  0.15617137186E+03  0.15617137186E+03  0.00000000000E+00 0.  1.
         21   -1    0    0  501  502 -0.00000000000E+00 -0.00000000000E+00 -0.40874984699E+03  0.40874984699E+03  0.00000000000E+00 0.  1.
         25    1    1    2    0    0  0.65914651875E+02 -0.12730125576E+02 -0.17606456147E+03  0.22612060330E+03  0.12500000000E+03 0.  0.
         25    1    1    2    0    0  0.58952866372E+02 -0.66978944948E+01  0.14467706779E+02  0.13912087113E+03  0.12500000000E+03 0.  0.
         25    1    1    2    0    0 -0.12486751825E+03  0.19428020071E+02 -0.90981620439E+02  0.19967974443E+03  0.12500000000E+03 0.  0.
</event>
<event>
 5    0  0.5728184E-005  0.2501924E+03  0.7546771E-02  0.1113183E+00
         21   -1    0    0  502  501  0.00000000000E+00  0.00000000000E+00  0.34933977758E+02  0.34933977758E+02  0.00000000000E+00 0.  1.
         21   -1    0    0  501  502 -0.00000000000E+00 -0.00000000000E+00 -0.17918443366E+04  0.17918443366E+04  0.00000000000E+00 0.  1.
         25    1    1    2    0    0  0.90328084139E+02 -0.53272279225E+01 -0.33945466584E+03  0.37288337628E+03  0.12500000000E+03 0.  0.
         25    1    1    2    0    0 -0.19449095783E+02  0.84000711785E+02 -0.84158005563E+03  0.85517037890E+03  0.12500000000E+03 0.  0.
         25    1    1    2    0    0 -0.70878988357E+02 -0.78673483863E+02 -0.57587563735E+03  0.59872455917E+03  0.12500000000E+03 0.  0.
</event>
<event>
 5    0  0.5728184E-005  0.2948415E+03  0.7546771E-02  0.1087848E+00
         21   -1    0    0  502  501  0.00000000000E+00  0.00000000000E+00  0.15817574700E+04  0.15817574700E+04  0.00000000000E+00 0.  1.
         21   -1    0    0  501  502 -0.00000000000E+00 -0.00000000000E+00 -0.54958822575E+02  0.54958822575E+02  0.00000000000E+00 0.  1.
         25    1    1    2    0    0 -0.81473364261E+01 -0.42931229924E+02  0.94173000823E+03  0.95099415245E+03  0.12500000000E+03 0.  0.
         25    1    1    2    0    0 -0.62861709444E+02 -0.10056029671E+02  0.88045261531E+02  0.16561910012E+03  0.12500000000E+03 0.  0.
         25    1    1    2    0    0  0.71009045870E+02  0.52987259595E+02  0.49702337763E+03  0.52010303997E+03  0.12500000000E+03 0.  0.
</event>
<event>
 5    0  0.5728184E-005  0.2464075E+03  0.7546771E-02  0.1115596E+00
         21   -1    0    0  502  501  0.00000000000E+00  0.00000000000E+00  0.58412985634E+02  0.58412985634E+02  0.00000000000E+00 0. -1.
         21   -1    0    0  501  502 -0.00000000000E+00 -0.00000000000E+00 -0.10394379078E+04  0.10394379078E+04  0.00000000000E+00 0. -1.
         25    1    1    2    0    0  0.56237572830E+01  0.27023710271E+02 -0.19396861044E+03  0.23240208562E+03  0.12500000000E+03 0.  0.
         25    1    1    2    0    0 -0.50732546737E+02 -0.11014422609E+03 -0.58106454002E+03  0.60660245755E+03  0.12500000000E+03 0.  0.
         25    1    1    2    0    0  0.45108789454E+02  0.83120515818E+02 -0.20599177170E+03  0.25884635027E+03  0.12500000000E+03 0.  0.
</event>
<event>
 5    0  0.5728184E-005  0.2016983E+03  0.7546771E-02  0.1148314E+00
         21   -1    0    0  502  501  0.00000000000E+00  0.00000000000E+00  0.15688851870E+03  0.15688851870E+03  0.00000000000E+00 0. -1.
         21   -1    0    0  501  502 -0.00000000000E+00 -0.00000000000E+00 -0.25930643956E+03  0.25930643956E+03  0.00000000000E+00 0. -1.
         25    1    1    2    0    0  0.40012011422E+00 -0.15993983969E+02  0.79172713196E+01  0.12626817020E+03  0.12500000000E+03 0.  0.
         25    1    1    2    0    0  0.66718981303E+01  0.39694689438E+02 -0.17962616990E+02  0.13254372186E+03  0.12500000000E+03 0.  0.
         25    1    1    2    0    0 -0.70720182445E+01 -0.23700705469E+02 -0.92372575192E+02  0.15738306621E+03  0.12500000000E+03 0.  0.
</event>
<event>
 5    0  0.5728184E-005  0.3351422E+03  0.7546771E-02  0.1068884E+00
         21   -1    0    0  502  501  0.00000000000E+00  0.00000000000E+00  0.23403704320E+03  0.23403704320E+03  0.00000000000E+00 0.  1.
         21   -1    0    0  501  502 -0.00000000000E+00 -0.00000000000E+00 -0.47992514480E+03  0.47992514480E+03  0.00000000000E+00 0.  1.
         25    1    1    2    0    0 -0.69098515812E+01  0.68411090762E+02 -0.34306104161E+03  0.37154232822E+03  0.12500000000E+03 0.  0.
         25    1    1    2    0    0  0.78961036508E+02 -0.10267496911E+03  0.50445782997E+02  0.18694055630E+03  0.12500000000E+03 0.  0.
         25    1    1    2    0    0 -0.72051184926E+02  0.34263878349E+02  0.46727157011E+02  0.15547930348E+03  0.12500000000E+03 0.  0.
</event>
<event>
 5    0  0.5728184E-005  0.3417749E+03  0.7546771E-02  0.1066042E+00
         21   -1    0    0  502  501  0.00000000000E+00  0.00000000000E+00  0.27826017090E+03  0.27826017090E+03  0.00000000000E+00 0.  1.
         21   -1    0    0  501  502 -0.00000000000E+00 -0.00000000000E+00 -0.41978722829E+03  0.41978722829E+03  0.00000000000E+00 0.  1.
         25    1    1    2    0    0  0.49594993887E+02  0.12372980265E+03 -0.16433071090E+02  0.18347690129E+03  0.12500000000E+03 0.  0.
         25    1    1    2    0    0  0.12460121242E+03  0.17828931809E+02  0.71298185597E+02  0.19118515689E+03  0.12500000000E+03 0.  0.
         25    1    1    2    0    0 -0.17419620631E+03 -0.14155873446E+03 -0.19639217190E+03  0.32338534101E+03  0.12500000000E+03 0.  0.
</event>
<event>
 5    0  0.5931740E-005  0.4712481E+03  0.7546771E-02  0.1021569E+00
         21   -1    0    0  502  501  0.00000000000E+00  0.00000000000E+00  0.82778840047E+03  0.82778840047E+03  0.00000000000E+00 0. -1.
         21   -1    0    0  501  502 -0.00000000000E+00 -0.00000000000E+00 -0.26827474914E+03  0.26827474914E+03  0.00000000000E+00 0. -1.
         25    1    1    2    0    0  0.23069394567E+03 -0.19604310795E+03  0.28806550756E+03  0.43618726871E+03  0.12500000000E+03 0.  0.
         25    1    1    2    0    0 -0.26861864881E+03 -0.69997653796E+02  0.15279731308E+03  0.34062834426E+03  0.12500000000E+03 0.  0.
         25    1    1    2    0    0  0.37924703144E+02  0.26604076175E+03  0.11865083070E+03  0.31924753663E+03  0.12500000000E+03 0.  0.
</event>
<event>
 5    0  0.5728184E-005  0.2684767E+03  0.7546771E-02  0.1102155E+00
         21   -1    0    0  502  501  0.00000000000E+00  0.00000000000E+00  0.29806846577E+02  0.29806846577E+02  0.00000000000E+00 0.  1.
         21   -1    0    0  501  502 -0.00000000000E+00 -0.00000000000E+00 -0.24182277092E+04  0.24182277092E+04  0.00000000000E+00 0.  1.
         25    1    1    2    0    0 -0.60631007559E+01 -0.21533310225E+02 -0.69041561302E+03  0.70199655507E+03  0.12500000000E+03 0.  0.
         25    1    1    2    0    0  0.79740044228E+02  0.15054348870E+02 -0.14573516103E+04  0.14649518163E+04  0.12500000000E+03 0.  0.
         25    1    1    2    0    0 -0.73676943472E+02  0.64789613550E+01 -0.24065363926E+03  0.28108618434E+03  0.12500000000E+03 0.  0.
</event>
<event>
 5    0  0.5728184E-005  0.2610664E+03  0.7546771E-02  0.1106504E+00
         21   -1    0    0  502  501  0.00000000000E+00  0.00000000000E+00  0.61345545637E+02  0.61345545637E+02  0.00000000000E+00 0. -1.
         21   -1    0    0  501  502 -0.00000000000E+00 -0.00000000000E+00 -0.11110122588E+04  0.11110122588E+04  0.00000000000E+00 0. -1.
         25    1    1    2    0    0  0.28143675511E+02  0.66249398791E+02 -0.18867702601E+03  0.23749751463E+03  0.12500000000E+03 0.  0.
         25    1    1    2    0    0 -0.56224655074E+02 -0.90545158783E+02 -0.18933214099E+03  0.25066171872E+03  0.12500000000E+03 0.  0.
         25    1    1    2    0    0  0.28080979563E+02  0.24295759992E+02 -0.67165754618E+03  0.68419857110E+03  0.12500000000E+03 0.  0.
</event>
<event>
 5    0  0.5728184E-005  0.3637974E+03  0.7546771E-02  0.1057090E+00
         21   -1    0    0  502  501  0.00000000000E+00  0.00000000000E+00  0.45134281021E+03  0.45134281021E+03  0.00000000000E+00 0.  1.
         21   -1    0    0  501  502 -0.00000000000E+00 -0.00000000000E+00 -0.29323279671E+03  0.29323279671E+03  0.00000000000E+00 0.  1.
         25    1    1    2    0    0  0.22091929758E+03 -0.47593368662E+02 -0.29124244815E+02  0.25989168209E+03  0.12500000000E+03 0.  0.
         25    1    1    2    0    0 -0.26195949716E+03  0.66853978905E+02  0.18704905817E+03  0.35171662288E+03  0.12500000000E+03 0.  0.
         25    1    1    2    0    0  0.41040199582E+02 -0.19260610243E+02  0.18520014081E+00  0.13296730195E+03  0.12500000000E+03 0.  0.
</event>
<event>
 5    0  0.5728184E-005  0.3955747E+03  0.7546771E-02  0.1045323E+00
         21   -1    0    0  502  501  0.00000000000E+00  0.00000000000E+00  0.10706068871E+03  0.10706068871E+03  0.00000000000E+00 0. -1.
         21   -1    0    0  501  502 -0.00000000000E+00 -0.00000000000E+00 -0.14615947749E+04  0.14615947749E+04  0.00000000000E+00 0. -1.
         25    1    1    2    0    0 -0.55393844451E+02 -0.17690828037E+03 -0.12023319559E+03  0.25386224412E+03  0.12500000000E+03 0.  0.
         25    1    1    2    0    0 -0.94873524213E+02  0.12910402224E+02 -0.23101678724E+03  0.27957363980E+03  0.12500000000E+03 0.  0.
         25    1    1    2    0    0  0.15026736866E+03  0.16399787815E+03 -0.10032841033E+04  0.10352195797E+04  0.12500000000E+03 0.  0.
</event>
<event>
 5    0  0.5728184E-005  0.4152446E+03  0.7546771E-02  0.1038625E+00
         21   -1    0    0  502  501  0.00000000000E+00  0.00000000000E+00  0.74006174834E+02  0.74006174834E+02  0.00000000000E+00 0. -1.
         21   -1    0    0  501  502 -0.00000000000E+00 -0.00000000000E+00 -0.23299148197E+04  0.23299148197E+04  0.00000000000E+00 0. -1.
         25    1    1    2    0    0  0.47629646201E+01  0.35722508466E+01 -0.60568248360E+03  0.61847531700E+03  0.12500000000E+03 0.  0.
         25    1    1    2    0    0 -0.29083723182E+03 -0.81883390778E+02 -0.11043980691E+04  0.11517861261E+04  0.12500000000E+03 0.  0.
         25    1    1    2    0    0  0.28607426720E+03  0.78311139932E+02 -0.54582809212E+03  0.63365955144E+03  0.12500000000E+03 0.  0.
</event>
<event>
 5    0  0.5728184E-005  0.3377167E+03  0.7546771E-02  0.1067773E+00
         21   -1    0    0  502  501  0.00000000000E+00  0.00000000000E+00  0.18467865762E+03  0.18467865762E+03  0.00000000000E+00 0. -1.
         21   -1    0    0  501  502 -0.00000000000E+00 -0.00000000000E+00 -0.61757320527E+03  0.61757320527E+03  0.00000000000E+00 0. -1.
         25    1    1    2    0    0 -0.27383497895E+01  0.65634715520E+02 -0.10732501687E+03  0.17736705919E+03  0.12500000000E+03 0.  0.
         25    1    1    2    0    0  0.20014472874E+03 -0.15310353314E+03 -0.14172636928E+03  0.31497613886E+03  0.12500000000E+03 0.  0.
         25    1    1    2    0    0 -0.19740637895E+03  0.87468817622E+02 -0.18384316150E+03  0.30990866483E+03  0.12500000000E+03 0.  0.
</event>
<event>
 5    0  0.5728184E-005  0.2721513E+03  0.7546771E-02  0.1100055E+00
         21   -1    0    0  502  501  0.00000000000E+00  0.00000000000E+00  0.12645782816E+03  0.12645782816E+03  0.00000000000E+00 0.  1.
         21   -1    0    0  501  502 -0.00000000000E+00 -0.00000000000E+00 -0.58569991755E+03  0.58569991755E+03  0.00000000000E+00 0.  1.
         25    1    1    2    0    0  0.75311674844E+02  0.13341166324E+02 -0.10233794698E+01  0.14654651955E+03  0.12500000000E+03 0.  0.
         25    1    1    2    0    0 -0.42207644112E+02  0.23984693218E+02 -0.39456463449E+03  0.41672893051E+03  0.12500000000E+03 0.  0.
         25    1    1    2    0    0 -0.33104030732E+02 -0.37325859543E+02 -0.63654075418E+02  0.14888229565E+03  0.12500000000E+03 0.  0.
</event>
<event>
 5    0  0.5728184E-005  0.3132948E+03  0.7546771E-02  0.1078777E+00
         21   -1    0    0  502  501  0.00000000000E+00  0.00000000000E+00  0.12940200366E+03  0.12940200366E+03  0.00000000000E+00 0.  1.
         21   -1    0    0  501  502 -0.00000000000E+00 -0.00000000000E+00 -0.75851691927E+03  0.75851691927E+03  0.00000000000E+00 0.  1.
         25    1    1    2    0    0  0.14207258637E+03  0.92529950875E+01 -0.48131995653E+02  0.19547871168E+03  0.12500000000E+03 0.  0.
         25    1    1    2    0    0 -0.69953863162E+02 -0.12396728904E+03 -0.25114132452E+03  0.31457653537E+03  0.12500000000E+03 0.  0.
         25    1    1    2    0    0 -0.72118723209E+02  0.11471429395E+03 -0.32984159543E+03  0.37786367588E+03  0.12500000000E+03 0.  0.
</event>
<event>
 5    0  0.5728184E-005  0.3435070E+03  0.7546771E-02  0.1065312E+00
         21   -1    0    0  502  501  0.00000000000E+00  0.00000000000E+00  0.90249392243E+02  0.90249392243E+02  0.00000000000E+00 0.  1.
         21   -1    0    0  501  502 -0.00000000000E+00 -0.00000000000E+00 -0.13074556296E+04  0.13074556296E+04  0.00000000000E+00 0.  1.
         25    1    1    2    0    0  0.65780319052E+02 -0.10522892131E+03 -0.81325638116E+03  0.83211244297E+03  0.12500000000E+03 0.  0.
         25    1    1    2    0    0 -0.12594603237E+03  0.62827293026E+02 -0.68840781434E+02  0.20043384197E+03  0.12500000000E+03 0.  0.
         25    1    1    2    0    0  0.60165713323E+02  0.42401628282E+02 -0.33510907473E+03  0.36515873686E+03  0.12500000000E+03 0.  0.
</event>
<event>
 5    0  0.5728184E-005  0.3554995E+03  0.7546771E-02  0.1060380E+00
         21   -1    0    0  502  501  0.00000000000E+00  0.00000000000E+00  0.14585518937E+04  0.14585518937E+04  0.00000000000E+00 0.  1.
         21   -1    0    0  501  502 -0.00000000000E+00 -0.00000000000E+00 -0.86647503065E+02  0.86647503065E+02  0.00000000000E+00 0.  1.
         25    1    1    2    0    0 -0.10654320116E+03 -0.74134455430E+01  0.10821856266E+03  0.19683157824E+03  0.12500000000E+03 0.  0.
         25    1    1    2    0    0  0.50898937494E+01  0.81241638693E+02  0.10904996477E+04  0.11006546200E+04  0.12500000000E+03 0.  0.
         25    1    1    2    0    0  0.10145330741E+03 -0.73828193150E+02  0.17318618026E+03  0.24771319852E+03  0.12500000000E+03 0.  0.
</event>
<event>
 5    0  0.5728184E-005  0.3796179E+03  0.7546771E-02  0.1051075E+00
         21   -1    0    0  502  501  0.00000000000E+00  0.00000000000E+00  0.58155276282E+03  0.58155276282E+03  0.00000000000E+00 0. -1.
         21   -1    0    0  501  502 -0.00000000000E+00 -0.00000000000E+00 -0.24780171889E+03  0.24780171889E+03  0.00000000000E+00 0.  1.
         25    1    1    2    0    0  0.62319211324E+02 -0.17315482963E+03  0.84718589798E+01  0.22262760727E+03  0.12500000000E+03 0.  0.
         25    1    1    2    0    0  0.14342800580E+03 -0.12542397910E+02  0.20444238122E+03  0.27955427350E+03  0.12500000000E+03 0.  0.
         25    1    1    2    0    0 -0.20574721712E+03  0.18569722754E+03  0.12083680372E+03  0.32717260094E+03  0.12500000000E+03 0.  0.
</event>
<event>
 5    0  0.5728184E-005  0.3236140E+03  0.7546771E-02  0.1073998E+00
         21   -1    0    0  502  501  0.00000000000E+00  0.00000000000E+00  0.14481438756E+04  0.14481438756E+04  0.00000000000E+00 0. -1.
         21   -1    0    0  501  502 -0.00000000000E+00 -0.00000000000E+00 -0.72317434239E+02  0.72317434239E+02  0.00000000000E+00 0. -1.
         25    1    1    2    0    0  0.18841406749E+03 -0.13992819028E+03  0.60982465749E+03  0.66527503496E+03  0.12500000000E+03 0.  0.
         25    1    1    2    0    0 -0.12607938650E+03  0.10742653042E+03  0.28029902837E+03  0.34875351818E+03  0.12500000000E+03 0.  0.
         25    1    1    2    0    0 -0.62334680990E+02  0.32501659860E+02  0.48570275549E+03  0.50643275668E+03  0.12500000000E+03 0.  0.
</event>
<event>
 5    0  0.5728184E-005  0.3456453E+03  0.7546771E-02  0.1064417E+00
         21   -1    0    0  502  501  0.00000000000E+00  0.00000000000E+00  0.88759288153E+03  0.88759288153E+03  0.00000000000E+00 0. -1.
         21   -1    0    0  501  502 -0.00000000000E+00 -0.00000000000E+00 -0.13460073291E+03  0.13460073291E+03  0.00000000000E+00 0. -1.
         25    1    1    2    0    0 -0.31629546440E+02 -0.16521017450E+02 -0.32148936498E+01  0.13003348710E+03  0.12500000000E+03 0.  0.
         25    1    1    2    0    0  0.12323990441E+03 -0.38989552562E+02  0.81072467757E+02  0.19724605009E+03  0.12500000000E+03 0.  0.
         25    1    1    2    0    0 -0.91610357970E+02  0.55510570012E+02  0.67513457451E+03  0.69491407726E+03  0.12500000000E+03 0.  0.
</event>
<event>
 5    0  0.5728184E-005  0.2720509E+03  0.7546771E-02  0.1100112E+00
         21   -1    0    0  502  501  0.00000000000E+00  0.00000000000E+00  0.15012243536E+03  0.15012243536E+03  0.00000000000E+00 0.  1.
         21   -1    0    0  501  502 -0.00000000000E+00 -0.00000000000E+00 -0.49300902507E+03  0.49300902507E+03  0.00000000000E+00 0.  1.
         25    1    1    2    0    0 -0.59359277014E+02 -0.19709285263E+02 -0.20845686171E+03  0.25098056277E+03  0.12500000000E+03 0.  0.
         25    1    1    2    0    0  0.82274690099E+02  0.13053062717E+03 -0.56919132855E+02  0.20657240122E+03  0.12500000000E+03 0.  0.
         25    1    1    2    0    0 -0.22915413085E+02 -0.11082134191E+03 -0.77510595152E+02  0.18557849644E+03  0.12500000000E+03 0.  0.
</event>
<event>
 5    0  0.5728184E-005  0.6333349E+03  0.7546771E-02  0.9838563E-01
         21   -1    0    0  502  501  0.00000000000E+00  0.00000000000E+00  0.66415644156E+03  0.66415644156E+03  0.00000000000E+00 0. -1.
         21   -1    0    0  501  502 -0.00000000000E+00 -0.00000000000E+00 -0.60394369092E+03  0.60394369092E+03  0.00000000000E+00 0. -1.
         25    1    1    2    0    0  0.25707332872E+03  0.11131732772E+03  0.55254267038E+03  0.63198627073E+03  0.12500000000E+03 0.  0.
         25    1    1    2    0    0 -0.22324268304E+03 -0.72192350464E+02 -0.35308403614E+03  0.44197552825E+03  0.12500000000E+03 0.  0.
         25    1    1    2    0    0 -0.33830645683E+02 -0.39124977257E+02 -0.13924588360E+03  0.19413833350E+03  0.12500000000E+03 0.  0.
</event>
<event>
 5    0  0.5728184E-005  0.3069571E+03  0.7546771E-02  0.1081814E+00
         21   -1    0    0  502  501  0.00000000000E+00  0.00000000000E+00  0.97787874800E+02  0.97787874800E+02  0.00000000000E+00 0. -1.
         21   -1    0    0  501  502 -0.00000000000E+00 -0.00000000000E+00 -0.96354135128E+03  0.96354135128E+03  0.00000000000E+00 0. -1.
         25    1    1    2    0    0  0.16106025711E+03 -0.13525089368E+03 -0.36641264257E+03  0.44058646744E+03  0.12500000000E+03 0.  0.
         25    1    1    2    0    0  0.68585343944E+01  0.70602219641E+02 -0.25377149456E+03  0.29164479142E+03  0.12500000000E+03 0.  0.
         25    1    1    2    0    0 -0.16791879150E+03  0.64648674044E+02 -0.24556933935E+03  0.32909796722E+03  0.12500000000E+03 0.  0.
</event>
<event>
 5    0  0.5728184E-005  0.3638317E+03  0.7546771E-02  0.1057077E+00
         21   -1    0    0  502  501  0.00000000000E+00  0.00000000000E+00  0.20363934153E+03  0.20363934153E+03  0.00000000000E+00 0. -1.
         21   -1    0    0  501  502 -0.00000000000E+00 -0.00000000000E+00 -0.65003913663E+03  0.65003913663E+03  0.00000000000E+00 0. -1.
         25    1    1    2    0    0  0.81286561358E+02 -0.16559554831E+03 -0.31148744341E+03  0.38298670745E+03  0.12500000000E+03 0.  0.
         25    1    1    2    0    0 -0.17588796060E+03  0.23279629835E+02  0.46892495913E+01  0.21708409641E+03  0.12500000000E+03 0.  0.
         25    1    1    2    0    0  0.94601399246E+02  0.14231591847E+03 -0.13960160127E+03  0.25360767431E+03  0.12500000000E+03 0.  0.
</event>
<event>
 5    0  0.5728184E-005  0.2330420E+03  0.7546771E-02  0.1124517E+00
         21   -1    0    0  502  501  0.00000000000E+00  0.00000000000E+00  0.35953472746E+04  0.35953472746E+04  0.00000000000E+00 0. -1.
         21   -1    0    0  501  502 -0.00000000000E+00 -0.00000000000E+00 -0.15105240042E+02  0.15105240042E+02  0.00000000000E+00 0. -1.
         25    1    1    2    0    0 -0.12472842069E+03 -0.23753351259E+02  0.11420635161E+04  0.11558786594E+04  0.12500000000E+03 0.  0.
         25    1    1    2    0    0  0.61488296383E+02  0.31019370097E+02  0.12797556166E+04  0.12876888017E+04  0.12500000000E+03 0.  0.
         25    1    1    2    0    0  0.63240124311E+02 -0.72660188376E+01  0.11584229019E+04  0.11668850534E+04  0.12500000000E+03 0.  0.
</event>
<event>
 5    0  0.5728184E-005  0.3739216E+03  0.7546771E-02  0.1053204E+00
         21   -1    0    0  502  501  0.00000000000E+00  0.00000000000E+00  0.63408879983E+03  0.63408879983E+03  0.00000000000E+00 0. -1.
         21   -1    0    0  501  502 -0.00000000000E+00 -0.00000000000E+00 -0.22050124343E+03  0.22050124343E+03  0.00000000000E+00 0. -1.
         25    1    1    2    0    0 -0.11015679749E+03 -0.84056296049E+02  0.13483647837E+03  0.23023000855E+03  0.12500000000E+03 0.  0.
         25    1    1    2    0    0 -0.13326350520E+03  0.18005334539E+03  0.19589323922E+03  0.32276544142E+03  0.12500000000E+03 0.  0.
         25    1    1    2    0    0  0.24342030269E+03 -0.95997049340E+02  0.82857838805E+02  0.30159459328E+03  0.12500000000E+03 0.  0.
</event>
<event>
 5    0  0.5728184E-005  0.4286274E+03  0.7546771E-02  0.1034294E+00
         21   -1    0    0  502  501  0.00000000000E+00  0.00000000000E+00  0.51268188694E+03  0.51268188694E+03  0.00000000000E+00 0. -1.
         21   -1    0    0  501  502 -0.00000000000E+00 -0.00000000000E+00 -0.35835376748E+03  0.35835376748E+03  0.00000000000E+00 0. -1.
         25    1    1    2    0    0 -0.22844323915E+03  0.23748441134E+03 -0.13043443000E+02  0.35267590015E+03  0.12500000000E+03 0.  0.
         25    1    1    2    0    0  0.40322119666E+02 -0.27658398967E+02 -0.47719215173E+02  0.14245344455E+03  0.12500000000E+03 0.  0.
         25    1    1    2    0    0  0.18812111948E+03 -0.20982601238E+03  0.21509077763E+03  0.37590630972E+03  0.12500000000E+03 0.  0.
</event>
<event>
 5    0  0.5728184E-005  0.3304199E+03  0.7546771E-02  0.1070951E+00
         21   -1    0    0  502  501  0.00000000000E+00  0.00000000000E+00  0.55348811856E+02  0.55348811856E+02  0.00000000000E+00 0.  1.
         21   -1    0    0  501  502 -0.00000000000E+00 -0.00000000000E+00 -0.19725327183E+04  0.19725327183E+04  0.00000000000E+00 0.  1.
         25    1    1    2    0    0  0.15427042842E+03 -0.11797252944E+03 -0.87399501671E+03  0.90399622346E+03  0.12500000000E+03 0.  0.
         25    1    1    2    0    0  0.10189434545E+02 -0.42052912265E+02 -0.55074962428E+03  0.56641188251E+03  0.12500000000E+03 0.  0.
         25    1    1    2    0    0 -0.16445986297E+03  0.16002544171E+03 -0.49243926551E+03  0.55747342424E+03  0.12500000000E+03 0.  0.
</event>
<event>
 5    0  0.5728184E-005  0.2425607E+03  0.7546771E-02  0.1118099E+00
         21   -1    0    0  502  501  0.00000000000E+00  0.00000000000E+00  0.10115506184E+04  0.10115506184E+04  0.00000000000E+00 0.  1.
         21   -1    0    0  501  502 -0.00000000000E+00 -0.00000000000E+00 -0.58163871831E+02  0.58163871831E+02  0.00000000000E+00 0.  1.
         25    1    1    2    0    0  0.92011341915E+02 -0.31513282588E+02  0.48059446276E+03  0.50601898349E+03  0.12500000000E+03 0.  0.
         25    1    1    2    0    0 -0.16791480755E+02 -0.68047473331E+00  0.96425790636E+02  0.15876192860E+03  0.12500000000E+03 0.  0.
         25    1    1    2    0    0 -0.75219861160E+02  0.32193757322E+02  0.37636649318E+03  0.40493357815E+03  0.12500000000E+03 0.  0.
</event>
<event>
 5    0  0.5728184E-005  0.3366015E+03  0.7546771E-02  0.1068253E+00
         21   -1    0    0  502  501  0.00000000000E+00  0.00000000000E+00  0.77565465941E+02  0.77565465941E+02  0.00000000000E+00 0.  1.
         21   -1    0    0  501  502 -0.00000000000E+00 -0.00000000000E+00 -0.14607091775E+04  0.14607091775E+04  0.00000000000E+00 0. -1.
         25    1    1    2    0    0  0.11647178919E+03  0.30847389221E+02 -0.29466706927E+03  0.34201011799E+03  0.12500000000E+03 0.  0.
         25    1    1    2    0    0  0.12765994078E+03  0.85686987924E+02 -0.44642710531E+03  0.48842755935E+03  0.12500000000E+03 0.  0.
         25    1    1    2    0    0 -0.24413172996E+03 -0.11653437715E+03 -0.64204953697E+03  0.70783696608E+03  0.12500000000E+03 0.  0.
</event>
<event>
 5    0  0.5728184E-005  0.3754671E+03  0.7546771E-02  0.1052622E+00
         21   -1    0    0  502  501  0.00000000000E+00  0.00000000000E+00  0.15555787190E+03  0.15555787190E+03  0.00000000000E+00 0.  1.
         21   -1    0    0  501  502 -0.00000000000E+00 -0.00000000000E+00 -0.90625767545E+03  0.90625767545E+03  0.00000000000E+00 0.  1.
         25    1    1    2    0    0 -0.97606595601E+02 -0.23209547710E+03 -0.32483105652E+03  0.42957603899E+03  0.12500000000E+03 0.  0.
         25    1    1    2    0    0  0.20127420478E+03  0.98216425081E+02 -0.22178054981E+03  0.33907135523E+03  0.12500000000E+03 0.  0.
         25    1    1    2    0    0 -0.10366760918E+03  0.13387905202E+03 -0.20408819722E+03  0.29316815313E+03  0.12500000000E+03 0.  0.
</event>
<event>
 5    0  0.5728184E-005  0.2367131E+03  0.7546771E-02  0.1122002E+00
         21   -1    0    0  502  501  0.00000000000E+00  0.00000000000E+00  0.21824704650E+03  0.21824704650E+03  0.00000000000E+00 0.  1.
         21   -1    0    0  501  502 -0.00000000000E+00 -0.00000000000E+00 -0.25674161476E+03  0.25674161476E+03  0.00000000000E+00 0.  1.
         25    1    1    2    0    0 -0.21312564111E+02 -0.36518106478E+02 -0.14334411558E+03  0.19483411652E+03  0.12500000000E+03 0.  0.
         25    1    1    2    0    0  0.31324064512E+02  0.11921339678E+02  0.33022134222E+02  0.13356188343E+03  0.12500000000E+03 0.  0.
         25    1    1    2    0    0 -0.10011500401E+02  0.24596766800E+02  0.71827413102E+02  0.14659266131E+03  0.12500000000E+03 0.  0.
</event>
<event>
 5    0  0.5728184E-005  0.2896161E+03  0.7546771E-02  0.1090550E+00
         21   -1    0    0  502  501  0.00000000000E+00  0.00000000000E+00  0.64404966571E+03  0.64404966571E+03  0.00000000000E+00 0. -1.
         21   -1    0    0  501  502 -0.00000000000E+00 -0.00000000000E+00 -0.13023452750E+03  0.13023452750E+03  0.00000000000E+00 0. -1.
         25    1    1    2    0    0 -0.13522153418E+03 -0.12688880802E+03  0.16305251608E+03  0.27676118931E+03  0.12500000000E+03 0.  0.
         25    1    1    2    0    0  0.78610225011E+02  0.14176853025E+03  0.14951645942E+03  0.25349172626E+03  0.12500000000E+03 0.  0.
         25    1    1    2    0    0  0.56611309172E+02 -0.14879722228E+02  0.20124616271E+03  0.24403127763E+03  0.12500000000E+03 0.  0.
</event>
<event>
 5    0  0.5728184E-005  0.3026202E+03  0.7546771E-02  0.1083938E+00
         21   -1    0    0  502  501  0.00000000000E+00  0.00000000000E+00  0.36771124683E+02  0.36771124683E+02  0.00000000000E+00 0. -1.
         21   -1    0    0  501  502 -0.00000000000E+00 -0.00000000000E+00 -0.24905141173E+04  0.24905141173E+04  0.00000000000E+00 0. -1.
         25    1    1    2    0    0 -0.62981810771E+02  0.93026735484E+02 -0.11529891469E+04  0.11651736587E+04  0.12500000000E+03 0.  0.
         25    1    1    2    0    0  0.11593727550E+02 -0.65628453403E+02 -0.16266990157E+03  0.21570351247E+03  0.12500000000E+03 0.  0.
         25    1    1    2    0    0  0.51388083221E+02 -0.27398282081E+02 -0.11380839441E+04  0.11464080708E+04  0.12500000000E+03 0.  0.
</event>
<event>
 5    0  0.5728184E-005  0.2942791E+03  0.7546771E-02  0.1088136E+00
         21   -1    0    0  502  501  0.00000000000E+00  0.00000000000E+00  0.69794570656E+02  0.69794570656E+02  0.00000000000E+00 0. -1.
         21   -1    0    0  501  502 -0.00000000000E+00 -0.00000000000E+00 -0.12407866146E+04  0.12407866146E+04  0.00000000000E+00 0. -1.
         25    1    1    2    0    0  0.18851185105E+03 -0.22457087475E+02 -0.29202370426E+03  0.37005929607E+03  0.12500000000E+03 0.  0.
         25    1    1    2    0    0 -0.13618588355E+03 -0.32684577098E+02 -0.52252475059E+03  0.55522247022E+03  0.12500000000E+03 0.  0.
         25    1    1    2    0    0 -0.52325967498E+02  0.55141664572E+02 -0.35644358912E+03  0.38529941899E+03  0.12500000000E+03 0.  0.
</event>
<event>
 5    0  0.5728184E-005  0.2605949E+03  0.7546771E-02  0.1106786E+00
         21   -1    0    0  502  501  0.00000000000E+00  0.00000000000E+00  0.10684116977E+03  0.10684116977E+03  0.00000000000E+00 0.  1.
         21   -1    0    0  501  502 -0.00000000000E+00 -0.00000000000E+00 -0.63561337818E+03  0.63561337818E+03  0.00000000000E+00 0.  1.
         25    1    1    2    0    0 -0.64710952736E+02 -0.86245567324E+02 -0.29938245598E+03  0.34187813653E+03  0.12500000000E+03 0.  0.
         25    1    1    2    0    0 -0.31284849772E+02  0.82701600177E+02 -0.17793807393E+03  0.23474508440E+03  0.12500000000E+03 0.  0.
         25    1    1    2    0    0  0.95995802508E+02  0.35439671468E+01 -0.51451678506E+02  0.16583132703E+03  0.12500000000E+03 0.  0.
</event>
<event>
 5    0  0.5728184E-005  0.5412420E+03  0.7546771E-02  0.1003542E+00
         21   -1    0    0  502  501  0.00000000000E+00  0.00000000000E+00  0.72850932163E+03  0.72850932163E+03  0.00000000000E+00 0.  1.
         21   -1    0    0  501  502 -0.00000000000E+00 -0.00000000000E+00 -0.40211272915E+03  0.40211272915E+03  0.00000000000E+00 0.  1.
         25    1    1    2    0    0 -0.33058489446E+03 -0.10515205168E+03 -0.93960887460E+02  0.38052197676E+03  0.12500000000E+03 0.  0.
         25    1    1    2    0    0  0.30254200752E+03  0.14826765713E+03  0.48226370956E+03  0.60143017052E+03  0.12500000000E+03 0.  0.
         25    1    1    2    0    0  0.28042886948E+02 -0.43115605443E+02 -0.61906229617E+02  0.14866990350E+03  0.12500000000E+03 0.  0.
</event>
<event>
 5    0  0.6513959E-005  0.3456598E+03  0.7546771E-02  0.1064411E+00
         21   -1    0    0  502  501  0.00000000000E+00  0.00000000000E+00  0.16077043477E+03  0.16077043477E+03  0.00000000000E+00 0.  1.
         21   -1    0    0  501  502 -0.00000000000E+00 -0.00000000000E+00 -0.74317577659E+03  0.74317577659E+03  0.00000000000E+00 0.  1.
         25    1    1    2    0    0  0.29972935896E+02 -0.11110339509E+03 -0.39154049076E+03  0.42681529634E+03  0.12500000000E+03 0.  0.
         25    1    1    2    0    0  0.12287842260E+03 -0.47414801685E+02 -0.10500427648E+03  0.20975740330E+03  0.12500000000E+03 0.  0.
         25    1    1    2    0    0 -0.15285135850E+03  0.15851819678E+03 -0.85860574576E+02  0.26737351172E+03  0.12500000000E+03 0.  0.
</event>
<event>
 5    0  0.5728184E-005  0.3075070E+03  0.7546771E-02  0.1081547E+00
         21   -1    0    0  502  501  0.00000000000E+00  0.00000000000E+00  0.13205142464E+04  0.13205142464E+04  0.00000000000E+00 0. -1.
         21   -1    0    0  501  502 -0.00000000000E+00 -0.00000000000E+00 -0.71608883565E+02  0.71608883565E+02  0.00000000000E+00 0. -1.
         25    1    1    2    0    0 -0.20231258837E+03  0.36541876656E+02  0.73307615942E+03  0.77155126056E+03  0.12500000000E+03 0.  0.
         25    1    1    2    0    0  0.11912250966E+03  0.86468055784E+01  0.36072678309E+03  0.40001718912E+03  0.12500000000E+03 0.  0.
         25    1    1    2    0    0  0.83190078711E+02 -0.45188682235E+02  0.15510242028E+03  0.22055468024E+03  0.12500000000E+03 0.  0.
</event>
<event>
 5    0  0.6813600E-005  0.2648066E+03  0.7546771E-02  0.1104289E+00
         21   -1    0    0  502  501  0.00000000000E+00  0.00000000000E+00  0.20994011953E+03  0.20994011953E+03  0.00000000000E+00 0. -1.
         21   -1    0    0  501  502 -0.00000000000E+00 -0.00000000000E+00 -0.33401201057E+03  0.33401201057E+03  0.00000000000E+00 0. -1.
         25    1    1    2    0    0 -0.12498744114E+03 -0.17634240665E+01 -0.16752143458E+03  0.24354342765E+03  0.12500000000E+03 0.  0.
         25    1    1    2    0    0  0.66409459768E+02  0.47307397210E+02  0.41993517719E+02  0.15503761385E+03  0.12500000000E+03 0.  0.
         25    1    1    2    0    0  0.58577981368E+02 -0.45543973144E+02  0.14560258275E+01  0.14537108860E+03  0.12500000000E+03 0.  0.
</event>
<event>
 5    0  0.5728184E-005  0.2711971E+03  0.7546771E-02  0.1100596E+00
         21   -1    0    0  502  501  0.00000000000E+00  0.00000000000E+00  0.59792784261E+03  0.59792784261E+03  0.00000000000E+00 0.  1.
         21   -1    0    0  501  502 -0.00000000000E+00 -0.00000000000E+00 -0.12300458015E+03  0.12300458015E+03  0.00000000000E+00 0.  1.
         25    1    1    2    0    0  0.16277088590E+02 -0.85277601696E+02  0.31859642780E+03  0.35308058113E+03  0.12500000000E+03 0.  0.
         25    1    1    2    0    0 -0.84742393455E+01 -0.19400139628E+02  0.16054748874E+03  0.20456948524E+03  0.12500000000E+03 0.  0.
         25    1    1    2    0    0 -0.78028492449E+01  0.10467774132E+03 -0.42206540827E+01  0.16328235638E+03  0.12500000000E+03 0.  0.
</event>
<event>
 5    0  0.5728184E-005  0.2713605E+03  0.7546771E-02  0.1100503E+00
         21   -1    0    0  502  501  0.00000000000E+00  0.00000000000E+00  0.49848216024E+03  0.49848216024E+03  0.00000000000E+00 0.  1.
         21   -1    0    0  501  502 -0.00000000000E+00 -0.00000000000E+00 -0.14772147514E+03  0.14772147514E+03  0.00000000000E+00 0.  1.
         25    1    1    2    0    0  0.28493696426E+02 -0.17093804314E+02 -0.57577873574E+01  0.12946907352E+03  0.12500000000E+03 0.  0.
         25    1    1    2    0    0 -0.36581741825E+02 -0.10448684580E+03  0.69630971690E+02  0.18091212507E+03  0.12500000000E+03 0.  0.
         25    1    1    2    0    0  0.80880453992E+01  0.12158065011E+03  0.28688750076E+03  0.33582243679E+03  0.12500000000E+03 0.  0.
</event>
<event>
 5    0  0.5728184E-005  0.3940218E+03  0.7546771E-02  0.1045870E+00
         21   -1    0    0  502  501  0.00000000000E+00  0.00000000000E+00  0.53828362402E+03  0.53828362402E+03  0.00000000000E+00 0. -1.
         21   -1    0    0  501  502 -0.00000000000E+00 -0.00000000000E+00 -0.28842265187E+03  0.28842265187E+03  0.00000000000E+00 0. -1.
         25    1    1    2    0    0  0.13234369627E+03 -0.23959093724E+02  0.12470769056E+03  0.22195923094E+03  0.12500000000E+03 0.  0.
         25    1    1    2    0    0 -0.11746373888E+03  0.49793318386E+02  0.32284500427E+03  0.36895934910E+03  0.12500000000E+03 0.  0.
         25    1    1    2    0    0 -0.14879957390E+02 -0.25834224662E+02 -0.19769172268E+03  0.23578769585E+03  0.12500000000E+03 0.  0.
</event>
<event>
 5    0  0.5728184E-005  0.3737333E+03  0.7546771E-02  0.1053275E+00
         21   -1    0    0  502  501  0.00000000000E+00  0.00000000000E+00  0.18298534658E+03  0.18298534658E+03  0.00000000000E+00 0. -1.
         21   -1    0    0  501  502 -0.00000000000E+00 -0.00000000000E+00 -0.76332116156E+03  0.76332116156E+03  0.00000000000E+00 0. -1.
         25    1    1    2    0    0  0.15767185783E+03 -0.16839600738E+03 -0.43364511768E+03  0.50684387946E+03  0.12500000000E+03 0.  0.
         25    1    1    2    0    0  0.37269302498E+02  0.12571737447E+02 -0.18604530590E+02  0.13235625429E+03  0.12500000000E+03 0.  0.
         25    1    1    2    0    0 -0.19494116033E+03  0.15582426993E+03 -0.12808616671E+03  0.30710637439E+03  0.12500000000E+03 0.  0.
</event>
<event>
 5    0  0.5728184E-005  0.2879108E+03  0.7546771E-02  0.1091445E+00
         21   -1    0    0  502  501  0.00000000000E+00  0.00000000000E+00  0.37757709566E+03  0.37757709566E+03  0.00000000000E+00 0.  1.
         21   -1    0    0  501  502 -0.00000000000E+00 -0.00000000000E+00 -0.21953834261E+03  0.21953834261E+03  0.00000000000E+00 0.  1.
         25    1    1    2    0    0 -0.16235336100E+03 -0.66479282527E+02  0.16336039513E+03  0.27035111898E+03  0.12500000000E+03 0.  0.
         25    1    1    2    0    0  0.25257249212E+02  0.31299351970E+02  0.29905559630E+02  0.13467338478E+03  0.12500000000E+03 0.  0.
         25    1    1    2    0    0  0.13709611179E+03  0.35179930557E+02 -0.35227201714E+02  0.19209093451E+03  0.12500000000E+03 0.  0.
</event>
<event>
 5    0  0.5728184E-005  0.2465886E+03  0.7546771E-02  0.1115480E+00
         21   -1    0    0  502  501  0.00000000000E+00  0.00000000000E+00  0.21980399594E+03  0.21980399594E+03  0.00000000000E+00 0. -1.
         21   -1    0    0  501  502 -0.00000000000E+00 -0.00000000000E+00 -0.27663698710E+03  0.27663698710E+03  0.00000000000E+00 0. -1.
         25    1    1    2    0    0 -0.44588382590E+02  0.25567498078E+02 -0.10852540235E+02  0.13558981691E+03  0.12500000000E+03 0.  0.
         25    1    1    2    0    0  0.43130410407E+02 -0.53779043740E+02 -0.14151550859E+03  0.20100760438E+03  0.12500000000E+03 0.  0.
         25    1    1    2    0    0  0.14579721830E+01  0.28211545662E+02  0.95535057668E+02  0.15984356176E+03  0.12500000000E+03 0.  0.
</event>
<event>
 5    0  0.5728184E-005  0.3371478E+03  0.7546771E-02  0.1068017E+00
         21   -1    0    0  502  501  0.00000000000E+00  0.00000000000E+00  0.22103852175E+03  0.22103852175E+03  0.00000000000E+00 0.  1.
         21   -1    0    0  501  502 -0.00000000000E+00 -0.00000000000E+00 -0.51424800018E+03  0.51424800018E+03  0.00000000000E+00 0.  1.
         25    1    1    2    0    0 -0.48270247821E+02 -0.63438359337E+02 -0.30178438613E+03  0.33623393341E+03  0.12500000000E+03 0.  0.
         25    1    1    2    0    0  0.14213372512E+03  0.12368100865E+03  0.37060665085E+02  0.22912328693E+03  0.12500000000E+03 0.  0.
         25    1    1    2    0    0 -0.93863477300E+02 -0.60242649311E+02 -0.28485757378E+02  0.16992930159E+03  0.12500000000E+03 0.  0.
</event>
<event>
 5    0  0.5728184E-005  0.3635037E+03  0.7546771E-02  0.1057205E+00
         21   -1    0    0  502  501  0.00000000000E+00  0.00000000000E+00  0.10207071092E+04  0.10207071092E+04  0.00000000000E+00 0. -1.
         21   -1    0    0  501  502 -0.00000000000E+00 -0.00000000000E+00 -0.12945433003E+03  0.12945433003E+03  0.00000000000E+00 0. -1.
         25    1    1    2    0    0  0.43194387839E+02  0.10161318169E+03  0.95444197002E+02  0.19216031998E+03  0.12500000000E+03 0.  0.
         25    1    1    2    0    0 -0.27071939225E+02 -0.65880869706E+02  0.81321848686E+03  0.82584652706E+03  0.12500000000E+03 0.  0.
         25    1    1    2    0    0 -0.16122448613E+02 -0.35732311982E+02 -0.17409904640E+02  0.13215459223E+03  0.12500000000E+03 0.  0.
</event>
<event>
 5    0  0.6262898E-005  0.3781267E+03  0.7546771E-02  0.1051628E+00
         21   -1    0    0  502  501  0.00000000000E+00  0.00000000000E+00  0.51864127649E+03  0.51864127649E+03  0.00000000000E+00 0.  1.
         21   -1    0    0  501  502 -0.00000000000E+00 -0.00000000000E+00 -0.27568145923E+03  0.27568145923E+03  0.00000000000E+00 0.  1.
         25    1    1    2    0    0  0.19900637549E+03  0.10448203149E+02  0.16678263054E+03  0.28836460997E+03  0.12500000000E+03 0.  0.
         25    1    1    2    0    0  0.35761733414E+02 -0.18146269614E+02 -0.11803418304E+03  0.17653684330E+03  0.12500000000E+03 0.  0.
         25    1    1    2    0    0 -0.23476810890E+03  0.76980664652E+01  0.19421136976E+03  0.32942128244E+03  0.12500000000E+03 0.  0.
</event>
<event>
 5    0  0.5728184E-005  0.3274551E+03  0.7546771E-02  0.1072268E+00
         21   -1    0    0  502  501  0.00000000000E+00  0.00000000000E+00  0.30584281764E+03  0.30584281764E+03  0.00000000000E+00 0. -1.
         21   -1    0    0  501  502 -0.00000000000E+00 -0.00000000000E+00 -0.35059466520E+03  0.35059466520E+03  0.00000000000E+00 0. -1.
         25    1    1    2    0    0  0.72945885908E+02 -0.81216701487E+02  0.44582338167E+02  0.17184248528E+03  0.12500000000E+03 0.  0.
         25    1    1    2    0    0 -0.19757862683E+03  0.13733370693E+03  0.15806699729E+02  0.27161132634E+03  0.12500000000E+03 0.  0.
         25    1    1    2    0    0  0.12463274092E+03 -0.56117005446E+02 -0.10514088546E+03  0.21298367122E+03  0.12500000000E+03 0.  0.
</event>
<event>
 5    0  0.5728184E-005  0.3553174E+03  0.7546771E-02  0.1060453E+00
         21   -1    0    0  502  501  0.00000000000E+00  0.00000000000E+00  0.23800738692E+03  0.23800738692E+03  0.00000000000E+00 0. -1.
         21   -1    0    0  501  502 -0.00000000000E+00 -0.00000000000E+00 -0.53044767561E+03  0.53044767561E+03  0.00000000000E+00 0. -1.
         25    1    1    2    0    0  0.49821964558E+02 -0.12084730188E+03  0.73991078194E+02  0.19541232862E+03  0.12500000000E+03 0.  0.
         25    1    1    2    0    0 -0.38349989890E+02 -0.10652450226E+03 -0.21191593229E+03  0.27083491958E+03  0.12500000000E+03 0.  0.
         25    1    1    2    0    0 -0.11471974668E+02  0.22737180414E+03 -0.15451543460E+03  0.30220781434E+03  0.12500000000E+03 0.  0.
</event>
<event>
 5    0  0.6290256E-005  0.2657372E+03  0.7546771E-02  0.1103744E+00
         21   -1    0    0  502  501  0.00000000000E+00  0.00000000000E+00  0.21709059076E+03  0.21709059076E+03  0.00000000000E+00 0.  1.
         21   -1    0    0  501  502 -0.00000000000E+00 -0.00000000000E+00 -0.32528484223E+03  0.32528484223E+03  0.00000000000E+00 0.  1.
         25    1    1    2    0    0 -0.56221296353E+02 -0.37383653756E+02  0.36074379086E+02  0.14657671220E+03  0.12500000000E+03 0.  0.
         25    1    1    2    0    0 -0.45055609755E+02 -0.79526763842E+02 -0.86663671762E+01  0.15509551914E+03  0.12500000000E+03 0.  0.
         25    1    1    2    0    0  0.10127690611E+03  0.11691041760E+03 -0.13560226337E+03  0.24070320165E+03  0.12500000000E+03 0.  0.
</event>
<event>
 5    0  0.5750741E-005  0.2875831E+03  0.7546771E-02  0.1091618E+00
         21   -1    0    0  502  501  0.00000000000E+00  0.00000000000E+00  0.11762560112E+03  0.11762560112E+03  0.00000000000E+00 0.  1.
         21   -1    0    0  501  502 -0.00000000000E+00 -0.00000000000E+00 -0.70311271277E+03  0.70311271277E+03  0.00000000000E+00 0.  1.
         25    1    1    2    0    0 -0.12580676616E+03  0.58318718369E+02 -0.23302659861E+03  0.29858802887E+03  0.12500000000E+03 0.  0.
         25    1    1    2    0    0 -0.92304176961E+01  0.75531693117E+02 -0.78658371297E+02  0.16613962998E+03  0.12500000000E+03 0.  0.
         25    1    1    2    0    0  0.13503718386E+03 -0.13385041149E+03 -0.27380214174E+03  0.35601065504E+03  0.12500000000E+03 0.  0.
</event>
<event>
 5    0  0.5728184E-005  0.2764620E+03  0.7546771E-02  0.1097637E+00
         21   -1    0    0  502  501  0.00000000000E+00  0.00000000000E+00  0.82047895943E+03  0.82047895943E+03  0.00000000000E+00 0. -1.
         21   -1    0    0  501  502 -0.00000000000E+00 -0.00000000000E+00 -0.93154410513E+02  0.93154410513E+02  0.00000000000E+00 0. -1.
         25    1    1    2    0    0 -0.34827910058E+02 -0.16082374982E+03  0.44650786019E+03  0.49200765343E+03  0.12500000000E+03 0.  0.
         25    1    1    2    0    0 -0.11358082390E+02  0.12140088376E+03  0.17221076890E+03  0.24525237928E+03  0.12500000000E+03 0.  0.
         25    1    1    2    0    0  0.46185992448E+02  0.39422866060E+02  0.10860591982E+03  0.17637333723E+03  0.12500000000E+03 0.  0.
</event>
<event>
 5    0  0.5728184E-005  0.2607323E+03  0.7546771E-02  0.1106704E+00
         21   -1    0    0  502  501  0.00000000000E+00  0.00000000000E+00  0.23461328337E+04  0.23461328337E+04  0.00000000000E+00 0. -1.
         21   -1    0    0  501  502 -0.00000000000E+00 -0.00000000000E+00 -0.28975911392E+02  0.28975911392E+02  0.00000000000E+00 0. -1.
         25    1    1    2    0    0 -0.88000834195E+02 -0.19482290921E+02  0.90285539766E+03  0.91591297379E+03  0.12500000000E+03 0.  0.
         25    1    1    2    0    0 -0.35027808935E+02 -0.67375962054E+02  0.83535060251E+03  0.84805783811E+03  0.12500000000E+03 0.  0.
         25    1    1    2    0    0  0.12302864313E+03  0.86858252975E+02  0.57895092213E+03  0.61113793318E+03  0.12500000000E+03 0.  0.
</event>
<event>
 5    0  0.5728184E-005  0.2492479E+03  0.7546771E-02  0.1113781E+00
         21   -1    0    0  502  501  0.00000000000E+00  0.00000000000E+00  0.10497350995E+04  0.10497350995E+04  0.00000000000E+00 0.  1.
         21   -1    0    0  501  502 -0.00000000000E+00 -0.00000000000E+00 -0.59181136597E+02  0.59181136597E+02  0.00000000000E+00 0.  1.
         25    1    1    2    0    0 -0.33108177731E+02 -0.42200954764E+02  0.19304347429E+03  0.23615218606E+03  0.12500000000E+03 0.  0.
         25    1    1    2    0    0  0.20316869847E+02 -0.65737678612E+02  0.59123985472E+03  0.60821360014E+03  0.12500000000E+03 0.  0.
         25    1    1    2    0    0  0.12791307884E+02  0.10793863338E+03  0.20627063389E+03  0.26455044989E+03  0.12500000000E+03 0.  0.
</event>
<event>
 5    0  0.5728184E-005  0.2629590E+03  0.7546771E-02  0.1105378E+00
         21   -1    0    0  502  501  0.00000000000E+00  0.00000000000E+00  0.12751069721E+03  0.12751069721E+03  0.00000000000E+00 0.  1.
         21   -1    0    0  501  502 -0.00000000000E+00 -0.00000000000E+00 -0.54228750483E+03  0.54228750483E+03  0.00000000000E+00 0.  1.
         25    1    1    2    0    0  0.13593921352E+02 -0.27144073987E+02 -0.35371237164E+03  0.37637619120E+03  0.12500000000E+03 0.  0.
         25    1    1    2    0    0 -0.35727301321E+02  0.71367111712E+02 -0.68185645120E+01  0.14846278158E+03  0.12500000000E+03 0.  0.
         25    1    1    2    0    0  0.22133379969E+02 -0.44223037725E+02 -0.54245871460E+02  0.14495922925E+03  0.12500000000E+03 0.  0.
</event>
<event>
 5    0  0.5728184E-005  0.2442393E+03  0.7546771E-02  0.1117001E+00
         21   -1    0    0  502  501  0.00000000000E+00  0.00000000000E+00  0.88083983890E+02  0.88083983890E+02  0.00000000000E+00 0.  1.
         21   -1    0    0  501  502 -0.00000000000E+00 -0.00000000000E+00 -0.67722697038E+03  0.67722697038E+03  0.00000000000E+00 0.  1.
         25    1    1    2    0    0  0.17137109773E+02 -0.15316903324E+02 -0.30692997152E+03  0.33220369576E+03  0.12500000000E+03 0.  0.
         25    1    1    2    0    0  0.34379149503E+02  0.62823867541E+01 -0.11408118864E+02  0.13029405006E+03  0.12500000000E+03 0.  0.
         25    1    1    2    0    0 -0.51516259277E+02  0.90345165699E+01 -0.27080489610E+03  0.30281320845E+03  0.12500000000E+03 0.  0.
</event>
<event>
 5    0  0.5728184E-005  0.2498073E+03  0.7546771E-02  0.1113427E+00
         21   -1    0    0  502  501  0.00000000000E+00  0.00000000000E+00  0.89748959331E+02  0.89748959331E+02  0.00000000000E+00 0. -1.
         21   -1    0    0  501  502 -0.00000000000E+00 -0.00000000000E+00 -0.69531397465E+03  0.69531397465E+03  0.00000000000E+00 0. -1.
         25    1    1    2    0    0  0.43712711803E+02  0.30713130719E+02 -0.82108081915E+02  0.15881068820E+03  0.12500000000E+03 0.  0.
         25    1    1    2    0    0 -0.56721835680E+02 -0.99698786180E+02 -0.40904228894E+03  0.44282932237E+03  0.12500000000E+03 0.  0.
         25    1    1    2    0    0  0.13009123878E+02  0.68985655461E+02 -0.11441464446E+03  0.18342292341E+03  0.12500000000E+03 0.  0.
</event>
<event>
 5    0  0.5728184E-005  0.5848784E+03  0.7546771E-02  0.9937285E-01
         21   -1    0    0  502  501  0.00000000000E+00  0.00000000000E+00  0.11349915653E+04  0.11349915653E+04  0.00000000000E+00 0.  1.
         21   -1    0    0  501  502 -0.00000000000E+00 -0.00000000000E+00 -0.30139673283E+03  0.30139673283E+03  0.00000000000E+00 0.  1.
         25    1    1    2    0    0 -0.38438476927E+03  0.79616881802E+01  0.33523979506E+03  0.52519116474E+03  0.12500000000E+03 0.  0.
         25    1    1    2    0    0 -0.10582739587E+03  0.68468786431E+01 -0.43643193429E+02  0.16963503706E+03  0.12500000000E+03 0.  0.
         25    1    1    2    0    0  0.49021216514E+03 -0.14808566823E+02  0.54199823088E+03  0.74156209638E+03  0.12500000000E+03 0.  0.
</event>
<event>
 5    0  0.5728184E-005  0.3912057E+03  0.7546771E-02  0.1046868E+00
         21   -1    0    0  502  501  0.00000000000E+00  0.00000000000E+00  0.64660344533E+03  0.64660344533E+03  0.00000000000E+00 0.  1.
         21   -1    0    0  501  502 -0.00000000000E+00 -0.00000000000E+00 -0.23668584032E+03  0.23668584032E+03  0.00000000000E+00 0.  1.
         25    1    1    2    0    0 -0.59649132551E+02  0.93778818505E+00 -0.11801778458E+03  0.18196729359E+03  0.12500000000E+03 0.  0.
         25    1    1    2    0    0  0.13747779538E+03 -0.12597826262E+03  0.42922540548E+03  0.48438632886E+03  0.12500000000E+03 0.  0.
         25    1    1    2    0    0 -0.77828662830E+02  0.12504047443E+03  0.98709984116E+02  0.21693566320E+03  0.12500000000E+03 0.  0.
</event>
<event>
 5    0  0.5728184E-005  0.2364552E+03  0.7546771E-02  0.1122177E+00
         21   -1    0    0  502  501  0.00000000000E+00  0.00000000000E+00  0.28139053756E+03  0.28139053756E+03  0.00000000000E+00 0.  1.
         21   -1    0    0  501  502 -0.00000000000E+00 -0.00000000000E+00 -0.19869568291E+03  0.19869568291E+03  0.00000000000E+00 0.  1.
         25    1    1    2    0    0  0.20812579557E+02 -0.48917651463E+02  0.88364563677E+02  0.16204751219E+03  0.12500000000E+03 0.  0.
         25    1    1    2    0    0  0.58124642200E+02  0.49337862127E+02 -0.63103518428E+02  0.15943573222E+03  0.12500000000E+03 0.  0.
         25    1    1    2    0    0 -0.78937221757E+02 -0.42021066435E+00  0.57433809397E+02  0.15860297607E+03  0.12500000000E+03 0.  0.
</event>
<event>
 5    0  0.5728184E-005  0.3839360E+03  0.7546771E-02  0.1049489E+00
         21   -1    0    0  502  501  0.00000000000E+00  0.00000000000E+00  0.18670206267E+03  0.18670206267E+03  0.00000000000E+00 0.  1.
         21   -1    0    0  501  502 -0.00000000000E+00 -0.00000000000E+00 -0.78952982324E+03  0.78952982324E+03  0.00000000000E+00 0.  1.
         25    1    1    2    0    0  0.26531984380E+02  0.86266974820E+01  0.14229121240E+02  0.12886362557E+03  0.12500000000E+03 0.  0.
         25    1    1    2    0    0  0.16395842986E+02  0.24928315373E+03 -0.21883634749E+03  0.35485949527E+03  0.12500000000E+03 0.  0.
         25    1    1    2    0    0 -0.42927827366E+02 -0.25790985121E+03 -0.39822053432E+03  0.49250876507E+03  0.12500000000E+03 0.  0.
</event>
<event>
 5    0  0.5728184E-005  0.4573546E+03  0.7546771E-02  0.1025551E+00
         21   -1    0    0  502  501  0.00000000000E+00  0.00000000000E+00  0.45754917643E+03  0.45754917643E+03  0.00000000000E+00 0. -1.
         21   -1    0    0  501  502 -0.00000000000E+00 -0.00000000000E+00 -0.45716019672E+03  0.45716019672E+03  0.00000000000E+00 0. -1.
         25    1    1    2    0    0  0.11097151837E+03  0.31187375842E+03 -0.11428490242E+03  0.37184130755E+03  0.12500000000E+03 0.  0.
         25    1    1    2    0    0  0.23445638402E+02 -0.32235997651E+03  0.67445429634E+02  0.35304325286E+03  0.12500000000E+03 0.  0.
         25    1    1    2    0    0 -0.13441715677E+03  0.10486218090E+02  0.47228452488E+02  0.18982481273E+03  0.12500000000E+03 0.  0.
</event>
<event>
 5    0  0.5728184E-005  0.2988166E+03  0.7546771E-02  0.1085834E+00
         21   -1    0    0  502  501  0.00000000000E+00  0.00000000000E+00  0.12942155425E+04  0.12942155425E+04  0.00000000000E+00 0.  1.
         21   -1    0    0  501  502 -0.00000000000E+00 -0.00000000000E+00 -0.68992644291E+02  0.68992644291E+02  0.00000000000E+00 0. -1.
         25    1    1    2    0    0 -0.15969433061E+03 -0.15592501827E+02  0.31253885839E+03  0.37289535174E+03  0.12500000000E+03 0.  0.
         25    1    1    2    0    0  0.59658634951E+02 -0.35639516439E+02  0.72236698749E+03  0.73638875091E+03  0.12500000000E+03 0.  0.
         25    1    1    2    0    0  0.10003569566E+03  0.51232018266E+02  0.19031705235E+03  0.25392408417E+03  0.12500000000E+03 0.  0.
</event>
<event>
 5    0  0.5728184E-005  0.2792220E+03  0.7546771E-02  0.1096115E+00
         21   -1    0    0  502  501  0.00000000000E+00  0.00000000000E+00  0.82986987008E+03  0.82986987008E+03  0.00000000000E+00 0. -1.
         21   -1    0    0  501  502 -0.00000000000E+00 -0.00000000000E+00 -0.93948405008E+02  0.93948405008E+02  0.00000000000E+00 0. -1.
         25    1    1    2    0    0 -0.16867538876E+03 -0.10578426219E+02  0.22431168426E+03  0.30741506399E+03  0.12500000000E+03 0.  0.
         25    1    1    2    0    0  0.17109902530E+03 -0.62250196285E+01  0.26459524734E+03  0.33904169691E+03  0.12500000000E+03 0.  0.
         25    1    1    2    0    0 -0.24236365448E+01  0.16803445847E+02  0.24701453348E+03  0.27736151419E+03  0.12500000000E+03 0.  0.
</event>
<event>
 5    0  0.5728184E-005  0.2710261E+03  0.7546771E-02  0.1100694E+00
         21   -1    0    0  502  501  0.00000000000E+00  0.00000000000E+00  0.21255157894E+04  0.21255157894E+04  0.00000000000E+00 0. -1.
         21   -1    0    0  501  502 -0.00000000000E+00 -0.00000000000E+00 -0.34558741961E+02  0.34558741961E+02  0.00000000000E+00 0. -1.
         25    1    1    2    0    0  0.46385910372E+02 -0.65693760186E+01  0.23460841043E+03  0.26992761183E+03  0.12500000000E+03 0.  0.
         25    1    1    2    0    0  0.13651019632E+02  0.10843250347E+03  0.12079019712E+04  0.12192604850E+04  0.12500000000E+03 0.  0.
         25    1    1    2    0    0 -0.60036930004E+02 -0.10186312746E+03  0.64844666577E+03  0.67088643454E+03  0.12500000000E+03 0.  0.
</event>
<event>
 5    0  0.5728184E-005  0.3311662E+03  0.7546771E-02  0.1070622E+00
         21   -1    0    0  502  501  0.00000000000E+00  0.00000000000E+00  0.13986608607E+03  0.13986608607E+03  0.00000000000E+00 0.  1.
         21   -1    0    0  501  502 -0.00000000000E+00 -0.00000000000E+00 -0.78411451705E+03  0.78411451705E+03  0.00000000000E+00 0.  1.
         25    1    1    2    0    0  0.23275049745E+03 -0.30482183397E+02 -0.39282542074E+03  0.47438251311E+03  0.12500000000E+03 0.  0.
         25    1    1    2    0    0 -0.19546078380E+03  0.29052699552E+02 -0.11405714434E+03  0.26015958473E+03  0.12500000000E+03 0.  0.
         25    1    1    2    0    0 -0.37289713649E+02  0.14294838452E+01 -0.13736586590E+03  0.18943850528E+03  0.12500000000E+03 0.  0.
</event>
<event>
 5    0  0.5728184E-005  0.3334289E+03  0.7546771E-02  0.1069630E+00
         21   -1    0    0  502  501  0.00000000000E+00  0.00000000000E+00  0.28015869512E+04  0.28015869512E+04  0.00000000000E+00 0. -1.
         21   -1    0    0  501  502 -0.00000000000E+00 -0.00000000000E+00 -0.39682817173E+02  0.39682817173E+02  0.00000000000E+00 0. -1.
         25    1    1    2    0    0 -0.97039620044E+02  0.30301706197E+02  0.74528967867E+03  0.76250677793E+03  0.12500000000E+03 0.  0.
         25    1    1    2    0    0  0.10828134096E+03  0.91311383848E+02  0.17487938385E+04  0.17589677391E+04  0.12500000000E+03 0.  0.
         25    1    1    2    0    0 -0.11241720911E+02 -0.12161309005E+03  0.26782061677E+03  0.31979525126E+03  0.12500000000E+03 0.  0.
</event>
<event>
 5    0  0.5728184E-005  0.3092943E+03  0.7546771E-02  0.1080685E+00
         21   -1    0    0  502  501  0.00000000000E+00  0.00000000000E+00  0.85961341760E+03  0.85961341760E+03  0.00000000000E+00 0.  1.
         21   -1    0    0  501  502 -0.00000000000E+00 -0.00000000000E+00 -0.11128605375E+03  0.11128605375E+03  0.00000000000E+00 0.  1.
         25    1    1    2    0    0  0.69245442392E+02  0.37122288138E+00  0.66983952886E+02  0.15781926068E+03  0.12500000000E+03 0.  0.
         25    1    1    2    0    0 -0.17502400464E+03 -0.11300966732E+03  0.41274273087E+03  0.47894274083E+03  0.12500000000E+03 0.  0.
         25    1    1    2    0    0  0.10577856225E+03  0.11263844444E+03  0.26860068010E+03  0.33413746984E+03  0.12500000000E+03 0.  0.
</event>
<event>
 5    0  0.5728184E-005  0.2953592E+03  0.7546771E-02  0.1087584E+00
         21   -1    0    0  502  501  0.00000000000E+00  0.00000000000E+00  0.13296782405E+04  0.13296782405E+04  0.00000000000E+00 0.  1.
         21   -1    0    0  501  502 -0.00000000000E+00 -0.00000000000E+00 -0.65607649328E+02  0.65607649328E+02  0.00000000000E+00 0.  1.
         25    1    1    2    0    0 -0.86291391958E+02 -0.39232818098E+02  0.26398242696E+03  0.30707839404E+03  0.12500000000E+03 0.  0.
         25    1    1    2    0    0 -0.10302675078E+03 -0.68004056913E+02  0.35667147178E+03  0.39759099828E+03  0.12500000000E+03 0.  0.
         25    1    1    2    0    0  0.18931814274E+03  0.10723687501E+03  0.64341669247E+03  0.69061649755E+03  0.12500000000E+03 0.  0.
</event>
<event>
 5    0  0.5728184E-005  0.2640382E+03  0.7546771E-02  0.1104741E+00
         21   -1    0    0  502  501  0.00000000000E+00  0.00000000000E+00  0.16513898602E+03  0.16513898602E+03  0.00000000000E+00 0.  1.
         21   -1    0    0  501  502 -0.00000000000E+00 -0.00000000000E+00 -0.42216649063E+03  0.42216649063E+03  0.00000000000E+00 0.  1.
         25    1    1    2    0    0 -0.71889322282E+02  0.78769180066E+02 -0.17119616923E+03  0.23728840415E+03  0.12500000000E+03 0.  0.
         25    1    1    2    0    0 -0.25864816128E+02 -0.11747686357E+03 -0.65443109355E+02  0.18541198114E+03  0.12500000000E+03 0.  0.
         25    1    1    2    0    0  0.97754138410E+02  0.38707683506E+02 -0.20388226027E+02  0.16460509135E+03  0.12500000000E+03 0.  0.
</event>
<event>
 5    0  0.5728184E-005  0.3628826E+03  0.7546771E-02  0.1057448E+00
         21   -1    0    0  502  501  0.00000000000E+00  0.00000000000E+00  0.66739894727E+03  0.66739894727E+03  0.00000000000E+00 0.  1.
         21   -1    0    0  501  502 -0.00000000000E+00 -0.00000000000E+00 -0.19730892311E+03  0.19730892311E+03  0.00000000000E+00 0.  1.
         25    1    1    2    0    0 -0.12813278906E+03 -0.85708228012E+01 -0.81425076661E+02  0.19684134155E+03  0.12500000000E+03 0.  0.
         25    1    1    2    0    0  0.99375009246E+02 -0.28452193069E+02  0.86010334091E+02  0.18359656131E+03  0.12500000000E+03 0.  0.
         25    1    1    2    0    0  0.28757779810E+02  0.37023015870E+02  0.46550476673E+03  0.48426996753E+03  0.12500000000E+03 0.  0.
</event>
<event>
 5    0  0.5728184E-005  0.7463236E+03  0.7546771E-02  0.9641136E-01
         21   -1    0    0  502  501  0.00000000000E+00  0.00000000000E+00  0.49148540215E+03  0.49148540215E+03  0.00000000000E+00 0.  1.
         21   -1    0    0  501  502 -0.00000000000E+00 -0.00000000000E+00 -0.11332970979E+04  0.11332970979E+04  0.00000000000E+00 0.  1.
         25    1    1    2    0    0  0.15677052862E+03 -0.11812822989E+02 -0.19390655500E+03  0.27917967961E+03  0.12500000000E+03 0.  0.
         25    1    1    2    0    0 -0.48491612512E+03  0.39750222029E+03  0.27379764857E+02  0.63994243105E+03  0.12500000000E+03 0.  0.
         25    1    1    2    0    0  0.32814559649E+03 -0.38568939730E+03 -0.47528490564E+03  0.70566038944E+03  0.12500000000E+03 0.  0.
</event>
<event>
 5    0  0.5728184E-005  0.2258145E+03  0.7546771E-02  0.1129621E+00
         21   -1    0    0  502  501  0.00000000000E+00  0.00000000000E+00  0.28558227607E+03  0.28558227607E+03  0.00000000000E+00 0.  1.
         21   -1    0    0  501  502 -0.00000000000E+00 -0.00000000000E+00 -0.17855514463E+03  0.17855514463E+03  0.00000000000E+00 0.  1.
         25    1    1    2    0    0  0.67918171094E+02  0.46255992352E+02  0.61162864739E+02  0.16161185234E+03  0.12500000000E+03 0.  0.
         25    1    1    2    0    0 -0.86789531987E+02 -0.15406004120E+02 -0.24008646859E+02  0.15482629928E+03  0.12500000000E+03 0.  0.
         25    1    1    2    0    0  0.18871360893E+02 -0.30849988231E+02  0.69872913560E+02  0.14769926907E+03  0.12500000000E+03 0.  0.
</event>
<event>
 5    0  0.5728184E-005  0.6064055E+03  0.7546771E-02  0.9892205E-01
         21   -1    0    0  502  501  0.00000000000E+00  0.00000000000E+00  0.26182308588E+03  0.26182308588E+03  0.00000000000E+00 0.  1.
         21   -1    0    0  501  502 -0.00000000000E+00 -0.00000000000E+00 -0.14044889181E+04  0.14044889181E+04  0.00000000000E+00 0.  1.
         25    1    1    2    0    0 -0.15566365363E+03  0.16674903901E+03 -0.10055551550E+04  0.10386542181E+04  0.12500000000E+03 0.  0.
         25    1    1    2    0    0  0.20414923689E+03 -0.32287215623E+02 -0.29459874461E+03  0.38096298447E+03  0.12500000000E+03 0.  0.
         25    1    1    2    0    0 -0.48485583263E+02 -0.13446182339E+03  0.15748806729E+03  0.24669480147E+03  0.12500000000E+03 0.  0.
</event>
<event>
 5    0  0.6786586E-005  0.2977897E+03  0.7546771E-02  0.1086351E+00
         21   -1    0    0  502  501  0.00000000000E+00  0.00000000000E+00  0.31255465240E+03  0.31255465240E+03  0.00000000000E+00 0. -1.
         21   -1    0    0  501  502 -0.00000000000E+00 -0.00000000000E+00 -0.28372232142E+03  0.28372232142E+03  0.00000000000E+00 0. -1.
         25    1    1    2    0    0 -0.81047481722E+02  0.89369900440E+01  0.55236591947E+02  0.15913718979E+03  0.12500000000E+03 0.  0.
         25    1    1    2    0    0  0.17987824447E+03 -0.28416755740E+02  0.90340421177E+02  0.23864217259E+03  0.12500000000E+03 0.  0.
         25    1    1    2    0    0 -0.98830762752E+02  0.19479765696E+02 -0.11674468214E+03  0.19849761144E+03  0.12500000000E+03 0.  0.
</event>
<event>
 5    0  0.5728184E-005  0.3093893E+03  0.7546771E-02  0.1080639E+00
         21   -1    0    0  502  501  0.00000000000E+00  0.00000000000E+00  0.15833348242E+03  0.15833348242E+03  0.00000000000E+00 0.  1.
         21   -1    0    0  501  502 -0.00000000000E+00 -0.00000000000E+00 -0.60455789682E+03  0.60455789682E+03  0.00000000000E+00 0.  1.
         25    1    1    2    0    0 -0.97639253289E+02 -0.52446753855E+02 -0.21177298696E+02  0.16839704200E+03  0.12500000000E+03 0.  0.
         25    1    1    2    0    0 -0.96048606369E+02 -0.80164061522E+01 -0.85072999221E+02  0.17930982335E+03  0.12500000000E+03 0.  0.
         25    1    1    2    0    0  0.19368785966E+03  0.60463160007E+02 -0.33997411649E+03  0.41518451390E+03  0.12500000000E+03 0.  0.
</event>
<event>
 5    0  0.5728184E-005  0.3541615E+03  0.7546771E-02  0.1060920E+00
         21   -1    0    0  502  501  0.00000000000E+00  0.00000000000E+00  0.31167363773E+03  0.31167363773E+03  0.00000000000E+00 0. -1.
         21   -1    0    0  501  502 -0.00000000000E+00 -0.00000000000E+00 -0.40244127517E+03  0.40244127517E+03  0.00000000000E+00 0. -1.
         25    1    1    2    0    0 -0.10116088043E+03 -0.95572860941E+01  0.81371327135E+02  0.18047481355E+03  0.12500000000E+03 0.  0.
         25    1    1    2    0    0  0.23213434653E+03  0.35260219787E+02 -0.21935555565E+03  0.34477746117E+03  0.12500000000E+03 0.  0.
         25    1    1    2    0    0 -0.13097346610E+03 -0.25702933693E+02  0.47216591073E+02  0.18886263817E+03  0.12500000000E+03 0.  0.
</event>
<event>
 5    0  0.5728184E-005  0.6033279E+03  0.7546771E-02  0.9898526E-01
         21   -1    0    0  502  501  0.00000000000E+00  0.00000000000E+00  0.28412153804E+03  0.28412153804E+03  0.00000000000E+00 0.  1.
         21   -1    0    0  501  502 -0.00000000000E+00 -0.00000000000E+00 -0.12811580100E+04  0.12811580100E+04  0.00000000000E+00 0.  1.
         25    1    1    2    0    0 -0.31437691316E+03  0.37368570513E+03 -0.16305664946E+03  0.52979837738E+03  0.12500000000E+03 0.  0.
         25    1    1    2    0    0  0.22367268522E+03 -0.78794175824E+02 -0.26927984820E+03  0.37996661552E+03  0.12500000000E+03 0.  0.
         25    1    1    2    0    0  0.90704227931E+02 -0.29489152930E+03 -0.56469997431E+03  0.65551455514E+03  0.12500000000E+03 0.  0.
</event>
<event>
 5    0  0.5728184E-005  0.2155096E+03  0.7546771E-02  0.1137276E+00
         21   -1    0    0  502  501  0.00000000000E+00  0.00000000000E+00  0.10617801538E+03  0.10617801538E+03  0.00000000000E+00 0. -1.
         21   -1    0    0  501  502 -0.00000000000E+00 -0.00000000000E+00 -0.43741980488E+03  0.43741980488E+03  0.00000000000E+00 0. -1.
         25    1    1    2    0    0  0.44097052421E+01  0.15170465209E+02 -0.18744174500E+03  0.22585171304E+03  0.12500000000E+03 0.  0.
         25    1    1    2    0    0  0.44435804479E+02 -0.52503582954E+02 -0.57154982253E+02  0.15369729646E+03  0.12500000000E+03 0.  0.
         25    1    1    2    0    0 -0.48845509721E+02  0.37333117746E+02 -0.86645062242E+02  0.16404881076E+03  0.12500000000E+03 0.  0.
</event>
<event>
 5    0  0.5728184E-005  0.3184821E+03  0.7546771E-02  0.1076350E+00
         21   -1    0    0  502  501  0.00000000000E+00  0.00000000000E+00  0.11823095102E+03  0.11823095102E+03  0.00000000000E+00 0. -1.
         21   -1    0    0  501  502 -0.00000000000E+00 -0.00000000000E+00 -0.85790444003E+03  0.85790444003E+03  0.00000000000E+00 0. -1.
         25    1    1    2    0    0  0.23052629964E+02 -0.88051131171E+02 -0.11775274040E+03  0.19435826023E+03  0.12500000000E+03 0.  0.
         25    1    1    2    0    0 -0.20634598145E+03  0.63657274997E+02 -0.35342867525E+03  0.43262887237E+03  0.12500000000E+03 0.  0.
         25    1    1    2    0    0  0.18329335149E+03  0.24393856174E+02 -0.26849207336E+03  0.34914825845E+03  0.12500000000E+03 0.  0.
</event>
<event>
 5    0  0.5728184E-005  0.2095524E+03  0.7546771E-02  0.1141921E+00
         21   -1    0    0  502  501  0.00000000000E+00  0.00000000000E+00  0.17242036038E+03  0.17242036038E+03  0.00000000000E+00 0. -1.
         21   -1    0    0  501  502 -0.00000000000E+00 -0.00000000000E+00 -0.25468113595E+03  0.25468113595E+03  0.00000000000E+00 0. -1.
         25    1    1    2    0    0 -0.50879250199E+02 -0.43748294906E+02 -0.52097067297E+02  0.15113476049E+03  0.12500000000E+03 0.  0.
         25    1    1    2    0    0 -0.10395138413E+02  0.80650681398E+01 -0.40047494578E+02  0.13191628424E+03  0.12500000000E+03 0.  0.
         25    1    1    2    0    0  0.61274388613E+02  0.35683226766E+02  0.98837863067E+01  0.14405045159E+03  0.12500000000E+03 0.  0.
</event>
<event>
 5    0  0.5728184E-005  0.4453718E+03  0.7546771E-02  0.1029111E+00
         21   -1    0    0  502  501  0.00000000000E+00  0.00000000000E+00  0.17207356955E+03  0.17207356955E+03  0.00000000000E+00 0.  1.
         21   -1    0    0  501  502 -0.00000000000E+00 -0.00000000000E+00 -0.11527394916E+04  0.11527394916E+04  0.00000000000E+00 0.  1.
         25    1    1    2    0    0  0.15679243065E+03  0.78151897514E+02 -0.19473579636E+03  0.29023889432E+03  0.12500000000E+03 0.  0.
         25    1    1    2    0    0 -0.72703682012E+02 -0.34067815762E+03 -0.42845719045E+03  0.56616958281E+03  0.12500000000E+03 0.  0.
         25    1    1    2    0    0 -0.84088748636E+02  0.26252626010E+03 -0.35747293522E+03  0.46840458399E+03  0.12500000000E+03 0.  0.
</event>
<event>
 5    0  0.5728184E-005  0.5380922E+03  0.7546771E-02  0.1004288E+00
         21   -1    0    0  502  501  0.00000000000E+00  0.00000000000E+00  0.11433387092E+04  0.11433387092E+04  0.00000000000E+00 0.  1.
         21   -1    0    0  501  502 -0.00000000000E+00 -0.00000000000E+00 -0.25324358755E+03  0.25324358755E+03  0.00000000000E+00 0.  1.
         25    1    1    2    0    0  0.18374333804E+03  0.19681953674E+03  0.89710913236E+03  0.94494938471E+03  0.12500000000E+03 0.  0.
         25    1    1    2    0    0 -0.23415856706E+02 -0.45978914344E+01 -0.94480028087E+02  0.15849580013E+03  0.12500000000E+03 0.  0.
         25    1    1    2    0    0 -0.16032748133E+03 -0.19222164531E+03  0.87466017422E+02  0.29313711194E+03  0.12500000000E+03 0.  0.
</event>
<event>
 5    0  0.5728184E-005  0.3454051E+03  0.7546771E-02  0.1064517E+00
         21   -1    0    0  502  501  0.00000000000E+00  0.00000000000E+00  0.39681482217E+03  0.39681482217E+03  0.00000000000E+00 0. -1.
         21   -1    0    0  501  502 -0.00000000000E+00 -0.00000000000E+00 -0.30065574984E+03  0.30065574984E+03  0.00000000000E+00 0. -1.
         25    1    1    2    0    0  0.79896371718E+01 -0.15534099108E+03  0.29982737655E+02  0.20178855857E+03  0.12500000000E+03 0.  0.
         25    1    1    2    0    0 -0.10488847467E+03  0.46972717013E+02 -0.13563113314E+03  0.21732195595E+03  0.12500000000E+03 0.  0.
         25    1    1    2    0    0  0.96898837499E+02  0.10836827407E+03  0.20180746782E+03  0.27836005748E+03  0.12500000000E+03 0.  0.
</event>
<event>
 5    0  0.5728184E-005  0.3222862E+03  0.7546771E-02  0.1074602E+00
         21   -1    0    0  502  501  0.00000000000E+00  0.00000000000E+00  0.16902780691E+04  0.16902780691E+04  0.00000000000E+00 0. -1.
         21   -1    0    0  501  502 -0.00000000000E+00 -0.00000000000E+00 -0.61450494606E+02  0.61450494606E+02  0.00000000000E+00 0.  1.
         25    1    1    2    0    0  0.15732865501E+03  0.14034904243E+03  0.85944638830E+03  0.89371318316E+03  0.12500000000E+03 0.  0.
         25    1    1    2    0    0 -0.49813394240E+02 -0.48906623741E+02  0.13712092753E+03  0.19824323660E+03  0.12500000000E+03 0.  0.
         25    1    1    2    0    0 -0.10751526077E+03 -0.91442418687E+02  0.63226025863E+03  0.65977214391E+03  0.12500000000E+03 0.  0.
</event>
<event>
 5    0  0.5728184E-005  0.3908825E+03  0.7546771E-02  0.1046983E+00
         21   -1    0    0  502  501  0.00000000000E+00  0.00000000000E+00  0.66800201631E+02  0.66800201631E+02  0.00000000000E+00 0.  1.
         21   -1    0    0  501  502 -0.00000000000E+00 -0.00000000000E+00 -0.22872555535E+04  0.22872555535E+04  0.00000000000E+00 0.  1.
         25    1    1    2    0    0 -0.31953682830E+03 -0.24742354094E+02 -0.12908622613E+04  0.13359140490E+04  0.12500000000E+03 0.  0.
         25    1    1    2    0    0  0.15987828973E+03  0.23397954686E+02 -0.36560394301E+03  0.41880756316E+03  0.12500000000E+03 0.  0.
         25    1    1    2    0    0  0.15965853857E+03  0.13443994080E+01 -0.56398914755E+03  0.59933414295E+03  0.12500000000E+03 0.  0.
</event>
<event>
 5    0  0.5728184E-005  0.2682469E+03  0.7546771E-02  0.1102287E+00
         21   -1    0    0  502  501  0.00000000000E+00  0.00000000000E+00  0.17072236758E+03  0.17072236758E+03  0.00000000000E+00 0. -1.
         21   -1    0    0  501  502 -0.00000000000E+00 -0.00000000000E+00 -0.42148185394E+03  0.42148185394E+03  0.00000000000E+00 0. -1.
         25    1    1    2    0    0  0.70385970471E+02 -0.19958452711E+02 -0.18862663665E+02  0.14605931930E+03  0.12500000000E+03 0.  0.
         25    1    1    2    0    0  0.96152249595E+02 -0.42144501893E+02 -0.87037505973E+02  0.18499173384E+03  0.12500000000E+03 0.  0.
         25    1    1    2    0    0 -0.16653822007E+03  0.62102954604E+02 -0.14485931673E+03  0.26115316838E+03  0.12500000000E+03 0.  0.
</event>
<event>
 5    0  0.5728184E-005  0.2236915E+03  0.7546771E-02  0.1131160E+00
         21   -1    0    0  502  501  0.00000000000E+00  0.00000000000E+00  0.66756569172E+02  0.66756569172E+02  0.00000000000E+00 0.  1.
         21   -1    0    0  501  502 -0.00000000000E+00 -0.00000000000E+00 -0.74955774970E+03  0.74955774970E+03  0.00000000000E+00 0.  1.
         25    1    1    2    0    0  0.53492770379E+01  0.44477614834E+02 -0.27466758520E+03  0.30508057189E+03  0.12500000000E+03 0.  0.
         25    1    1    2    0    0 -0.84549458022E+01 -0.28081693368E+02 -0.34915668915E+03  0.37201540450E+03  0.12500000000E+03 0.  0.
         25    1    1    2    0    0  0.31056687643E+01 -0.16395921465E+02 -0.58976906179E+02  0.13921834248E+03  0.12500000000E+03 0.  0.
</event>
<event>
 5    0  0.5728184E-005  0.2488721E+03  0.7546771E-02  0.1114020E+00
         21   -1    0    0  502  501  0.00000000000E+00  0.00000000000E+00  0.14110379785E+03  0.14110379785E+03  0.00000000000E+00 0. -1.
         21   -1    0    0  501  502 -0.00000000000E+00 -0.00000000000E+00 -0.43894872766E+03  0.43894872766E+03  0.00000000000E+00 0. -1.
         25    1    1    2    0    0 -0.25745737607E+02  0.78542890975E+02 -0.11678384679E+03  0.18998761959E+03  0.12500000000E+03 0.  0.
         25    1    1    2    0    0 -0.47128304780E+02  0.50353135568E+02 -0.12114138302E+03  0.18723447881E+03  0.12500000000E+03 0.  0.
         25    1    1    2    0    0  0.72874042387E+02 -0.12889602654E+03 -0.59919699998E+02  0.20283042711E+03  0.12500000000E+03 0.  0.
</event>
<event>
 5    0  0.5728184E-005  0.3289916E+03  0.7546771E-02  0.1071584E+00
         21   -1    0    0  502  501  0.00000000000E+00  0.00000000000E+00  0.85449091255E+03  0.85449091255E+03  0.00000000000E+00 0. -1.
         21   -1    0    0  501  502 -0.00000000000E+00 -0.00000000000E+00 -0.12666658789E+03  0.12666658789E+03  0.00000000000E+00 0. -1.
         25    1    1    2    0    0  0.11462172814E+03  0.15865125420E+03  0.17449599687E+03  0.29048616825E+03  0.12500000000E+03 0.  0.
         25    1    1    2    0    0  0.11126385144E+02 -0.38455646411E+02  0.41602050962E+03  0.43623468180E+03  0.12500000000E+03 0.  0.
         25    1    1    2    0    0 -0.12574811329E+03 -0.12019560779E+03  0.13730781817E+03  0.25443665038E+03  0.12500000000E+03 0.  0.
</event>
<event>
 5    0  0.5728184E-005  0.4562157E+03  0.7546771E-02  0.1025885E+00
         21   -1    0    0  502  501  0.00000000000E+00  0.00000000000E+00  0.30158238927E+03  0.30158238927E+03  0.00000000000E+00 0.  1.
         21   -1    0    0  501  502 -0.00000000000E+00 -0.00000000000E+00 -0.69013560244E+03  0.69013560244E+03  0.00000000000E+00 0.  1.
         25    1    1    2    0    0  0.22725077624E+03  0.56610099894E+02 -0.24596634687E+03  0.36190062518E+03  0.12500000000E+03 0.  0.
         25    1    1    2    0    0 -0.59453075014E+01  0.20554714547E+03 -0.10564380691E+03  0.26281284144E+03  0.12500000000E+03 0.  0.
         25    1    1    2    0    0 -0.22130546874E+03 -0.26215724536E+03 -0.36943059388E+02  0.36700452508E+03  0.12500000000E+03 0.  0.
</event>
<event>
 5    0  0.5728184E-005  0.3622395E+03  0.7546771E-02  0.1057701E+00
         21   -1    0    0  502  501  0.00000000000E+00  0.00000000000E+00  0.67863892691E+03  0.67863892691E+03  0.00000000000E+00 0. -1.
         21   -1    0    0  501  502 -0.00000000000E+00 -0.00000000000E+00 -0.19335382738E+03  0.19335382738E+03  0.00000000000E+00 0. -1.
         25    1    1    2    0    0  0.26644747720E+03 -0.11485295831E+03  0.22524762451E+03  0.38800380473E+03  0.12500000000E+03 0.  0.
         25    1    1    2    0    0 -0.15116080536E+03 -0.19155433777E+01  0.16734085159E+03  0.25783952179E+03  0.12500000000E+03 0.  0.
         25    1    1    2    0    0 -0.11528667184E+03  0.11676850168E+03  0.92696623424E+02  0.22614942778E+03  0.12500000000E+03 0.  0.
</event>
<event>
 5    0  0.5728184E-005  0.3435514E+03  0.7546771E-02  0.1065293E+00
         21   -1    0    0  502  501  0.00000000000E+00  0.00000000000E+00  0.11614022377E+03  0.11614022377E+03  0.00000000000E+00 0.  1.
         21   -1    0    0  501  502 -0.00000000000E+00 -0.00000000000E+00 -0.10162502550E+04  0.10162502550E+04  0.00000000000E+00 0.  1.
         25    1    1    2    0    0 -0.58961215807E+02  0.92855384368E+02  0.41115238207E+01  0.16655465170E+03  0.12500000000E+03 0.  0.
         25    1    1    2    0    0 -0.65370349457E+02 -0.54557836127E+01 -0.42307508302E+03  0.44600512781E+03  0.12500000000E+03 0.  0.
         25    1    1    2    0    0  0.12433156526E+03 -0.87399600755E+02 -0.48114647201E+03  0.51983069923E+03  0.12500000000E+03 0.  0.
</event>
<event>
 5    0  0.5728184E-005  0.4933134E+03  0.7546771E-02  0.1015539E+00
         21   -1    0    0  502  501  0.00000000000E+00  0.00000000000E+00  0.95394211561E+03  0.95394211561E+03  0.00000000000E+00 0.  1.
         21   -1    0    0  501  502 -0.00000000000E+00 -0.00000000000E+00 -0.25510786575E+03  0.25510786575E+03  0.00000000000E+00 0.  1.
         25    1    1    2    0    0 -0.17656602986E+03  0.10515770567E+03  0.23206892177E+03  0.33423747607E+03  0.12500000000E+03 0.  0.
         25    1    1    2    0    0  0.22404872704E+03 -0.20725940896E+03  0.58334639588E+03  0.67012857892E+03  0.12500000000E+03 0.  0.
         25    1    1    2    0    0 -0.47482697184E+02  0.10210170329E+03 -0.11658106780E+03  0.20468392637E+03  0.12500000000E+03 0.  0.
</event>
<event>
 5    0  0.5728184E-005  0.3270897E+03  0.7546771E-02  0.1072432E+00
         21   -1    0    0  502  501  0.00000000000E+00  0.00000000000E+00  0.37439661423E+03  0.37439661423E+03  0.00000000000E+00 0. -1.
         21   -1    0    0  501  502 -0.00000000000E+00 -0.00000000000E+00 -0.28576020357E+03  0.28576020357E+03  0.00000000000E+00 0. -1.
         25    1    1    2    0    0  0.22026726702E+03 -0.27495338096E+02 -0.35612479444E+02  0.25722929699E+03  0.12500000000E+03 0.  0.
         25    1    1    2    0    0 -0.14398367357E+03 -0.74239204674E+02  0.75176583561E+02  0.21798916597E+03  0.12500000000E+03 0.  0.
         25    1    1    2    0    0 -0.76283593450E+02  0.10173454277E+03  0.49072306547E+02  0.18493835484E+03  0.12500000000E+03 0.  0.
</event>
<event>
 5    0  0.5728184E-005  0.2385835E+03  0.7546771E-02  0.1120740E+00
         21   -1    0    0  502  501  0.00000000000E+00  0.00000000000E+00  0.24522981780E+03  0.24522981780E+03  0.00000000000E+00 0. -1.
         21   -1    0    0  501  502 -0.00000000000E+00 -0.00000000000E+00 -0.23211722425E+03  0.23211722425E+03  0.00000000000E+00 0. -1.
         25    1    1    2    0    0  0.25842748325E+02  0.86774539010E+01 -0.51591167956E+02  0.13794852104E+03  0.12500000000E+03 0.  0.
         25    1    1    2    0    0 -0.37645232132E+02 -0.73775748437E+02 -0.49189201663E+02  0.15781192008E+03  0.12500000000E+03 0.  0.
         25    1    1    2    0    0  0.11802483807E+02  0.65098294536E+02  0.11389296317E+03  0.18158660092E+03  0.12500000000E+03 0.  0.
</event>
<event>
 5    0  0.5728184E-005  0.3100513E+03  0.7546771E-02  0.1080321E+00
         21   -1    0    0  502  501  0.00000000000E+00  0.00000000000E+00  0.18790947220E+04  0.18790947220E+04  0.00000000000E+00 0. -1.
         21   -1    0    0  501  502 -0.00000000000E+00 -0.00000000000E+00 -0.51158562568E+02  0.51158562568E+02  0.00000000000E+00 0. -1.
         25    1    1    2    0    0  0.76729008032E+01  0.95029381657E+02  0.98432741737E+03  0.99680234820E+03  0.12500000000E+03 0.  0.
         25    1    1    2    0    0  0.10437085772E+03 -0.12455574064E+03  0.29703587359E+03  0.36091926891E+03  0.12500000000E+03 0.  0.
         25    1    1    2    0    0 -0.11204375853E+03  0.29526358981E+02  0.54657286842E+03  0.57253166741E+03  0.12500000000E+03 0.  0.
</event>
<event>
 5    0  0.5728184E-005  0.2795945E+03  0.7546771E-02  0.1095911E+00
         21   -1    0    0  502  501  0.00000000000E+00  0.00000000000E+00  0.42618755234E+03  0.42618755234E+03  0.00000000000E+00 0.  1.
         21   -1    0    0  501  502 -0.00000000000E+00 -0.00000000000E+00 -0.18342417512E+03  0.18342417512E+03  0.00000000000E+00 0.  1.
         25    1    1    2    0    0  0.12225740867E+03 -0.67198695180E+02  0.16108852412E+03  0.24705677731E+03  0.12500000000E+03 0.  0.
         25    1    1    2    0    0  0.14337002763E+02  0.51717612271E+02  0.10956515419E+03  0.17467050146E+03  0.12500000000E+03 0.  0.
         25    1    1    2    0    0 -0.13659441144E+03  0.15481082909E+02 -0.27890301091E+02  0.18788444869E+03  0.12500000000E+03 0.  0.
</event>
<event>
 5    0  0.6284717E-005  0.2897415E+03  0.7546771E-02  0.1090484E+00
         21   -1    0    0  502  501  0.00000000000E+00  0.00000000000E+00  0.13712375089E+03  0.13712375089E+03  0.00000000000E+00 0.  1.
         21   -1    0    0  501  502 -0.00000000000E+00 -0.00000000000E+00 -0.61222182933E+03  0.61222182933E+03  0.00000000000E+00 0.  1.
         25    1    1    2    0    0  0.47114473625E+02 -0.12739664718E+03 -0.23498164003E+03  0.29881608138E+03  0.12500000000E+03 0.  0.
         25    1    1    2    0    0 -0.37958896128E+01  0.15481289037E+03 -0.24462076294E+03  0.31535021399E+03  0.12500000000E+03 0.  0.
         25    1    1    2    0    0 -0.43318584012E+02 -0.27416243182E+02  0.45043245375E+01  0.13517928484E+03  0.12500000000E+03 0.  0.
</event>
<event>
 5    0  0.5728184E-005  0.2674851E+03  0.7546771E-02  0.1102728E+00
         21   -1    0    0  502  501  0.00000000000E+00  0.00000000000E+00  0.29184669913E+03  0.29184669913E+03  0.00000000000E+00 0. -1.
         21   -1    0    0  501  502 -0.00000000000E+00 -0.00000000000E+00 -0.24515708912E+03  0.24515708912E+03  0.00000000000E+00 0. -1.
         25    1    1    2    0    0  0.36312428832E+01 -0.11911200534E+01 -0.13562269894E+02  0.12579165257E+03  0.12500000000E+03 0.  0.
         25    1    1    2    0    0  0.48314076889E+02 -0.39165466246E+02  0.17876662292E+03  0.22682744376E+03  0.12500000000E+03 0.  0.
         25    1    1    2    0    0 -0.51945319772E+02  0.40356586300E+02 -0.11851474302E+03  0.18438469193E+03  0.12500000000E+03 0.  0.
</event>
<event>
 5    0  0.5838560E-005  0.3573835E+03  0.7546771E-02  0.1059625E+00
         21   -1    0    0  502  501  0.00000000000E+00  0.00000000000E+00  0.43766664993E+03  0.43766664993E+03  0.00000000000E+00 0. -1.
         21   -1    0    0  501  502 -0.00000000000E+00 -0.00000000000E+00 -0.29182709712E+03  0.29182709712E+03  0.00000000000E+00 0. -1.
         25    1    1    2    0    0 -0.17120401165E+03  0.35794465828E+02  0.17891057612E+03  0.27968920544E+03  0.12500000000E+03 0.  0.
         25    1    1    2    0    0  0.18354822126E+03  0.11671347197E+03 -0.24063703478E+02  0.25202389945E+03  0.12500000000E+03 0.  0.
         25    1    1    2    0    0 -0.12344209612E+02 -0.15250793780E+03 -0.90073198263E+01  0.19778064216E+03  0.12500000000E+03 0.  0.
</event>
<event>
 5    0  0.5728184E-005  0.5284707E+03  0.7546771E-02  0.1006604E+00
         21   -1    0    0  502  501  0.00000000000E+00  0.00000000000E+00  0.10548837698E+04  0.10548837698E+04  0.00000000000E+00 0. -1.
         21   -1    0    0  501  502 -0.00000000000E+00 -0.00000000000E+00 -0.26475081021E+03  0.26475081021E+03  0.00000000000E+00 0. -1.
         25    1    1    2    0    0  0.29112913325E+03  0.11119927644E+03  0.32648755320E+03  0.46833809764E+03  0.12500000000E+03 0.  0.
         25    1    1    2    0    0 -0.39204840273E+03  0.48012496486E+02  0.10516294408E+03  0.42742413913E+03  0.12500000000E+03 0.  0.
         25    1    1    2    0    0  0.10091926948E+03 -0.15921177292E+03  0.35848246231E+03  0.42387234325E+03  0.12500000000E+03 0.  0.
</event>
<event>
 5    0  0.5728184E-005  0.3639057E+03  0.7546771E-02  0.1057048E+00
         21   -1    0    0  502  501  0.00000000000E+00  0.00000000000E+00  0.17053258709E+03  0.17053258709E+03  0.00000000000E+00 0.  1.
         21   -1    0    0  501  502 -0.00000000000E+00 -0.00000000000E+00 -0.77655143530E+03  0.77655143530E+03  0.00000000000E+00 0.  1.
         25    1    1    2    0    0 -0.82406514927E+01 -0.11071945862E+03 -0.25082992848E+03  0.30144213354E+03  0.12500000000E+03 0.  0.
         25    1    1    2    0    0  0.68795699228E+02 -0.33727184225E+02 -0.41203604930E+03  0.43734320288E+03  0.12500000000E+03 0.  0.
         25    1    1    2    0    0 -0.60555047735E+02  0.14444664285E+03  0.56847129558E+02  0.20829868596E+03  0.12500000000E+03 0.  0.
</event>
<event>
 5    0  0.5728184E-005  0.6129581E+03  0.7546771E-02  0.9878881E-01
         21   -1    0    0  502  501  0.00000000000E+00  0.00000000000E+00  0.53767492900E+03  0.53767492900E+03  0.00000000000E+00 0.  1.
         21   -1    0    0  501  502 -0.00000000000E+00 -0.00000000000E+00 -0.69878213734E+03  0.69878213734E+03  0.00000000000E+00 0.  1.
         25    1    1    2    0    0 -0.48171940194E+03 -0.44505817036E+02 -0.22522329638E+03  0.54807379356E+03  0.12500000000E+03 0.  0.
         25    1    1    2    0    0  0.23646654399E+03 -0.17989057350E+03 -0.21532725485E+02  0.32305681099E+03  0.12500000000E+03 0.  0.
         25    1    1    2    0    0  0.24525285796E+03  0.22439639054E+03  0.85648813524E+02  0.36532646178E+03  0.12500000000E+03 0.  0.
</event>
<event>
 5    0  0.5728184E-005  0.4079671E+03  0.7546771E-02  0.1041055E+00
         21   -1    0    0  502  501  0.00000000000E+00  0.00000000000E+00  0.17547553488E+04  0.17547553488E+04  0.00000000000E+00 0. -1.
         21   -1    0    0  501  502 -0.00000000000E+00 -0.00000000000E+00 -0.94849203539E+02  0.94849203539E+02  0.00000000000E+00 0. -1.
         25    1    1    2    0    0 -0.37050375300E+02 -0.56624263884E+02  0.27975909001E+03  0.31379800192E+03  0.12500000000E+03 0.  0.
         25    1    1    2    0    0  0.23371487831E+03 -0.18841119101E+03  0.81127239827E+03  0.87401906469E+03  0.12500000000E+03 0.  0.
         25    1    1    2    0    0 -0.19666450301E+03  0.24503545490E+03  0.56887465697E+03  0.66178748571E+03  0.12500000000E+03 0.  0.
</event>
<event>
 5    0  0.6460045E-005  0.3534801E+03  0.7546771E-02  0.1061196E+00
         21   -1    0    0  502  501  0.00000000000E+00  0.00000000000E+00  0.77793961201E+03  0.77793961201E+03  0.00000000000E+00 0. -1.
         21   -1    0    0  501  502 -0.00000000000E+00 -0.00000000000E+00 -0.16061424049E+03  0.16061424049E+03  0.00000000000E+00 0. -1.
         25    1    1    2    0    0  0.17161039496E+03 -0.29442138562E+02  0.63572014495E+02  0.22356960484E+03  0.12500000000E+03 0.  0.
         25    1    1    2    0    0  0.37179778339E+01  0.11636871041E+03  0.82663423748E+02  0.18977286884E+03  0.12500000000E+03 0.  0.
         25    1    1    2    0    0 -0.17532837279E+03 -0.86926571850E+02  0.47108993329E+03  0.52521137882E+03  0.12500000000E+03 0.  0.
</event>
<event>
 5    0  0.5728184E-005  0.2515638E+03  0.7546771E-02  0.1112321E+00
         21   -1    0    0  502  501  0.00000000000E+00  0.00000000000E+00  0.70975343026E+02  0.70975343026E+02  0.00000000000E+00 0.  1.
         21   -1    0    0  501  502 -0.00000000000E+00 -0.00000000000E+00 -0.89163815096E+03  0.89163815096E+03  0.00000000000E+00 0.  1.
         25    1    1    2    0    0  0.99799317291E+02 -0.71833485375E+02 -0.21833552379E+03  0.28002741705E+03  0.12500000000E+03 0.  0.
         25    1    1    2    0    0  0.18510550840E+02 -0.14581330407E+02 -0.20957159597E+03  0.24515405264E+03  0.12500000000E+03 0.  0.
         25    1    1    2    0    0 -0.11830986813E+03  0.86414815782E+02 -0.39275568817E+03  0.43743202429E+03  0.12500000000E+03 0.  0.
</event>
<event>
 5    0  0.5728184E-005  0.3203129E+03  0.7546771E-02  0.1075505E+00
         21   -1    0    0  502  501  0.00000000000E+00  0.00000000000E+00  0.33268607226E+03  0.33268607226E+03  0.00000000000E+00 0. -1.
         21   -1    0    0  501  502 -0.00000000000E+00 -0.00000000000E+00 -0.30839996781E+03  0.30839996781E+03  0.00000000000E+00 0. -1.
         25    1    1    2    0    0  0.21019472330E+03 -0.62713068375E+01  0.10791932080E+03  0.26738124616E+03  0.12500000000E+03 0.  0.
         25    1    1    2    0    0 -0.12412272452E+03 -0.65413678933E+02 -0.84067827176E+02  0.20585868867E+03  0.12500000000E+03 0.  0.
         25    1    1    2    0    0 -0.86071998781E+02  0.71684985771E+02  0.43461082669E+00  0.16784610524E+03  0.12500000000E+03 0.  0.
</event>
<event>
 5    0  0.5728184E-005  0.3054738E+03  0.7546771E-02  0.1082536E+00
         21   -1    0    0  502  501  0.00000000000E+00  0.00000000000E+00  0.35348575288E+02  0.35348575288E+02  0.00000000000E+00 0. -1.
         21   -1    0    0  501  502 -0.00000000000E+00 -0.00000000000E+00 -0.26398307913E+04  0.26398307913E+04  0.00000000000E+00 0. -1.
         25    1    1    2    0    0 -0.11877622820E+03 -0.50133584414E+02 -0.19162430321E+04  0.19246385444E+04  0.12500000000E+03 0.  0.
         25    1    1    2    0    0  0.20817549794E+02  0.59365240606E+02 -0.34100473192E+03  0.36860117927E+03  0.12500000000E+03 0.  0.
         25    1    1    2    0    0  0.97958678404E+02 -0.92316561917E+01 -0.34723445204E+03  0.38193964292E+03  0.12500000000E+03 0.  0.
</event>
<event>
 5    0  0.6700703E-005  0.2781517E+03  0.7546771E-02  0.1096703E+00
         21   -1    0    0  502  501  0.00000000000E+00  0.00000000000E+00  0.22094108727E+03  0.22094108727E+03  0.00000000000E+00 0. -1.
         21   -1    0    0  501  502 -0.00000000000E+00 -0.00000000000E+00 -0.35017656813E+03  0.35017656813E+03  0.00000000000E+00 0. -1.
         25    1    1    2    0    0  0.16641996553E+03  0.31110624349E+02 -0.10224327543E+03  0.23397043242E+03  0.12500000000E+03 0.  0.
         25    1    1    2    0    0 -0.43922149467E+02 -0.47253637197E+02  0.44303089724E+02  0.14747821941E+03  0.12500000000E+03 0.  0.
         25    1    1    2    0    0 -0.12249781607E+03  0.16143012847E+02 -0.71295295159E+02  0.18966900357E+03  0.12500000000E+03 0.  0.
</event>
<event>
 5    0  0.5728184E-005  0.3714766E+03  0.7546771E-02  0.1054130E+00
         21   -1    0    0  502  501  0.00000000000E+00  0.00000000000E+00  0.30670201810E+03  0.30670201810E+03  0.00000000000E+00 0. -1.
         21   -1    0    0  501  502 -0.00000000000E+00 -0.00000000000E+00 -0.44993134117E+03  0.44993134117E+03  0.00000000000E+00 0. -1.
         25    1    1    2    0    0  0.21284664746E+03  0.91393290285E+02 -0.21685153520E+03  0.34103668009E+03  0.12500000000E+03 0.  0.
         25    1    1    2    0    0 -0.22928491446E+03 -0.87726855249E+02  0.13358416417E+02  0.27580975404E+03  0.12500000000E+03 0.  0.
         25    1    1    2    0    0  0.16438267000E+02 -0.36664350361E+01  0.60263795719E+02  0.13978692515E+03  0.12500000000E+03 0.  0.
</event>
<event>
 5    0  0.5728184E-005  0.5161011E+03  0.7546771E-02  0.1009660E+00
         21   -1    0    0  502  501  0.00000000000E+00  0.00000000000E+00  0.30180141989E+03  0.30180141989E+03  0.00000000000E+00 0. -1.
         21   -1    0    0  501  502 -0.00000000000E+00 -0.00000000000E+00 -0.88256835758E+03  0.88256835758E+03  0.00000000000E+00 0. -1.
         25    1    1    2    0    0 -0.33208077240E+03 -0.98896444374E+02  0.18203445079E+01  0.36835643032E+03  0.12500000000E+03 0.  0.
         25    1    1    2    0    0  0.29417385323E+03  0.19360318870E+03 -0.52559788740E+03  0.64490200018E+03  0.12500000000E+03 0.  0.
         25    1    1    2    0    0  0.37906919163E+02 -0.94706744328E+02 -0.56989394798E+02  0.17111134697E+03  0.12500000000E+03 0.  0.
</event>
<event>
 5    0  0.5728184E-005  0.2708061E+03  0.7546771E-02  0.1100819E+00
         21   -1    0    0  502  501  0.00000000000E+00  0.00000000000E+00  0.61010767818E+02  0.61010767818E+02  0.00000000000E+00 0.  1.
         21   -1    0    0  501  502 -0.00000000000E+00 -0.00000000000E+00 -0.12020159697E+04  0.12020159697E+04  0.00000000000E+00 0.  1.
         25    1    1    2    0    0  0.29324347886E+02  0.13925421089E+03 -0.41477407216E+03  0.45597607785E+03  0.12500000000E+03 0.  0.
         25    1    1    2    0    0 -0.10635966617E+03 -0.37997122869E+02 -0.42209630532E+03  0.45447381762E+03  0.12500000000E+03 0.  0.
         25    1    1    2    0    0  0.77035318287E+02 -0.10125708802E+03 -0.30413482436E+03  0.35257684202E+03  0.12500000000E+03 0.  0.
</event>
<event>
 5    0  0.5728184E-005  0.5674255E+03  0.7546771E-02  0.9975392E-01
         21   -1    0    0  502  501  0.00000000000E+00  0.00000000000E+00  0.11366675636E+03  0.11366675636E+03  0.00000000000E+00 0.  1.
         21   -1    0    0  501  502 -0.00000000000E+00 -0.00000000000E+00 -0.28325929188E+04  0.28325929188E+04  0.00000000000E+00 0.  1.
         25    1    1    2    0    0 -0.68962246204E+02 -0.25082324119E+03 -0.15174804354E+04  0.15446811845E+04  0.12500000000E+03 0.  0.
         25    1    1    2    0    0  0.22910495683E+03  0.38424752763E+03 -0.91314958801E+03  0.10245010560E+04  0.12500000000E+03 0.  0.
         25    1    1    2    0    0 -0.16014271062E+03 -0.13342428643E+03 -0.28829613902E+03  0.37707743469E+03  0.12500000000E+03 0.  0.
</event>
<event>
 5    0  0.5728184E-005  0.2152180E+03  0.7546771E-02  0.1137499E+00
         21   -1    0    0  502  501  0.00000000000E+00  0.00000000000E+00  0.55472157118E+03  0.55472157118E+03  0.00000000000E+00 0. -1.
         21   -1    0    0  501  502 -0.00000000000E+00 -0.00000000000E+00 -0.83499195159E+02  0.83499195159E+02  0.00000000000E+00 0. -1.
         25    1    1    2    0    0  0.30862038044E+01  0.29417254216E+02  0.94888508739E+02  0.15969886847E+03  0.12500000000E+03 0.  0.
         25    1    1    2    0    0  0.15051108361E+01 -0.88205230924E+02  0.23831239226E+03  0.28319644140E+03  0.12500000000E+03 0.  0.
         25    1    1    2    0    0 -0.45913146405E+01  0.58787976708E+02  0.13802147503E+03  0.19532545647E+03  0.12500000000E+03 0.  0.
</event>
<event>
 5    0  0.5728184E-005  0.2345096E+03  0.7546771E-02  0.1123505E+00
         21   -1    0    0  502  501  0.00000000000E+00  0.00000000000E+00  0.42845312151E+03  0.42845312151E+03  0.00000000000E+00 0. -1.
         21   -1    0    0  501  502 -0.00000000000E+00 -0.00000000000E+00 -0.12835650744E+03  0.12835650744E+03  0.00000000000E+00 0. -1.
         25    1    1    2    0    0 -0.10744593364E+03 -0.26139216208E+02  0.12685174977E+03  0.20962884749E+03  0.12500000000E+03 0.  0.
         25    1    1    2    0    0  0.37397217724E+02 -0.37711984027E+02  0.12082814129E+03  0.18178334731E+03  0.12500000000E+03 0.  0.
         25    1    1    2    0    0  0.70048715919E+02  0.63851200235E+02  0.52416723015E+02  0.16539743415E+03  0.12500000000E+03 0.  0.
</event>
<event>
 5    0  0.5728184E-005  0.4357904E+03  0.7546771E-02  0.1032046E+00
         21   -1    0    0  502  501  0.00000000000E+00  0.00000000000E+00  0.21224994265E+03  0.21224994265E+03  0.00000000000E+00 0.  1.
         21   -1    0    0  501  502 -0.00000000000E+00 -0.00000000000E+00 -0.89476252714E+03  0.89476252714E+03  0.00000000000E+00 0.  1.
         25    1    1    2    0    0 -0.29879881327E+02  0.23269077345E+03 -0.30738906921E+03  0.40638755299E+03  0.12500000000E+03 0.  0.
         25    1    1    2    0    0 -0.11427807234E+03  0.71979127151E+01 -0.35506003010E+03  0.39345128382E+03  0.12500000000E+03 0.  0.
         25    1    1    2    0    0  0.14415795367E+03 -0.23988868617E+03 -0.20063485191E+02  0.30717363298E+03  0.12500000000E+03 0.  0.
</event>
<event>
 5    0  0.5728184E-005  0.3415665E+03  0.7546771E-02  0.1066131E+00
         21   -1    0    0  502  501  0.00000000000E+00  0.00000000000E+00  0.86623708189E+02  0.86623708189E+02  0.00000000000E+00 0.  1.
         21   -1    0    0  501  502 -0.00000000000E+00 -0.00000000000E+00 -0.13468333449E+04  0.13468333449E+04  0.00000000000E+00 0.  1.
         25    1    1    2    0    0 -0.22385477907E+02  0.72771908487E+02 -0.33493655388E+03  0.36551929554E+03  0.12500000000E+03 0.  0.
         25    1    1    2    0    0 -0.18533222718E+03 -0.12010891755E+03 -0.65163455007E+03  0.69930449259E+03  0.12500000000E+03 0.  0.
         25    1    1    2    0    0  0.20771770509E+03  0.47337009066E+02 -0.27363853280E+03  0.36863326500E+03  0.12500000000E+03 0.  0.
</event>
<event>
 5    0  0.5728184E-005  0.6015262E+03  0.7546771E-02  0.9902245E-01
         21   -1    0    0  502  501  0.00000000000E+00  0.00000000000E+00  0.10657732036E+04  0.10657732036E+04  0.00000000000E+00 0. -1.
         21   -1    0    0  501  502 -0.00000000000E+00 -0.00000000000E+00 -0.33950354633E+03  0.33950354633E+03  0.00000000000E+00 0. -1.
         25    1    1    2    0    0  0.20148748975E+03 -0.37744095219E+03  0.63718409983E+03  0.77761652373E+03  0.12500000000E+03 0.  0.
         25    1    1    2    0    0 -0.17426366886E+03  0.18795901413E+03  0.22361772453E+03  0.36238971288E+03  0.12500000000E+03 0.  0.
         25    1    1    2    0    0 -0.27223820884E+02  0.18948193806E+03 -0.13453216706E+03  0.26527051334E+03  0.12500000000E+03 0.  0.
</event>
<event>
 5    0  0.5728184E-005  0.2360128E+03  0.7546771E-02  0.1122478E+00
         21   -1    0    0  502  501  0.00000000000E+00  0.00000000000E+00  0.14964532200E+03  0.14964532200E+03  0.00000000000E+00 0. -1.
         21   -1    0    0  501  502 -0.00000000000E+00 -0.00000000000E+00 -0.37222709780E+03  0.37222709780E+03  0.00000000000E+00 0. -1.
         25    1    1    2    0    0 -0.44408396953E+02 -0.83749405230E+01  0.40321188925E+02  0.13889940110E+03  0.12500000000E+03 0.  0.
         25    1    1    2    0    0  0.61080814741E+02 -0.20649893787E+01 -0.19445410188E+03  0.23910777455E+03  0.12500000000E+03 0.  0.
         25    1    1    2    0    0 -0.16672417787E+02  0.10439929902E+02 -0.68448862837E+02  0.14386524415E+03  0.12500000000E+03 0.  0.
</event>
<event>
 5    0  0.6295388E-005  0.2887115E+03  0.7546771E-02  0.1091024E+00
         21   -1    0    0  502  501  0.00000000000E+00  0.00000000000E+00  0.11132853441E+04  0.11132853441E+04  0.00000000000E+00 0. -1.
         21   -1    0    0  501  502 -0.00000000000E+00 -0.00000000000E+00 -0.74872380043E+02  0.74872380043E+02  0.00000000000E+00 0. -1.
         25    1    1    2    0    0 -0.16177558191E+02 -0.79515309529E+02  0.79378696659E+03  0.80765533872E+03  0.12500000000E+03 0.  0.
         25    1    1    2    0    0  0.63164336911E+02  0.46703594992E+02  0.16578685582E+03  0.22199378551E+03  0.12500000000E+03 0.  0.
         25    1    1    2    0    0 -0.46986778721E+02  0.32811714537E+02  0.78839141619E+02  0.15850859988E+03  0.12500000000E+03 0.  0.
</event>
<event>
 5    0  0.5728184E-005  0.3139973E+03  0.7546771E-02  0.1078446E+00
         21   -1    0    0  502  501  0.00000000000E+00  0.00000000000E+00  0.14502631801E+03  0.14502631801E+03  0.00000000000E+00 0. -1.
         21   -1    0    0  501  502 -0.00000000000E+00 -0.00000000000E+00 -0.67983720192E+03  0.67983720192E+03  0.00000000000E+00 0. -1.
         25    1    1    2    0    0  0.52937236421E+01  0.12695043423E+03 -0.17239293637E+03  0.24796927384E+03  0.12500000000E+03 0.  0.
         25    1    1    2    0    0  0.59276133531E+01  0.10648943490E+03 -0.60382965442E+02  0.17506067194E+03  0.12500000000E+03 0.  0.
         25    1    1    2    0    0 -0.11221336995E+02 -0.23343986913E+03 -0.30203498210E+03  0.40183357415E+03  0.12500000000E+03 0.  0.
</event>
<event>
 5    0  0.5728184E-005  0.2572629E+03  0.7546771E-02  0.1108799E+00
         21   -1    0    0  502  501  0.00000000000E+00  0.00000000000E+00  0.46142423188E+03  0.46142423188E+03  0.00000000000E+00 0.  1.
         21   -1    0    0  501  502 -0.00000000000E+00 -0.00000000000E+00 -0.14343457894E+03  0.14343457894E+03  0.00000000000E+00 0.  1.
         25    1    1    2    0    0 -0.80646401134E+02 -0.91673957384E+02  0.25087042580E+03  0.30572688305E+03  0.12500000000E+03 0.  0.
         25    1    1    2    0    0  0.44821079938E+02  0.28929040968E+02 -0.84532725540E+01  0.13617002767E+03  0.12500000000E+03 0.  0.
         25    1    1    2    0    0  0.35825321196E+02  0.62744916415E+02  0.75572499691E+02  0.16296190010E+03  0.12500000000E+03 0.  0.
</event>
<event>
 5    0  0.5728184E-005  0.2995876E+03  0.7546771E-02  0.1085447E+00
         21   -1    0    0  502  501  0.00000000000E+00  0.00000000000E+00  0.41000677919E+03  0.41000677919E+03  0.00000000000E+00 0.  1.
         21   -1    0    0  501  502 -0.00000000000E+00 -0.00000000000E+00 -0.21890548682E+03  0.21890548682E+03  0.00000000000E+00 0.  1.
         25    1    1    2    0    0  0.41641689988E+02  0.16686991336E+03 -0.67253878569E+02  0.22299704597E+03  0.12500000000E+03 0.  0.
         25    1    1    2    0    0 -0.38281355143E+02 -0.46531541576E+02  0.12901968957E+03  0.18947751004E+03  0.12500000000E+03 0.  0.
         25    1    1    2    0    0 -0.33603348454E+01 -0.12033837178E+03  0.12933548136E+03  0.21643771000E+03  0.12500000000E+03 0.  0.
</event>
<event>
 5    0  0.5728184E-005  0.2774319E+03  0.7546771E-02  0.1097100E+00
         21   -1    0    0  502  501  0.00000000000E+00  0.00000000000E+00  0.65971716536E+03  0.65971716536E+03  0.00000000000E+00 0. -1.
         21   -1    0    0  501  502 -0.00000000000E+00 -0.00000000000E+00 -0.11666890314E+03  0.11666890314E+03  0.00000000000E+00 0. -1.
         25    1    1    2    0    0  0.66443180880E+02  0.10535456156E+03  0.18953117676E+03  0.25896205685E+03  0.12500000000E+03 0.  0.
         25    1    1    2    0    0 -0.14909971615E+01 -0.17491916637E+03  0.15910862346E+03  0.26746867461E+03  0.12500000000E+03 0.  0.
         25    1    1    2    0    0 -0.64952183719E+02  0.69564604815E+02  0.19440846201E+03  0.24995533704E+03  0.12500000000E+03 0.  0.
</event>
<event>
 5    0  0.5728184E-005  0.2792109E+03  0.7546771E-02  0.1096121E+00
         21   -1    0    0  502  501  0.00000000000E+00  0.00000000000E+00  0.37048177534E+03  0.37048177534E+03  0.00000000000E+00 0. -1.
         21   -1    0    0  501  502 -0.00000000000E+00 -0.00000000000E+00 -0.21042522553E+03  0.21042522553E+03  0.00000000000E+00 0. -1.
         25    1    1    2    0    0 -0.45656615439E+02 -0.15503635286E+02  0.11101393774E+03  0.17399420569E+03  0.12500000000E+03 0.  0.
         25    1    1    2    0    0  0.49464400738E+02  0.11853338861E+03 -0.83360610991E+02  0.19766355916E+03  0.12500000000E+03 0.  0.
         25    1    1    2    0    0 -0.38077852997E+01 -0.10302975333E+03  0.13240322305E+03  0.20924923602E+03  0.12500000000E+03 0.  0.
</event>
<event>
 5    0  0.5728184E-005  0.2848011E+03  0.7546771E-02  0.1093095E+00
         21   -1    0    0  502  501  0.00000000000E+00  0.00000000000E+00  0.66466090685E+02  0.66466090685E+02  0.00000000000E+00 0.  1.
         21   -1    0    0  501  502 -0.00000000000E+00 -0.00000000000E+00 -0.12203463995E+04  0.12203463995E+04  0.00000000000E+00 0.  1.
         25    1    1    2    0    0 -0.16450177039E+03 -0.21994798969E+02 -0.44542392160E+03  0.49149982052E+03  0.12500000000E+03 0.  0.
         25    1    1    2    0    0  0.12806463653E+03  0.97255611281E+02 -0.32654944490E+03  0.38486198178E+03  0.12500000000E+03 0.  0.
         25    1    1    2    0    0  0.36437133855E+02 -0.75260812312E+02 -0.38190694233E+03  0.41045068789E+03  0.12500000000E+03 0.  0.
</event>
<event>
 5    0  0.5728184E-005  0.2819575E+03  0.7546771E-02  0.1094625E+00
         21   -1    0    0  502  501  0.00000000000E+00  0.00000000000E+00  0.11199613124E+04  0.11199613124E+04  0.00000000000E+00 0.  1.
         21   -1    0    0  501  502 -0.00000000000E+00 -0.00000000000E+00 -0.70984603161E+02  0.70984603161E+02  0.00000000000E+00 0.  1.
         25    1    1    2    0    0  0.94338467959E+02 -0.54255921413E+02  0.48858772673E+03  0.51593257142E+03  0.12500000000E+03 0.  0.
         25    1    1    2    0    0 -0.15147775774E+03  0.11320004048E+03  0.33088021813E+03  0.40108163634E+03  0.12500000000E+03 0.  0.
         25    1    1    2    0    0  0.57139289784E+02 -0.58944119070E+02  0.22950876436E+03  0.27393170778E+03  0.12500000000E+03 0.  0.
</event>
<event>
 5    0  0.5728184E-005  0.2874647E+03  0.7546771E-02  0.1091680E+00
         21   -1    0    0  502  501  0.00000000000E+00  0.00000000000E+00  0.10528922803E+03  0.10528922803E+03  0.00000000000E+00 0. -1.
         21   -1    0    0  501  502 -0.00000000000E+00 -0.00000000000E+00 -0.78484735147E+03  0.78484735147E+03  0.00000000000E+00 0. -1.
         25    1    1    2    0    0  0.18678831734E+03 -0.22882697000E+02 -0.30115041986E+03  0.37647054161E+03  0.12500000000E+03 0.  0.
         25    1    1    2    0    0 -0.43148704097E+02 -0.44728750148E+02 -0.20133461095E+03  0.24499611695E+03  0.12500000000E+03 0.  0.
         25    1    1    2    0    0 -0.14363961325E+03  0.67611447148E+02 -0.17707309263E+03  0.26866992093E+03  0.12500000000E+03 0.  0.
</event>
<event>
 5    0  0.5730481E-005  0.2761297E+03  0.7546771E-02  0.1097822E+00
         21   -1    0    0  502  501  0.00000000000E+00  0.00000000000E+00  0.15199963402E+03  0.15199963402E+03  0.00000000000E+00 0. -1.
         21   -1    0    0  501  502 -0.00000000000E+00 -0.00000000000E+00 -0.50163031609E+03  0.50163031609E+03  0.00000000000E+00 0. -1.
         25    1    1    2    0    0  0.37588078839E+02  0.99095791554E+02 -0.12859863923E+03  0.20831574493E+03  0.12500000000E+03 0.  0.
         25    1    1    2    0    0  0.45173618140E+02  0.25040919952E+02 -0.21073405112E+03  0.25040276307E+03  0.12500000000E+03 0.  0.
         25    1    1    2    0    0 -0.82761696979E+02 -0.12413671151E+03 -0.10297991718E+02  0.19491144211E+03  0.12500000000E+03 0.  0.
</event>
<event>
 5    0  0.5728184E-005  0.2190022E+03  0.7546771E-02  0.1134629E+00
         21   -1    0    0  502  501  0.00000000000E+00  0.00000000000E+00  0.19069640171E+02  0.19069640171E+02  0.00000000000E+00 0. -1.
         21   -1    0    0  501  502 -0.00000000000E+00 -0.00000000000E+00 -0.25150954662E+04  0.25150954662E+04  0.00000000000E+00 0. -1.
         25    1    1    2    0    0 -0.45443469203E+02 -0.85902416122E+01 -0.75754642631E+03  0.76918170100E+03  0.12500000000E+03 0.  0.
         25    1    1    2    0    0 -0.42914389176E+02  0.57220652286E+02 -0.84345677427E+03  0.85566358921E+03  0.12500000000E+03 0.  0.
         25    1    1    2    0    0  0.88357858379E+02 -0.48630410674E+02 -0.89502262541E+03  0.90931981611E+03  0.12500000000E+03 0.  0.
</event>
<event>
 5    0  0.5890801E-005  0.2675946E+03  0.7546771E-02  0.1102664E+00
         21   -1    0    0  502  501  0.00000000000E+00  0.00000000000E+00  0.20004952404E+03  0.20004952404E+03  0.00000000000E+00 0.  1.
         21   -1    0    0  501  502 -0.00000000000E+00 -0.00000000000E+00 -0.35794563869E+03  0.35794563869E+03  0.00000000000E+00 0.  1.
         25    1    1    2    0    0 -0.28949434802E+01  0.39223039078E+02  0.19522194584E+01  0.13105586081E+03  0.12500000000E+03 0.  0.
         25    1    1    2    0    0  0.91570067238E+02 -0.10552696144E+03 -0.17856847288E+03  0.25890677147E+03  0.12500000000E+03 0.  0.
         25    1    1    2    0    0 -0.88675123757E+02  0.66303922359E+02  0.18720138771E+02  0.16803253045E+03  0.12500000000E+03 0.  0.
</event>
<event>
 5    0  0.5728184E-005  0.2875734E+03  0.7546771E-02  0.1091623E+00
         21   -1    0    0  502  501  0.00000000000E+00  0.00000000000E+00  0.50490867832E+03  0.50490867832E+03  0.00000000000E+00 0. -1.
         21   -1    0    0  501  502 -0.00000000000E+00 -0.00000000000E+00 -0.16378898359E+03  0.16378898359E+03  0.00000000000E+00 0. -1.
         25    1    1    2    0    0 -0.11919811064E+02  0.33699326196E+02  0.12974350129E+02  0.13065626752E+03  0.12500000000E+03 0.  0.
         25    1    1    2    0    0  0.11420831688E+03 -0.66666952372E+02  0.13059531977E+02  0.18243786219E+03  0.12500000000E+03 0.  0.
         25    1    1    2    0    0 -0.10228850582E+03  0.32967626176E+02  0.31508581262E+03  0.35560353220E+03  0.12500000000E+03 0.  0.
</event>
<event>
 5    0  0.7823490E-005  0.7874587E+03  0.7546771E-02  0.9578350E-01
         21   -1    0    0  502  501  0.00000000000E+00  0.00000000000E+00  0.11204987801E+04  0.11204987801E+04  0.00000000000E+00 0. -1.
         21   -1    0    0  501  502 -0.00000000000E+00 -0.00000000000E+00 -0.55340636993E+03  0.55340636993E+03  0.00000000000E+00 0. -1.
         25    1    1    2    0    0  0.14057076507E+03  0.51719447287E+03  0.36016654785E+03  0.65771970090E+03  0.12500000000E+03 0.  0.
         25    1    1    2    0    0 -0.29554930948E+03 -0.65922808157E+02  0.37234286280E+03  0.49594295886E+03  0.12500000000E+03 0.  0.
         25    1    1    2    0    0  0.15497854441E+03 -0.45127166471E+03 -0.16541700050E+03  0.52024249024E+03  0.12500000000E+03 0.  0.
</event>
<event>
 5    0  0.5728184E-005  0.2484524E+03  0.7546771E-02  0.1114287E+00
         21   -1    0    0  502  501  0.00000000000E+00  0.00000000000E+00  0.51520501149E+02  0.51520501149E+02  0.00000000000E+00 0. -1.
         21   -1    0    0  501  502 -0.00000000000E+00 -0.00000000000E+00 -0.11981364289E+04  0.11981364289E+04  0.00000000000E+00 0. -1.
         25    1    1    2    0    0 -0.61059052985E+02 -0.35475423151E+02 -0.39191007428E+03  0.41737898836E+03  0.12500000000E+03 0.  0.
         25    1    1    2    0    0 -0.37803491842E+01 -0.12806060122E+02 -0.99357003209E+02  0.16023451658E+03  0.12500000000E+03 0.  0.
         25    1    1    2    0    0  0.64839402169E+02  0.48281483273E+02 -0.65534885021E+03  0.67204342507E+03  0.12500000000E+03 0.  0.
</event>
<event>
 5    0  0.5728184E-005  0.5007092E+03  0.7546771E-02  0.1013594E+00
         21   -1    0    0  502  501  0.00000000000E+00  0.00000000000E+00  0.21193063478E+03  0.21193063478E+03  0.00000000000E+00 0. -1.
         21   -1    0    0  501  502 -0.00000000000E+00 -0.00000000000E+00 -0.11829801691E+04  0.11829801691E+04  0.00000000000E+00 0. -1.
         25    1    1    2    0    0  0.51055776572E+02  0.30284928379E+02 -0.22648282859E+03  0.26541164415E+03  0.12500000000E+03 0.  0.
         25    1    1    2    0    0 -0.28220098205E+03 -0.81990344284E+02  0.19409497702E+02  0.31993989971E+03  0.12500000000E+03 0.  0.
         25    1    1    2    0    0  0.23114520548E+03  0.51705415905E+02 -0.76397620347E+03  0.80955926004E+03  0.12500000000E+03 0.  0.
</event>
<event>
 5    0  0.5728184E-005  0.3589010E+03  0.7546771E-02  0.1059020E+00
         21   -1    0    0  502  501  0.00000000000E+00  0.00000000000E+00  0.11881800115E+03  0.11881800115E+03  0.00000000000E+00 0.  1.
         21   -1    0    0  501  502 -0.00000000000E+00 -0.00000000000E+00 -0.10840945647E+04  0.10840945647E+04  0.00000000000E+00 0.  1.
         25    1    1    2    0    0  0.32275040320E+01  0.20191155955E+02 -0.39529896387E+03  0.41509561597E+03  0.12500000000E+03 0.  0.
         25    1    1    2    0    0  0.16289329021E+03  0.53736999853E+02 -0.43061912442E+02  0.21656688909E+03  0.12500000000E+03 0.  0.
         25    1    1    2    0    0 -0.16612079424E+03 -0.73928155808E+02 -0.52691568725E+03  0.57125006081E+03  0.12500000000E+03 0.  0.
</event>
<event>
 5    0  0.5728184E-005  0.2834557E+03  0.7546771E-02  0.1093816E+00
         21   -1    0    0  502  501  0.00000000000E+00  0.00000000000E+00  0.39773704346E+02  0.39773704346E+02  0.00000000000E+00 0.  1.
         21   -1    0    0  501  502 -0.00000000000E+00 -0.00000000000E+00 -0.20201067563E+04  0.20201067563E+04  0.00000000000E+00 0.  1.
         25    1    1    2    0    0  0.13538964573E+03 -0.39853478186E+02 -0.62668484739E+03  0.65442918169E+03  0.12500000000E+03 0.  0.
         25    1    1    2    0    0 -0.42381519655E+02 -0.45005643869E+01 -0.19487702793E+03  0.23541135126E+03  0.12500000000E+03 0.  0.
         25    1    1    2    0    0 -0.93008126078E+02  0.44354042573E+02 -0.11587711767E+04  0.11700399277E+04  0.12500000000E+03 0.  0.
</event>
<event>
 5    0  0.5728184E-005  0.3783223E+03  0.7546771E-02  0.1051556E+00
         21   -1    0    0  502  501  0.00000000000E+00  0.00000000000E+00  0.12880491158E+04  0.12880491158E+04  0.00000000000E+00 0.  1.
         21   -1    0    0  501  502 -0.00000000000E+00 -0.00000000000E+00 -0.11111980670E+03  0.11111980670E+03  0.00000000000E+00 0.  1.
         25    1    1    2    0    0 -0.24063881472E+03 -0.11517503588E+03  0.50050006847E+03  0.58077331772E+03  0.12500000000E+03 0.  0.
         25    1    1    2    0    0  0.20445795362E+03  0.56004227338E+02  0.61573170263E+03  0.66309128927E+03  0.12500000000E+03 0.  0.
         25    1    1    2    0    0  0.36180861102E+02  0.59170808545E+02  0.60697537989E+02  0.15530431550E+03  0.12500000000E+03 0.  0.
</event>
<event>
 5    0  0.5728184E-005  0.3309324E+03  0.7546771E-02  0.1070725E+00
         21   -1    0    0  502  501  0.00000000000E+00  0.00000000000E+00  0.12560784124E+03  0.12560784124E+03  0.00000000000E+00 0. -1.
         21   -1    0    0  501  502 -0.00000000000E+00 -0.00000000000E+00 -0.87189032307E+03  0.87189032307E+03  0.00000000000E+00 0. -1.
         25    1    1    2    0    0  0.79071248242E+02 -0.30571151089E+02 -0.90387834538E+02  0.17601652823E+03  0.12500000000E+03 0.  0.
         25    1    1    2    0    0 -0.12431109228E+03 -0.16884902742E+03 -0.24534173126E+03  0.34609363881E+03  0.12500000000E+03 0.  0.
         25    1    1    2    0    0  0.45239844036E+02  0.19942017851E+03 -0.41055291603E+03  0.47538799727E+03  0.12500000000E+03 0.  0.
</event>
<event>
 5    0  0.5728184E-005  0.3883058E+03  0.7546771E-02  0.1047906E+00
         21   -1    0    0  502  501  0.00000000000E+00  0.00000000000E+00  0.65865706325E+03  0.65865706325E+03  0.00000000000E+00 0.  1.
         21   -1    0    0  501  502 -0.00000000000E+00 -0.00000000000E+00 -0.22892240569E+03  0.22892240569E+03  0.00000000000E+00 0.  1.
         25    1    1    2    0    0 -0.19027059678E+03  0.66014664119E+02  0.27853545677E+03  0.36574285578E+03  0.12500000000E+03 0.  0.
         25    1    1    2    0    0 -0.91797228077E+02 -0.51495638287E+02  0.13599201746E+03  0.21259670896E+03  0.12500000000E+03 0.  0.
         25    1    1    2    0    0  0.28206782485E+03 -0.14519025832E+02  0.15207183336E+02  0.30923990421E+03  0.12500000000E+03 0.  0.
</event>
<event>
 5    0  0.5728184E-005  0.2714463E+03  0.7546771E-02  0.1100455E+00
         21   -1    0    0  502  501  0.00000000000E+00  0.00000000000E+00  0.96132953019E+02  0.96132953019E+02  0.00000000000E+00 0. -1.
         21   -1    0    0  501  502 -0.00000000000E+00 -0.00000000000E+00 -0.76647070941E+03  0.76647070941E+03  0.00000000000E+00 0. -1.
         25    1    1    2    0    0  0.26487464633E+02  0.19249843776E+02 -0.35766985436E+03  0.38029576252E+03  0.12500000000E+03 0.  0.
         25    1    1    2    0    0 -0.20520262919E+02  0.10814287993E+03 -0.23387552180E+03  0.28712144359E+03  0.12500000000E+03 0.  0.
         25    1    1    2    0    0 -0.59672017138E+01 -0.12739272371E+03 -0.78792380221E+02  0.19518645632E+03  0.12500000000E+03 0.  0.
</event>
<event>
 5    0  0.5728184E-005  0.2583984E+03  0.7546771E-02  0.1108109E+00
         21   -1    0    0  502  501  0.00000000000E+00  0.00000000000E+00  0.81163921586E+03  0.81163921586E+03  0.00000000000E+00 0.  1.
         21   -1    0    0  501  502 -0.00000000000E+00 -0.00000000000E+00 -0.82265304955E+02  0.82265304955E+02  0.00000000000E+00 0.  1.
         25    1    1    2    0    0  0.28555325113E+02 -0.56264243678E+02  0.57189848066E+03  0.58879023759E+03  0.12500000000E+03 0.  0.
         25    1    1    2    0    0  0.13305569068E+01  0.42695892689E+02  0.79988134393E+02  0.15442736570E+03  0.12500000000E+03 0.  0.
         25    1    1    2    0    0 -0.29885882020E+02  0.13568350990E+02  0.77487295858E+02  0.15068691752E+03  0.12500000000E+03 0.  0.
</event>
<event>
 5    0  0.5728184E-005  0.2957452E+03  0.7546771E-02  0.1087387E+00
         21   -1    0    0  502  501  0.00000000000E+00  0.00000000000E+00  0.18585400926E+03  0.18585400926E+03  0.00000000000E+00 0. -1.
         21   -1    0    0  501  502 -0.00000000000E+00 -0.00000000000E+00 -0.47061262468E+03  0.47061262468E+03  0.00000000000E+00 0. -1.
         25    1    1    2    0    0 -0.87385650279E+02 -0.31696031942E+02 -0.12949812501E+03  0.20257259118E+03  0.12500000000E+03 0.  0.
         25    1    1    2    0    0  0.13835365570E+03  0.10750891260E+03 -0.19887311117E+03  0.29304507278E+03  0.12500000000E+03 0.  0.
         25    1    1    2    0    0 -0.50968005422E+02 -0.75812880657E+02  0.43612620766E+02  0.16084896997E+03  0.12500000000E+03 0.  0.
</event>
<event>
 5    0  0.5728184E-005  0.2709836E+03  0.7546771E-02  0.1100718E+00
         21   -1    0    0  502  501  0.00000000000E+00  0.00000000000E+00  0.34315783284E+03  0.34315783284E+03  0.00000000000E+00 0. -1.
         21   -1    0    0  501  502 -0.00000000000E+00 -0.00000000000E+00 -0.21398931268E+03  0.21398931268E+03  0.00000000000E+00 0. -1.
         25    1    1    2    0    0  0.55286331534E+02 -0.10680963584E+03 -0.27975575078E+01  0.17348689602E+03  0.12500000000E+03 0.  0.
         25    1    1    2    0    0 -0.99267872006E+02  0.14846632870E+03  0.10580096795E+03  0.24231220768E+03  0.12500000000E+03 0.  0.
         25    1    1    2    0    0  0.43981540473E+02 -0.41656692857E+02  0.26165109719E+02  0.14134804183E+03  0.12500000000E+03 0.  0.
</event>
<event>
 5    0  0.5728184E-005  0.3349243E+03  0.7546771E-02  0.1068979E+00
         21   -1    0    0  502  501  0.00000000000E+00  0.00000000000E+00  0.66573090047E+03  0.66573090047E+03  0.00000000000E+00 0. -1.
         21   -1    0    0  501  502 -0.00000000000E+00 -0.00000000000E+00 -0.16849796342E+03  0.16849796342E+03  0.00000000000E+00 0. -1.
         25    1    1    2    0    0 -0.12145004738E+03 -0.16623258304E+03  0.38226171741E+02  0.24386394953E+03  0.12500000000E+03 0.  0.
         25    1    1    2    0    0 -0.32119426675E+02  0.42536717773E+02  0.14063441769E+03  0.19556090961E+03  0.12500000000E+03 0.  0.
         25    1    1    2    0    0  0.15356947405E+03  0.12369586527E+03  0.31837234761E+03  0.39480400475E+03  0.12500000000E+03 0.  0.
</event>
<event>
 5    0  0.5728184E-005  0.2823412E+03  0.7546771E-02  0.1094417E+00
         21   -1    0    0  502  501  0.00000000000E+00  0.00000000000E+00  0.66645475883E+02  0.66645475883E+02  0.00000000000E+00 0.  1.
         21   -1    0    0  501  502 -0.00000000000E+00 -0.00000000000E+00 -0.11961281035E+04  0.11961281035E+04  0.00000000000E+00 0.  1.
         25    1    1    2    0    0 -0.17682363801E+03 -0.54266456882E+02 -0.63725289129E+03  0.67522418111E+03  0.12500000000E+03 0.  0.
         25    1    1    2    0    0  0.70581354040E+02  0.57619087994E+02 -0.27210086197E+03  0.31299451421E+03  0.12500000000E+03 0.  0.
         25    1    1    2    0    0  0.10624228397E+03 -0.33526311120E+01 -0.22012887436E+03  0.27455488407E+03  0.12500000000E+03 0.  0.
</event>
<event>
 5    0  0.5728184E-005  0.2691696E+03  0.7546771E-02  0.1101756E+00
         21   -1    0    0  502  501  0.00000000000E+00  0.00000000000E+00  0.71942872817E+03  0.71942872817E+03  0.00000000000E+00 0.  1.
         21   -1    0    0  501  502 -0.00000000000E+00 -0.00000000000E+00 -0.10070803069E+03  0.10070803069E+03  0.00000000000E+00 0.  1.
         25    1    1    2    0    0 -0.82215640630E+02 -0.32525292063E+02  0.41548426688E+03  0.44279733763E+03  0.12500000000E+03 0.  0.
         25    1    1    2    0    0  0.11517405041E+03  0.65739713387E+02  0.95108690572E+02  0.20556613249E+03  0.12500000000E+03 0.  0.
         25    1    1    2    0    0 -0.32958409782E+02 -0.33214421324E+02  0.10812774003E+03  0.17177328873E+03  0.12500000000E+03 0.  0.
</event>
<event>
 5    0  0.5728184E-005  0.2628849E+03  0.7546771E-02  0.1105422E+00
         21   -1    0    0  502  501  0.00000000000E+00  0.00000000000E+00  0.45425350474E+03  0.45425350474E+03  0.00000000000E+00 0. -1.
         21   -1    0    0  501  502 -0.00000000000E+00 -0.00000000000E+00 -0.15213632129E+03  0.15213632129E+03  0.00000000000E+00 0. -1.
         25    1    1    2    0    0 -0.20753452227E+02  0.15105645315E+03  0.89476564688E+02  0.21651746684E+03  0.12500000000E+03 0.  0.
         25    1    1    2    0    0  0.13998351216E+02 -0.15343548308E+03  0.15631001272E+03  0.25257913885E+03  0.12500000000E+03 0.  0.
         25    1    1    2    0    0  0.67551010106E+01  0.23790299286E+01  0.56330606049E+02  0.13729322034E+03  0.12500000000E+03 0.  0.
</event>
<event>
 5    0  0.5728184E-005  0.2861234E+03  0.7546771E-02  0.1092391E+00
         21   -1    0    0  502  501  0.00000000000E+00  0.00000000000E+00  0.16733500821E+03  0.16733500821E+03  0.00000000000E+00 0.  1.
         21   -1    0    0  501  502 -0.00000000000E+00 -0.00000000000E+00 -0.48923773647E+03  0.48923773647E+03  0.00000000000E+00 0.  1.
         25    1    1    2    0    0  0.80816106297E+02  0.12640467705E+03 -0.27089273474E+03  0.33394199968E+03  0.12500000000E+03 0.  0.
         25    1    1    2    0    0 -0.51026666151E+02 -0.14657865816E+02  0.21581274270E+02  0.13751118168E+03  0.12500000000E+03 0.  0.
         25    1    1    2    0    0 -0.29789440146E+02 -0.11174681123E+03 -0.72591267794E+02  0.18511956332E+03  0.12500000000E+03 0.  0.
</event>
<event>
 5    0  0.5728184E-005  0.3008292E+03  0.7546771E-02  0.1084827E+00
         21   -1    0    0  502  501  0.00000000000E+00  0.00000000000E+00  0.16104815357E+03  0.16104815357E+03  0.00000000000E+00 0. -1.
         21   -1    0    0  501  502 -0.00000000000E+00 -0.00000000000E+00 -0.56193265899E+03  0.56193265899E+03  0.00000000000E+00 0. -1.
         25    1    1    2    0    0 -0.16578369381E+02 -0.86646874898E+02 -0.11450056350E+03  0.19109657847E+03  0.12500000000E+03 0.  0.
         25    1    1    2    0    0 -0.83431590598E+02 -0.11396575021E+03 -0.91562193578E+02  0.20966081614E+03  0.12500000000E+03 0.  0.
         25    1    1    2    0    0  0.10000995998E+03  0.20061262511E+03 -0.19482174835E+03  0.32222341796E+03  0.12500000000E+03 0.  0.
</event>
<event>
 5    0  0.5728184E-005  0.3860712E+03  0.7546771E-02  0.1048712E+00
         21   -1    0    0  502  501  0.00000000000E+00  0.00000000000E+00  0.32757532472E+03  0.32757532472E+03  0.00000000000E+00 0. -1.
         21   -1    0    0  501  502 -0.00000000000E+00 -0.00000000000E+00 -0.45501291136E+03  0.45501291136E+03  0.00000000000E+00 0. -1.
         25    1    1    2    0    0 -0.13374547471E+03 -0.16100191181E+02 -0.19616774789E+03  0.26880076911E+03  0.12500000000E+03 0.  0.
         25    1    1    2    0    0 -0.94784240366E+02  0.11353687266E+03 -0.66230527252E+02  0.20466107694E+03  0.12500000000E+03 0.  0.
         25    1    1    2    0    0  0.22852971508E+03 -0.97436681478E+02  0.13496068850E+03  0.30912639003E+03  0.12500000000E+03 0.  0.
</event>
<event>
 5    0  0.5728184E-005  0.2962559E+03  0.7546771E-02  0.1087127E+00
         21   -1    0    0  502  501  0.00000000000E+00  0.00000000000E+00  0.64034038132E+03  0.64034038132E+03  0.00000000000E+00 0.  1.
         21   -1    0    0  501  502 -0.00000000000E+00 -0.00000000000E+00 -0.13706388118E+03  0.13706388118E+03  0.00000000000E+00 0.  1.
         25    1    1    2    0    0  0.15841493309E+02  0.24966791291E+02  0.40790159817E+03  0.42764822853E+03  0.12500000000E+03 0.  0.
         25    1    1    2    0    0 -0.57011289641E+02 -0.11106971332E+03  0.28908447236E+02  0.17901806246E+03  0.12500000000E+03 0.  0.
         25    1    1    2    0    0  0.41169796332E+02  0.86102922031E+02  0.66466454731E+02  0.17073797151E+03  0.12500000000E+03 0.  0.
</event>
<event>
 5    0  0.5728184E-005  0.2369777E+03  0.7546771E-02  0.1121823E+00
         21   -1    0    0  502  501  0.00000000000E+00  0.00000000000E+00  0.82961772049E+03  0.82961772049E+03  0.00000000000E+00 0.  1.
         21   -1    0    0  501  502 -0.00000000000E+00 -0.00000000000E+00 -0.67691958413E+02  0.67691958413E+02  0.00000000000E+00 0.  1.
         25    1    1    2    0    0 -0.59863138700E+02 -0.10274104774E+03  0.37514356787E+03  0.41291284162E+03  0.12500000000E+03 0.  0.
         25    1    1    2    0    0  0.25164217659E+02  0.74862160550E+01  0.13747004372E+03  0.18764939169E+03  0.12500000000E+03 0.  0.
         25    1    1    2    0    0  0.34698921042E+02  0.95254831689E+02  0.24931215049E+03  0.29674744559E+03  0.12500000000E+03 0.  0.
</event>
<event>
 5    0  0.5728184E-005  0.3967164E+03  0.7546771E-02  0.1044923E+00
         21   -1    0    0  502  501  0.00000000000E+00  0.00000000000E+00  0.22496025931E+03  0.22496025931E+03  0.00000000000E+00 0. -1.
         21   -1    0    0  501  502 -0.00000000000E+00 -0.00000000000E+00 -0.69960759060E+03  0.69960759060E+03  0.00000000000E+00 0. -1.
         25    1    1    2    0    0 -0.24631679438E+02  0.18177746260E+03 -0.18472791911E+03  0.28878914391E+03  0.12500000000E+03 0.  0.
         25    1    1    2    0    0 -0.72754703406E+02 -0.32115387680E+03 -0.15162329867E+03  0.38346797017E+03  0.12500000000E+03 0.  0.
         25    1    1    2    0    0  0.97386382844E+02  0.13937641420E+03 -0.13829611351E+03  0.25231073582E+03  0.12500000000E+03 0.  0.
</event>
<event>
 5    0  0.5728184E-005  0.2158999E+03  0.7546771E-02  0.1136977E+00
         21   -1    0    0  502  501  0.00000000000E+00  0.00000000000E+00  0.80712425387E+03  0.80712425387E+03  0.00000000000E+00 0.  1.
         21   -1    0    0  501  502 -0.00000000000E+00 -0.00000000000E+00 -0.57751657154E+02  0.57751657154E+02  0.00000000000E+00 0.  1.
         25    1    1    2    0    0 -0.36529404704E+02  0.11453614339E+02  0.36018223581E+03  0.38317336243E+03  0.12500000000E+03 0.  0.
         25    1    1    2    0    0 -0.46289250083E+02 -0.11643988126E+02  0.18977593501E+03  0.23220289112E+03  0.12500000000E+03 0.  0.
         25    1    1    2    0    0  0.82818654787E+02  0.19037378644E+00  0.19941442589E+03  0.24949965747E+03  0.12500000000E+03 0.  0.
</event>
<event>
 5    0  0.7181447E-005  0.5065560E+03  0.7546771E-02  0.1012082E+00
         21   -1    0    0  502  501  0.00000000000E+00  0.00000000000E+00  0.87594137949E+03  0.87594137949E+03  0.00000000000E+00 0. -1.
         21   -1    0    0  501  502 -0.00000000000E+00 -0.00000000000E+00 -0.29294076884E+03  0.29294076884E+03  0.00000000000E+00 0. -1.
         25    1    1    2    0    0 -0.40754345759E+02 -0.14571607655E+03 -0.35452222105E+02  0.19943909275E+03  0.12500000000E+03 0.  0.
         25    1    1    2    0    0  0.23593333262E+03 -0.13540221736E+03  0.50637223513E+03  0.58824836457E+03  0.12500000000E+03 0.  0.
         25    1    1    2    0    0 -0.19517898686E+03  0.28111829392E+03  0.11208059763E+03  0.38119469101E+03  0.12500000000E+03 0.  0.
</event>
<event>
 5    0  0.8916737E-005  0.2977020E+03  0.7546771E-02  0.1086395E+00
         21   -1    0    0  502  501  0.00000000000E+00  0.00000000000E+00  0.68421190675E+03  0.68421190675E+03  0.00000000000E+00 0. -1.
         21   -1    0    0  501  502 -0.00000000000E+00 -0.00000000000E+00 -0.12953073557E+03  0.12953073557E+03  0.00000000000E+00 0. -1.
         25    1    1    2    0    0 -0.10166093172E+03  0.45698637611E+01  0.33398719817E+03  0.37084805141E+03  0.12500000000E+03 0.  0.
         25    1    1    2    0    0 -0.73574479471E+02 -0.85323270137E+01  0.16598298990E+02  0.14624126696E+03  0.12500000000E+03 0.  0.
         25    1    1    2    0    0  0.17523541119E+03  0.39624632526E+01  0.20409567402E+03  0.29665332394E+03  0.12500000000E+03 0.  0.
</event>
<event>
 5    0  0.5728184E-005  0.3777287E+03  0.7546771E-02  0.1051776E+00
         21   -1    0    0  502  501  0.00000000000E+00  0.00000000000E+00  0.60173384146E+03  0.60173384146E+03  0.00000000000E+00 0. -1.
         21   -1    0    0  501  502 -0.00000000000E+00 -0.00000000000E+00 -0.23711307891E+03  0.23711307891E+03  0.00000000000E+00 0. -1.
         25    1    1    2    0    0  0.19961217212E+02 -0.57070616934E+02  0.41688727902E+03  0.43940358319E+03  0.12500000000E+03 0.  0.
         25    1    1    2    0    0 -0.21596007685E+02  0.16018272076E+03  0.46656068046E+02  0.20958692770E+03  0.12500000000E+03 0.  0.
         25    1    1    2    0    0  0.16347904730E+01 -0.10311210382E+03 -0.98922584511E+02  0.18985640948E+03  0.12500000000E+03 0.  0.
</event>
<event>
 5    0  0.5728184E-005  0.3219478E+03  0.7546771E-02  0.1074756E+00
         21   -1    0    0  502  501  0.00000000000E+00  0.00000000000E+00  0.24783368371E+04  0.24783368371E+04  0.00000000000E+00 0. -1.
         21   -1    0    0  501  502 -0.00000000000E+00 -0.00000000000E+00 -0.41822560337E+02  0.41822560337E+02  0.00000000000E+00 0. -1.
         25    1    1    2    0    0  0.18677121026E+02  0.16748286685E+03  0.46393067608E+03  0.50917189410E+03  0.12500000000E+03 0.  0.
         25    1    1    2    0    0 -0.10578047247E+03 -0.14641967482E+03  0.85039453380E+03  0.87830751599E+03  0.12500000000E+03 0.  0.
         25    1    1    2    0    0  0.87103351442E+02 -0.21063192030E+02  0.11221890669E+04  0.11326799874E+04  0.12500000000E+03 0.  0.
</event>
<event>
 5    0  0.5728184E-005  0.3537412E+03  0.7546771E-02  0.1061090E+00
         21   -1    0    0  502  501  0.00000000000E+00  0.00000000000E+00  0.33453143349E+03  0.33453143349E+03  0.00000000000E+00 0.  1.
         21   -1    0    0  501  502 -0.00000000000E+00 -0.00000000000E+00 -0.37405407130E+03  0.37405407130E+03  0.00000000000E+00 0.  1.
         25    1    1    2    0    0  0.12086195982E+03 -0.73370213094E+02 -0.13723798141E+03  0.23334537716E+03  0.12500000000E+03 0.  0.
         25    1    1    2    0    0 -0.12180255179E+03  0.16946321102E+03  0.17497581937E+03  0.29965843702E+03  0.12500000000E+03 0.  0.
         25    1    1    2    0    0  0.94059197431E+00 -0.96092997923E+02 -0.77260475769E+02  0.17558169061E+03  0.12500000000E+03 0.  0.
</event>
<event>
 5    0  0.5728184E-005  0.2638724E+03  0.7546771E-02  0.1104839E+00
         21   -1    0    0  502  501  0.00000000000E+00  0.00000000000E+00  0.52681080117E+02  0.52681080117E+02  0.00000000000E+00 0.  1.
         21   -1    0    0  501  502 -0.00000000000E+00 -0.00000000000E+00 -0.13217015927E+04  0.13217015927E+04  0.00000000000E+00 0.  1.
         25    1    1    2    0    0 -0.10884508041E+02 -0.43439502149E+02 -0.36027113534E+03  0.38396061493E+03  0.12500000000E+03 0.  0.
         25    1    1    2    0    0 -0.29849659380E+02 -0.10128243610E+03 -0.62337543791E+03  0.64449287864E+03  0.12500000000E+03 0.  0.
         25    1    1    2    0    0  0.40734167421E+02  0.14472193825E+03 -0.28537393936E+03  0.34592917927E+03  0.12500000000E+03 0.  0.
</event>
<event>
 5    0  0.5728184E-005  0.4266541E+03  0.7546771E-02  0.1034922E+00
         21   -1    0    0  502  501  0.00000000000E+00  0.00000000000E+00  0.12054245313E+03  0.12054245313E+03  0.00000000000E+00 0.  1.
         21   -1    0    0  501  502 -0.00000000000E+00 -0.00000000000E+00 -0.15101210553E+04  0.15101210553E+04  0.00000000000E+00 0.  1.
         25    1    1    2    0    0  0.81720284426E+02 -0.32558691126E+03 -0.77649467951E+03  0.85513392459E+03  0.12500000000E+03 0.  0.
         25    1    1    2    0    0 -0.10103916904E+03  0.27835271101E+03 -0.32358170273E+03  0.45609128883E+03  0.12500000000E+03 0.  0.
         25    1    1    2    0    0  0.19318884610E+02  0.47234200251E+02 -0.28950221993E+03  0.31943829502E+03  0.12500000000E+03 0.  0.
</event>
<event>
 5    0  0.5728184E-005  0.2860266E+03  0.7546771E-02  0.1092442E+00
         21   -1    0    0  502  501  0.00000000000E+00  0.00000000000E+00  0.34846731350E+03  0.34846731350E+03  0.00000000000E+00 0. -1.
         21   -1    0    0  501  502 -0.00000000000E+00 -0.00000000000E+00 -0.23477440252E+03  0.23477440252E+03  0.00000000000E+00 0. -1.
         25    1    1    2    0    0 -0.58908725872E+02  0.11228040700E+02 -0.10842144797E+03  0.17600146949E+03  0.12500000000E+03 0.  0.
         25    1    1    2    0    0  0.68729458116E+02 -0.74283585972E+02  0.21290258190E+02  0.16223459758E+03  0.12500000000E+03 0.  0.
         25    1    1    2    0    0 -0.98207322434E+01  0.63055545272E+02  0.20082410076E+03  0.24500564895E+03  0.12500000000E+03 0.  0.
</event>
<event>
 5    0  0.5728184E-005  0.2636561E+03  0.7546771E-02  0.1104966E+00
         21   -1    0    0  502  501  0.00000000000E+00  0.00000000000E+00  0.33885382572E+03  0.33885382572E+03  0.00000000000E+00 0.  1.
         21   -1    0    0  501  502 -0.00000000000E+00 -0.00000000000E+00 -0.20514610187E+03  0.20514610187E+03  0.00000000000E+00 0.  1.
         25    1    1    2    0    0  0.18309606232E+02 -0.12419140716E+03  0.11682297075E+03  0.21220592307E+03  0.12500000000E+03 0.  0.
         25    1    1    2    0    0 -0.57482078533E+02  0.80815021226E+02 -0.63916533056E+02  0.17188827827E+03  0.12500000000E+03 0.  0.
         25    1    1    2    0    0  0.39172472301E+02  0.43376385934E+02  0.80801286159E+02  0.15990572625E+03  0.12500000000E+03 0.  0.
</event>
<event>
 5    0  0.5728184E-005  0.3110210E+03  0.7546771E-02  0.1079858E+00
         21   -1    0    0  502  501  0.00000000000E+00  0.00000000000E+00  0.93902476331E+03  0.93902476331E+03  0.00000000000E+00 0. -1.
         21   -1    0    0  501  502 -0.00000000000E+00 -0.00000000000E+00 -0.10301545063E+03  0.10301545063E+03  0.00000000000E+00 0. -1.
         25    1    1    2    0    0 -0.41394771572E+02 -0.15698352807E+03  0.49175194141E+03  0.53273100818E+03  0.12500000000E+03 0.  0.
         25    1    1    2    0    0  0.10781203665E+03  0.12241125491E+03  0.28646769385E+03  0.35255735731E+03  0.12500000000E+03 0.  0.
         25    1    1    2    0    0 -0.66417265081E+02  0.34572273152E+02  0.57789677422E+02  0.15675184844E+03  0.12500000000E+03 0.  0.
</event>
<event>
 5    0  0.5728184E-005  0.6813770E+03  0.7546771E-02  0.9749621E-01
         21   -1    0    0  502  501  0.00000000000E+00  0.00000000000E+00  0.69561125101E+03  0.69561125101E+03  0.00000000000E+00 0.  1.
         21   -1    0    0  501  502 -0.00000000000E+00 -0.00000000000E+00 -0.66743396427E+03  0.66743396427E+03  0.00000000000E+00 0.  1.
         25    1    1    2    0    0 -0.11304669135E+03  0.18882230062E+03 -0.55237747789E+03  0.60760126211E+03  0.12500000000E+03 0.  0.
         25    1    1    2    0    0  0.22420235017E+03 -0.14066247080E+03  0.26394191955E+03  0.39413571446E+03  0.12500000000E+03 0.  0.
         25    1    1    2    0    0 -0.11115565882E+03 -0.48159829822E+02  0.31661284508E+03  0.36130823872E+03  0.12500000000E+03 0.  0.
</event>
<event>
 5    0  0.5728184E-005  0.2233023E+03  0.7546771E-02  0.1131445E+00
         21   -1    0    0  502  501  0.00000000000E+00  0.00000000000E+00  0.14329633288E+03  0.14329633288E+03  0.00000000000E+00 0.  1.
         21   -1    0    0  501  502 -0.00000000000E+00 -0.00000000000E+00 -0.34797768136E+03  0.34797768136E+03  0.00000000000E+00 0.  1.
         25    1    1    2    0    0  0.10239097747E+02 -0.13938862171E+02 -0.15268498096E+03  0.19808289783E+03  0.12500000000E+03 0.  0.
         25    1    1    2    0    0 -0.48916427185E+02  0.46057716224E+02 -0.68270952249E+02  0.15748032573E+03  0.12500000000E+03 0.  0.
         25    1    1    2    0    0  0.38677329438E+02 -0.32118854053E+02  0.16274584723E+02  0.13571079068E+03  0.12500000000E+03 0.  0.
</event>
<event>
 5    0  0.5728184E-005  0.2887317E+03  0.7546771E-02  0.1091013E+00
         21   -1    0    0  502  501  0.00000000000E+00  0.00000000000E+00  0.48043112695E+03  0.48043112695E+03  0.00000000000E+00 0. -1.
         21   -1    0    0  501  502 -0.00000000000E+00 -0.00000000000E+00 -0.17352333521E+03  0.17352333521E+03  0.00000000000E+00 0. -1.
         25    1    1    2    0    0  0.50731189434E+02  0.12693499466E+03  0.16259567835E+03  0.24647211013E+03  0.12500000000E+03 0.  0.
         25    1    1    2    0    0 -0.92409655550E+02 -0.13321919505E+03  0.17805315907E+03  0.27132052230E+03  0.12500000000E+03 0.  0.
         25    1    1    2    0    0  0.41678466116E+02  0.62842003915E+01 -0.33741045683E+02  0.13616182973E+03  0.12500000000E+03 0.  0.
</event>
<event>
 5    0  0.5728184E-005  0.3281926E+03  0.7546771E-02  0.1071939E+00
         21   -1    0    0  502  501  0.00000000000E+00  0.00000000000E+00  0.37923669381E+03  0.37923669381E+03  0.00000000000E+00 0.  1.
         21   -1    0    0  501  502 -0.00000000000E+00 -0.00000000000E+00 -0.28401886674E+03  0.28401886674E+03  0.00000000000E+00 0.  1.
         25    1    1    2    0    0 -0.13258372261E+03 -0.21706430257E+02  0.34965697612E+02  0.18680795653E+03  0.12500000000E+03 0.  0.
         25    1    1    2    0    0 -0.12589275767E+03  0.25950279886E+02 -0.14040957529E+02  0.17984591168E+03  0.12500000000E+03 0.  0.
         25    1    1    2    0    0  0.25847648028E+03 -0.42438496285E+01  0.74293086990E+02  0.29660169233E+03  0.12500000000E+03 0.  0.
</event>
<event>
 5    0  0.5728184E-005  0.5055501E+03  0.7546771E-02  0.1012340E+00
         21   -1    0    0  502  501  0.00000000000E+00  0.00000000000E+00  0.13890475866E+04  0.13890475866E+04  0.00000000000E+00 0.  1.
         21   -1    0    0  501  502 -0.00000000000E+00 -0.00000000000E+00 -0.18399719813E+03  0.18399719813E+03  0.00000000000E+00 0.  1.
         25    1    1    2    0    0 -0.39502211419E+02 -0.16729330044E+03 -0.53097777677E+01  0.21260448447E+03  0.12500000000E+03 0.  0.
         25    1    1    2    0    0  0.11151797963E+03 -0.13918827124E+03  0.79591952398E+03  0.82518029744E+03  0.12500000000E+03 0.  0.
         25    1    1    2    0    0 -0.72015768207E+02  0.30648157168E+03  0.41444064225E+03  0.53526000280E+03  0.12500000000E+03 0.  0.
</event>
<event>
 5    0  0.5728184E-005  0.3251380E+03  0.7546771E-02  0.1073309E+00
         21   -1    0    0  502  501  0.00000000000E+00  0.00000000000E+00  0.11663228974E+04  0.11663228974E+04  0.00000000000E+00 0.  1.
         21   -1    0    0  501  502 -0.00000000000E+00 -0.00000000000E+00 -0.90639347458E+02  0.90639347458E+02  0.00000000000E+00 0.  1.
         25    1    1    2    0    0  0.73191467055E+02 -0.11779901966E+03  0.55992356560E+03  0.59023130991E+03  0.12500000000E+03 0.  0.
         25    1    1    2    0    0 -0.25541184709E+02 -0.27950728824E+02  0.18945230834E+02  0.13197544139E+03  0.12500000000E+03 0.  0.
         25    1    1    2    0    0 -0.47650282346E+02  0.14574974848E+03  0.49681475351E+03  0.53475549356E+03  0.12500000000E+03 0.  0.
</event>
<event>
 5    0  0.5728184E-005  0.2399541E+03  0.7546771E-02  0.1119823E+00
         21   -1    0    0  502  501  0.00000000000E+00  0.00000000000E+00  0.16144770822E+04  0.16144770822E+04  0.00000000000E+00 0.  1.
         21   -1    0    0  501  502 -0.00000000000E+00 -0.00000000000E+00 -0.35663549170E+02  0.35663549170E+02  0.00000000000E+00 0.  1.
         25    1    1    2    0    0  0.61509161015E+02 -0.37928974062E+02  0.39903781964E+03  0.42435617760E+03  0.12500000000E+03 0.  0.
         25    1    1    2    0    0 -0.21070574831E+02  0.13968118676E+02  0.20171293401E+03  0.23864656966E+03  0.12500000000E+03 0.  0.
         25    1    1    2    0    0 -0.40438586184E+02  0.23960855386E+02  0.97806277936E+03  0.98713788409E+03  0.12500000000E+03 0.  0.
</event>
<event>
 5    0  0.5728184E-005  0.3096275E+03  0.7546771E-02  0.1080525E+00
         21   -1    0    0  502  501  0.00000000000E+00  0.00000000000E+00  0.67255351989E+03  0.67255351989E+03  0.00000000000E+00 0.  1.
         21   -1    0    0  501  502 -0.00000000000E+00 -0.00000000000E+00 -0.14254503454E+03  0.14254503454E+03  0.00000000000E+00 0.  1.
         25    1    1    2    0    0  0.10216319987E+03 -0.23030728505E+02  0.19972610435E+03  0.25784346147E+03  0.12500000000E+03 0.  0.
         25    1    1    2    0    0 -0.22847012278E+03 -0.94239337686E+01  0.14386999785E+03  0.29767597117E+03  0.12500000000E+03 0.  0.
         25    1    1    2    0    0  0.12630692291E+03  0.32454662273E+02  0.18641238315E+03  0.25957912179E+03  0.12500000000E+03 0.  0.
</event>
<event>
 5    0  0.5728184E-005  0.3128212E+03  0.7546771E-02  0.1079001E+00
         21   -1    0    0  502  501  0.00000000000E+00  0.00000000000E+00  0.15001718137E+03  0.15001718137E+03  0.00000000000E+00 0. -1.
         21   -1    0    0  501  502 -0.00000000000E+00 -0.00000000000E+00 -0.65230606946E+03  0.65230606946E+03  0.00000000000E+00 0. -1.
         25    1    1    2    0    0 -0.40946695628E+02 -0.18720965757E+02 -0.26155892194E+03  0.29336866924E+03  0.12500000000E+03 0.  0.
         25    1    1    2    0    0 -0.83211187924E+02  0.11562347002E+03 -0.24262684658E+03  0.30787282326E+03  0.12500000000E+03 0.  0.
         25    1    1    2    0    0  0.12415788355E+03 -0.96902504264E+02  0.18968804430E+01  0.20108175834E+03  0.12500000000E+03 0.  0.
</event>
<event>
 5    0  0.5728184E-005  0.5550104E+03  0.7546771E-02  0.1000341E+00
         21   -1    0    0  502  501  0.00000000000E+00  0.00000000000E+00  0.92401824185E+03  0.92401824185E+03  0.00000000000E+00 0.  1.
         21   -1    0    0  501  502 -0.00000000000E+00 -0.00000000000E+00 -0.33336631561E+03  0.33336631561E+03  0.00000000000E+00 0.  1.
         25    1    1    2    0    0 -0.41523874787E+03  0.22148770894E+03  0.35364604665E+03  0.60180607279E+03  0.12500000000E+03 0.  0.
         25    1    1    2    0    0  0.35053408214E+03 -0.18825142778E+03  0.28277481809E+03  0.50388425313E+03  0.12500000000E+03 0.  0.
         25    1    1    2    0    0  0.64704665729E+02 -0.33236281151E+02 -0.45768938495E+02  0.15169423154E+03  0.12500000000E+03 0.  0.
</event>
<event>
 5    0  0.5728184E-005  0.2722457E+03  0.7546771E-02  0.1100001E+00
         21   -1    0    0  502  501  0.00000000000E+00  0.00000000000E+00  0.21096198565E+04  0.21096198565E+04  0.00000000000E+00 0.  1.
         21   -1    0    0  501  502 -0.00000000000E+00 -0.00000000000E+00 -0.35133218766E+02  0.35133218766E+02  0.00000000000E+00 0.  1.
         25    1    1    2    0    0  0.72583192735E+02 -0.41497780242E+02  0.11130245177E+04  0.11231379980E+04  0.12500000000E+03 0.  0.
         25    1    1    2    0    0  0.71157726834E+02 -0.17409925008E+02  0.36477593461E+03  0.39249587265E+03  0.12500000000E+03 0.  0.
         25    1    1    2    0    0 -0.14374091957E+03  0.58907705250E+02  0.59668618545E+03  0.62911920460E+03  0.12500000000E+03 0.  0.
</event>
<event>
 5    0  0.5728184E-005  0.4267974E+03  0.7546771E-02  0.1034876E+00
         21   -1    0    0  502  501  0.00000000000E+00  0.00000000000E+00  0.17644510406E+03  0.17644510406E+03  0.00000000000E+00 0. -1.
         21   -1    0    0  501  502 -0.00000000000E+00 -0.00000000000E+00 -0.10323665634E+04  0.10323665634E+04  0.00000000000E+00 0. -1.
         25    1    1    2    0    0  0.57934237939E+02 -0.93249592875E+02 -0.33678192849E+03  0.37563137496E+03  0.12500000000E+03 0.  0.
         25    1    1    2    0    0 -0.32550270843E+03  0.37154663504E+02 -0.29435850994E+03  0.45782574697E+03  0.12500000000E+03 0.  0.
         25    1    1    2    0    0  0.26756847049E+03  0.56094929371E+02 -0.22478102095E+03  0.37535454557E+03  0.12500000000E+03 0.  0.
</event>
<event>
 5    0  0.5728184E-005  0.4105358E+03  0.7546771E-02  0.1040191E+00
         21   -1    0    0  502  501  0.00000000000E+00  0.00000000000E+00  0.38836632476E+03  0.38836632476E+03  0.00000000000E+00 0.  1.
         21   -1    0    0  501  502 -0.00000000000E+00 -0.00000000000E+00 -0.43397083816E+03  0.43397083816E+03  0.00000000000E+00 0.  1.
         25    1    1    2    0    0 -0.71420299483E+02 -0.83744843339E+02 -0.11437726313E+03  0.20204261007E+03  0.12500000000E+03 0.  0.
         25    1    1    2    0    0  0.72180162295E+02  0.22774469884E+02  0.30950916328E+03  0.34227120016E+03  0.12500000000E+03 0.  0.
         25    1    1    2    0    0 -0.75986281137E+00  0.60970373455E+02 -0.24073641355E+03  0.27802335269E+03  0.12500000000E+03 0.  0.
</event>
<event>
 5    0  0.5728184E-005  0.2475784E+03  0.7546771E-02  0.1114845E+00
         21   -1    0    0  502  501  0.00000000000E+00  0.00000000000E+00  0.93640479863E+02  0.93640479863E+02  0.00000000000E+00 0. -1.
         21   -1    0    0  501  502 -0.00000000000E+00 -0.00000000000E+00 -0.65457854686E+03  0.65457854686E+03  0.00000000000E+00 0. -1.
         25    1    1    2    0    0 -0.78003698450E+02 -0.10770915765E+03 -0.25890712061E+03  0.31677079523E+03  0.12500000000E+03 0.  0.
         25    1    1    2    0    0  0.30885944612E+02  0.10665645364E+03 -0.21354050862E+03  0.27120857195E+03  0.12500000000E+03 0.  0.
         25    1    1    2    0    0  0.47117753838E+02  0.10527040107E+01 -0.88490437769E+02  0.16023965954E+03  0.12500000000E+03 0.  0.
</event>
<event>
 5    0  0.5728184E-005  0.2891314E+03  0.7546771E-02  0.1090804E+00
         21   -1    0    0  502  501  0.00000000000E+00  0.00000000000E+00  0.62302839176E+03  0.62302839176E+03  0.00000000000E+00 0.  1.
         21   -1    0    0  501  502 -0.00000000000E+00 -0.00000000000E+00 -0.13417841664E+03  0.13417841664E+03  0.00000000000E+00 0.  1.
         25    1    1    2    0    0  0.64535745315E+02  0.34516377400E+02  0.29490165394E+03  0.32855475682E+03  0.12500000000E+03 0.  0.
         25    1    1    2    0    0  0.10134599567E+03 -0.12644112664E+02  0.32466414573E+02  0.16465100212E+03  0.12500000000E+03 0.  0.
         25    1    1    2    0    0 -0.16588174099E+03 -0.21872264735E+02  0.16148190660E+03  0.26400104946E+03  0.12500000000E+03 0.  0.
</event>
<event>
 5    0  0.5728184E-005  0.3756942E+03  0.7546771E-02  0.1052537E+00
         21   -1    0    0  502  501  0.00000000000E+00  0.00000000000E+00  0.18836193989E+03  0.18836193989E+03  0.00000000000E+00 0.  1.
         21   -1    0    0  501  502 -0.00000000000E+00 -0.00000000000E+00 -0.74933486440E+03  0.74933486440E+03  0.00000000000E+00 0.  1.
         25    1    1    2    0    0 -0.44740268011E+01 -0.10639464814E+03 -0.39943115524E+03  0.43186813479E+03  0.12500000000E+03 0.  0.
         25    1    1    2    0    0 -0.12395069026E+03  0.18877835447E+03 -0.16886374117E+03  0.30844935373E+03  0.12500000000E+03 0.  0.
         25    1    1    2    0    0  0.12842471706E+03 -0.82383706337E+02  0.73219718989E+01  0.19737931577E+03  0.12500000000E+03 0.  0.
</event>
<event>
 5    0  0.5728184E-005  0.6086084E+03  0.7546771E-02  0.9887706E-01
         21   -1    0    0  502  501  0.00000000000E+00  0.00000000000E+00  0.79882653727E+03  0.79882653727E+03  0.00000000000E+00 0. -1.
         21   -1    0    0  501  502 -0.00000000000E+00 -0.00000000000E+00 -0.46368540241E+03  0.46368540241E+03  0.00000000000E+00 0. -1.
         25    1    1    2    0    0 -0.49389582722E+03  0.90983144985E+02  0.13091200497E+03  0.53382953633E+03  0.12500000000E+03 0.  0.
         25    1    1    2    0    0  0.46492447339E+03 -0.41932129405E+02  0.85129782744E+00  0.48325851689E+03  0.12500000000E+03 0.  0.
         25    1    1    2    0    0  0.28971353824E+02 -0.49051015580E+02  0.20337783207E+03  0.24542388647E+03  0.12500000000E+03 0.  0.
</event>
<event>
 5    0  0.5728184E-005  0.3686609E+03  0.7546771E-02  0.1055206E+00
         21   -1    0    0  502  501  0.00000000000E+00  0.00000000000E+00  0.53672075454E+03  0.53672075454E+03  0.00000000000E+00 0. -1.
         21   -1    0    0  501  502 -0.00000000000E+00 -0.00000000000E+00 -0.25322450868E+03  0.25322450868E+03  0.00000000000E+00 0.  1.
         25    1    1    2    0    0 -0.24722943105E+03 -0.34526275814E+02  0.10901750397E+03  0.29970697601E+03  0.12500000000E+03 0.  0.
         25    1    1    2    0    0  0.22641472356E+03  0.13207923825E+03  0.68448548882E+02  0.29836011139E+03  0.12500000000E+03 0.  0.
         25    1    1    2    0    0  0.20814707488E+02 -0.97552962441E+02  0.10603019300E+03  0.19187817582E+03  0.12500000000E+03 0.  0.
</event>
<event>
 5    0  0.5728184E-005  0.5326094E+03  0.7546771E-02  0.1005601E+00
         21   -1    0    0  502  501  0.00000000000E+00  0.00000000000E+00  0.29472903955E+04  0.29472903955E+04  0.00000000000E+00 0.  1.
         21   -1    0    0  501  502 -0.00000000000E+00 -0.00000000000E+00 -0.96248662312E+02  0.96248662312E+02  0.00000000000E+00 0.  1.
         25    1    1    2    0    0 -0.77407749002E+02  0.40511643264E+02  0.15050760103E+04  0.15127828494E+04  0.12500000000E+03 0.  0.
         25    1    1    2    0    0 -0.28139094611E+02  0.12993890654E+03  0.19625166378E+02  0.18353766707E+03  0.12500000000E+03 0.  0.
         25    1    1    2    0    0  0.10554684361E+03 -0.17045054980E+03  0.13263405565E+04  0.13472185413E+04  0.12500000000E+03 0.  0.
</event>
<event>
 5    0  0.5728184E-005  0.3759952E+03  0.7546771E-02  0.1052424E+00
         21   -1    0    0  502  501  0.00000000000E+00  0.00000000000E+00  0.11598129037E+04  0.11598129037E+04  0.00000000000E+00 0.  1.
         21   -1    0    0  501  502 -0.00000000000E+00 -0.00000000000E+00 -0.12189238793E+03  0.12189238793E+03  0.00000000000E+00 0.  1.
         25    1    1    2    0    0  0.38438822435E+02  0.49989827780E+02  0.25145984298E+03  0.28780823231E+03  0.12500000000E+03 0.  0.
         25    1    1    2    0    0  0.50822505361E+02  0.11475390563E+03  0.13744251190E+01  0.17713914010E+03  0.12500000000E+03 0.  0.
         25    1    1    2    0    0 -0.89261327796E+02 -0.16474373341E+03  0.78508624769E+03  0.81675791924E+03  0.12500000000E+03 0.  0.
</event>
<event>
 5    0  0.5728184E-005  0.2228211E+03  0.7546771E-02  0.1131797E+00
         21   -1    0    0  502  501  0.00000000000E+00  0.00000000000E+00  0.42465640048E+03  0.42465640048E+03  0.00000000000E+00 0. -1.
         21   -1    0    0  501  502 -0.00000000000E+00 -0.00000000000E+00 -0.11691629143E+03  0.11691629143E+03  0.00000000000E+00 0. -1.
         25    1    1    2    0    0  0.64703449867E+02 -0.43431875232E+02  0.57998369943E+02  0.15830879675E+03  0.12500000000E+03 0.  0.
         25    1    1    2    0    0 -0.53209423218E+02  0.16352011051E+02  0.20658237821E+03  0.24779005220E+03  0.12500000000E+03 0.  0.
         25    1    1    2    0    0 -0.11494026649E+02  0.27079864181E+02  0.43159360903E+02  0.13547384296E+03  0.12500000000E+03 0.  0.
</event>
<event>
 5    0  0.5728184E-005  0.3022453E+03  0.7546771E-02  0.1084124E+00
         21   -1    0    0  502  501  0.00000000000E+00  0.00000000000E+00  0.11456238141E+04  0.11456238141E+04  0.00000000000E+00 0. -1.
         21   -1    0    0  501  502 -0.00000000000E+00 -0.00000000000E+00 -0.79740177541E+02  0.79740177541E+02  0.00000000000E+00 0. -1.
         25    1    1    2    0    0  0.49848209150E+02 -0.17414053581E+03  0.56891264975E+03  0.60999702721E+03  0.12500000000E+03 0.  0.
         25    1    1    2    0    0 -0.56607248406E+02  0.68841648686E+02  0.92900534245E+02  0.17944097199E+03  0.12500000000E+03 0.  0.
         25    1    1    2    0    0  0.67590392563E+01  0.10529888713E+03  0.40407045256E+03  0.43592599243E+03  0.12500000000E+03 0.  0.
</event>
<event>
 5    0  0.5728184E-005  0.2969513E+03  0.7546771E-02  0.1086775E+00
         21   -1    0    0  502  501  0.00000000000E+00  0.00000000000E+00  0.18878749111E+03  0.18878749111E+03  0.00000000000E+00 0.  1.
         21   -1    0    0  501  502 -0.00000000000E+00 -0.00000000000E+00 -0.46708629709E+03  0.46708629709E+03  0.00000000000E+00 0.  1.
         25    1    1    2    0    0 -0.12397816173E+03  0.67335750913E+02 -0.62808366341E+01  0.18859781771E+03  0.12500000000E+03 0.  0.
         25    1    1    2    0    0 -0.64512595610E+02 -0.73509872756E+01 -0.66166439488E+02  0.15562425814E+03  0.12500000000E+03 0.  0.
         25    1    1    2    0    0  0.18849075734E+03 -0.59984763637E+02 -0.20585152986E+03  0.31165171236E+03  0.12500000000E+03 0.  0.
</event>
<event>
 5    0  0.5728184E-005  0.3658669E+03  0.7546771E-02  0.1056285E+00
         21   -1    0    0  502  501  0.00000000000E+00  0.00000000000E+00  0.28580457172E+03  0.28580457172E+03  0.00000000000E+00 0. -1.
         21   -1    0    0  501  502 -0.00000000000E+00 -0.00000000000E+00 -0.46835709728E+03  0.46835709728E+03  0.00000000000E+00 0.  1.
         25    1    1    2    0    0 -0.34194409045E+02 -0.13614499079E+03 -0.25030192940E+03  0.31301880453E+03  0.12500000000E+03 0.  0.
         25    1    1    2    0    0  0.10318187820E+03 -0.29290241668E+02 -0.74105354025E+02  0.18061290580E+03  0.12500000000E+03 0.  0.
         25    1    1    2    0    0 -0.68987469155E+02  0.16543523246E+03  0.14185475787E+03  0.26052995868E+03  0.12500000000E+03 0.  0.
</event>
<event>
 5    0  0.5728184E-005  0.2570624E+03  0.7546771E-02  0.1108921E+00
         21   -1    0    0  502  501  0.00000000000E+00  0.00000000000E+00  0.48044828153E+02  0.48044828153E+02  0.00000000000E+00 0.  1.
         21   -1    0    0  501  502 -0.00000000000E+00 -0.00000000000E+00 -0.13754047607E+04  0.13754047607E+04  0.00000000000E+00 0.  1.
         25    1    1    2    0    0  0.85229963110E+01 -0.67636009100E+02 -0.79752842385E+03  0.81013817219E+03  0.12500000000E+03 0.  0.
         25    1    1    2    0    0  0.55064699655E+02 -0.27442669923E+02 -0.22926261633E+03  0.26827517315E+03  0.12500000000E+03 0.  0.
         25    1    1    2    0    0 -0.63587695966E+02  0.95078679022E+02 -0.30056889240E+03  0.34503624354E+03  0.12500000000E+03 0.  0.
</event>
<event>
 5    0  0.5728184E-005  0.3316305E+03  0.7546771E-02  0.1070418E+00
         21   -1    0    0  502  501  0.00000000000E+00  0.00000000000E+00  0.60256624093E+03  0.60256624093E+03  0.00000000000E+00 0. -1.
         21   -1    0    0  501  502 -0.00000000000E+00 -0.00000000000E+00 -0.18251732063E+03  0.18251732063E+03  0.00000000000E+00 0. -1.
         25    1    1    2    0    0 -0.10330968486E+02 -0.16498925476E+01 -0.91355614679E+02  0.15517828259E+03  0.12500000000E+03 0.  0.
         25    1    1    2    0    0  0.12136466640E+02  0.13467104209E+03  0.23280469966E+03  0.29682757888E+03  0.12500000000E+03 0.  0.
         25    1    1    2    0    0 -0.18054981539E+01 -0.13302114955E+03  0.27859983532E+03  0.33307770008E+03  0.12500000000E+03 0.  0.
</event>
<event>
 5    0  0.5728184E-005  0.2869570E+03  0.7546771E-02  0.1091949E+00
         21   -1    0    0  502  501  0.00000000000E+00  0.00000000000E+00  0.70147571434E+02  0.70147571434E+02  0.00000000000E+00 0. -1.
         21   -1    0    0  501  502 -0.00000000000E+00 -0.00000000000E+00 -0.11738729637E+04  0.11738729637E+04  0.00000000000E+00 0. -1.
         25    1    1    2    0    0  0.77479655777E+02  0.14712592104E+03 -0.29217030156E+03  0.35866086881E+03  0.12500000000E+03 0.  0.
         25    1    1    2    0    0 -0.11644852280E+03 -0.13531639227E+03 -0.43548583806E+03  0.48697402357E+03  0.12500000000E+03 0.  0.
         25    1    1    2    0    0  0.38968867028E+02 -0.11809528767E+02 -0.37606925261E+03  0.39838564272E+03  0.12500000000E+03 0.  0.
</event>
<event>
 5    0  0.5728184E-005  0.3115030E+03  0.7546771E-02  0.1079628E+00
         21   -1    0    0  502  501  0.00000000000E+00  0.00000000000E+00  0.90021375117E+02  0.90021375117E+02  0.00000000000E+00 0.  1.
         21   -1    0    0  501  502 -0.00000000000E+00 -0.00000000000E+00 -0.10779008775E+04  0.10779008775E+04  0.00000000000E+00 0.  1.
         25    1    1    2    0    0 -0.47040521358E+02  0.11490008539E+03 -0.18722299105E+03  0.25708420537E+03  0.12500000000E+03 0.  0.
         25    1    1    2    0    0 -0.34457620647E+02  0.10439177883E+03 -0.35771335238E+03  0.39454887350E+03  0.12500000000E+03 0.  0.
         25    1    1    2    0    0  0.81498142004E+02 -0.21929186422E+03 -0.44294315893E+03  0.51628917372E+03  0.12500000000E+03 0.  0.
</event>
<event>
 5    0  0.5728184E-005  0.3289160E+03  0.7546771E-02  0.1071617E+00
         21   -1    0    0  502  501  0.00000000000E+00  0.00000000000E+00  0.94053209742E+02  0.94053209742E+02  0.00000000000E+00 0. -1.
         21   -1    0    0  501  502 -0.00000000000E+00 -0.00000000000E+00 -0.11502612798E+04  0.11502612798E+04  0.00000000000E+00 0. -1.
         25    1    1    2    0    0 -0.13266236564E+01  0.25703133867E+01 -0.39464884331E+03  0.41398197541E+03  0.12500000000E+03 0.  0.
         25    1    1    2    0    0 -0.13026678514E+03  0.13768236357E+03 -0.50188553455E+03  0.55085384481E+03  0.12500000000E+03 0.  0.
         25    1    1    2    0    0  0.13159340880E+03 -0.14025267695E+03 -0.15967369223E+03  0.27947866935E+03  0.12500000000E+03 0.  0.
</event>
<event>
 5    0  0.5728184E-005  0.3411674E+03  0.7546771E-02  0.1066300E+00
         21   -1    0    0  502  501  0.00000000000E+00  0.00000000000E+00  0.47234628513E+03  0.47234628513E+03  0.00000000000E+00 0.  1.
         21   -1    0    0  501  502 -0.00000000000E+00 -0.00000000000E+00 -0.24641917886E+03  0.24641917886E+03  0.00000000000E+00 0.  1.
         25    1    1    2    0    0 -0.27802801152E+02 -0.12288680284E+03  0.19157771514E+03  0.26115356211E+03  0.12500000000E+03 0.  0.
         25    1    1    2    0    0  0.15530551187E+03  0.29856362604E+02 -0.90221918742E+02  0.22085334280E+03  0.12500000000E+03 0.  0.
         25    1    1    2    0    0 -0.12750271072E+03  0.93030440231E+02  0.12457130987E+03  0.23675855907E+03  0.12500000000E+03 0.  0.
</event>
<event>
 5    0  0.5728184E-005  0.3911871E+03  0.7546771E-02  0.1046875E+00
         21   -1    0    0  502  501  0.00000000000E+00  0.00000000000E+00  0.94761176805E+02  0.94761176805E+02  0.00000000000E+00 0.  1.
         21   -1    0    0  501  502 -0.00000000000E+00 -0.00000000000E+00 -0.16148739965E+04  0.16148739965E+04  0.00000000000E+00 0.  1.
         25    1    1    2    0    0  0.22140644426E+03  0.12004325623E+03 -0.28111132732E+03  0.39759247387E+03  0.12500000000E+03 0.  0.
         25    1    1    2    0    0 -0.21783066933E+03 -0.10046667196E+02 -0.89848732330E+03  0.93298210388E+03  0.12500000000E+03 0.  0.
         25    1    1    2    0    0 -0.35757749289E+01 -0.10999658903E+03 -0.34051416903E+03  0.37906059551E+03  0.12500000000E+03 0.  0.
</event>
<event>
 5    0  0.5728184E-005  0.2600621E+03  0.7546771E-02  0.1107106E+00
         21   -1    0    0  502  501  0.00000000000E+00  0.00000000000E+00  0.16822005994E+04  0.16822005994E+04  0.00000000000E+00 0.  1.
         21   -1    0    0  501  502 -0.00000000000E+00 -0.00000000000E+00 -0.40204642637E+02  0.40204642637E+02  0.00000000000E+00 0.  1.
         25    1    1    2    0    0 -0.39055968937E+02  0.24484605689E+01  0.31457754824E+03  0.34075709461E+03  0.12500000000E+03 0.  0.
         25    1    1    2    0    0  0.75414753282E+02 -0.56345338415E+02  0.24916704644E+03  0.29423018065E+03  0.12500000000E+03 0.  0.
         25    1    1    2    0    0 -0.36358784345E+02  0.53896877846E+02  0.10782513621E+04  0.10874179668E+04  0.12500000000E+03 0.  0.
</event>
<event>
 5    0  0.5728184E-005  0.3491914E+03  0.7546771E-02  0.1062947E+00
         21   -1    0    0  502  501  0.00000000000E+00  0.00000000000E+00  0.26263847075E+03  0.26263847075E+03  0.00000000000E+00 0.  1.
         21   -1    0    0  501  502 -0.00000000000E+00 -0.00000000000E+00 -0.46426801416E+03  0.46426801416E+03  0.00000000000E+00 0.  1.
         25    1    1    2    0    0 -0.42452193049E+02  0.13971710723E+03  0.80936125321E+02  0.20856345588E+03  0.12500000000E+03 0.  0.
         25    1    1    2    0    0 -0.13820622795E+03 -0.47647539391E+02 -0.16143721008E+03  0.25111396268E+03  0.12500000000E+03 0.  0.
         25    1    1    2    0    0  0.18065842100E+03 -0.92069567842E+02 -0.12112845866E+03  0.26722906634E+03  0.12500000000E+03 0.  0.
</event>
<event>
 5    0  0.5728184E-005  0.4304127E+03  0.7546771E-02  0.1033730E+00
         21   -1    0    0  502  501  0.00000000000E+00  0.00000000000E+00  0.36589676540E+03  0.36589676540E+03  0.00000000000E+00 0. -1.
         21   -1    0    0  501  502 -0.00000000000E+00 -0.00000000000E+00 -0.50630432966E+03  0.50630432966E+03  0.00000000000E+00 0. -1.
         25    1    1    2    0    0  0.84308635580E+02  0.40170240254E+02 -0.30118694597E+03  0.33920520435E+03  0.12500000000E+03 0.  0.
         25    1    1    2    0    0 -0.13092719069E+03 -0.90885830533E+01 -0.12220898924E+03  0.21859681758E+03  0.12500000000E+03 0.  0.
         25    1    1    2    0    0  0.46618555112E+02 -0.31081657201E+02  0.28298837094E+03  0.31439907313E+03  0.12500000000E+03 0.  0.
</event>
<event>
 5    0  0.5728184E-005  0.3041761E+03  0.7546771E-02  0.1083171E+00
         21   -1    0    0  502  501  0.00000000000E+00  0.00000000000E+00  0.98332722483E+02  0.98332722483E+02  0.00000000000E+00 0.  1.
         21   -1    0    0  501  502 -0.00000000000E+00 -0.00000000000E+00 -0.94091842293E+03  0.94091842293E+03  0.00000000000E+00 0.  1.
         25    1    1    2    0    0 -0.69014502934E+02 -0.14536041546E+02 -0.61777700625E+03  0.63423002733E+03  0.12500000000E+03 0.  0.
         25    1    1    2    0    0  0.52377418149E+02 -0.98483357264E+02 -0.11457832241E+03  0.20296688783E+03  0.12500000000E+03 0.  0.
         25    1    1    2    0    0  0.16637084785E+02  0.11301939881E+03 -0.11023037179E+03  0.20205423025E+03  0.12500000000E+03 0.  0.
</event>
<event>
 5    0  0.6066542E-005  0.3871812E+03  0.7546771E-02  0.1048311E+00
         21   -1    0    0  502  501  0.00000000000E+00  0.00000000000E+00  0.55523454699E+03  0.55523454699E+03  0.00000000000E+00 0.  1.
         21   -1    0    0  501  502 -0.00000000000E+00 -0.00000000000E+00 -0.26999274936E+03  0.26999274936E+03  0.00000000000E+00 0.  1.
         25    1    1    2    0    0  0.19927014295E+03 -0.46609073755E+02  0.10567262925E+03  0.26205476565E+03  0.12500000000E+03 0.  0.
         25    1    1    2    0    0 -0.21027168684E+03  0.35826220121E+02  0.30011577672E+03  0.38883438605E+03  0.12500000000E+03 0.  0.
         25    1    1    2    0    0  0.11001543893E+02  0.10782853635E+02 -0.12054660834E+03  0.17433814465E+03  0.12500000000E+03 0.  0.
</event>
<event>
 5    0  0.5728184E-005  0.4194422E+03  0.7546771E-02  0.1037248E+00
         21   -1    0    0  502  501  0.00000000000E+00  0.00000000000E+00  0.22275526261E+03  0.22275526261E+03  0.00000000000E+00 0. -1.
         21   -1    0    0  501  502 -0.00000000000E+00 -0.00000000000E+00 -0.78979843460E+03  0.78979843460E+03  0.00000000000E+00 0. -1.
         25    1    1    2    0    0  0.28690164882E+03  0.37628389114E+02 -0.40496932972E+03  0.51317990001E+03  0.12500000000E+03 0.  0.
         25    1    1    2    0    0  0.16579827537E+02  0.14125788788E+02  0.59732781420E+01  0.12702404749E+03  0.12500000000E+03 0.  0.
         25    1    1    2    0    0 -0.30348147636E+03 -0.51754177903E+02 -0.16804712042E+03  0.37234974970E+03  0.12500000000E+03 0.  0.
</event>
<event>
 5    0  0.5728184E-005  0.3027640E+03  0.7546771E-02  0.1083867E+00
         21   -1    0    0  502  501  0.00000000000E+00  0.00000000000E+00  0.37811445609E+03  0.37811445609E+03  0.00000000000E+00 0.  1.
         21   -1    0    0  501  502 -0.00000000000E+00 -0.00000000000E+00 -0.24242932518E+03  0.24242932518E+03  0.00000000000E+00 0.  1.
         25    1    1    2    0    0  0.18805049001E+03  0.11283231941E+03 -0.61879179568E+01  0.25250229588E+03  0.12500000000E+03 0.  0.
         25    1    1    2    0    0 -0.70016833488E+02 -0.46739468709E+02  0.94416245915E+02  0.17783802293E+03  0.12500000000E+03 0.  0.
         25    1    1    2    0    0 -0.11803365652E+03 -0.66092850702E+02  0.47456802961E+02  0.19020346246E+03  0.12500000000E+03 0.  0.
</event>
<event>
 5    0  0.5728184E-005  0.3565950E+03  0.7546771E-02  0.1059940E+00
         21   -1    0    0  502  501  0.00000000000E+00  0.00000000000E+00  0.17904822187E+04  0.17904822187E+04  0.00000000000E+00 0. -1.
         21   -1    0    0  501  502 -0.00000000000E+00 -0.00000000000E+00 -0.71019979053E+02  0.71019979053E+02  0.00000000000E+00 0. -1.
         25    1    1    2    0    0  0.12718363231E+03 -0.13260703782E+03  0.50915020464E+03  0.55553508773E+03  0.12500000000E+03 0.  0.
         25    1    1    2    0    0 -0.48382145908E+02 -0.25829023346E+02  0.98117726902E+03  0.99062697507E+03  0.12500000000E+03 0.  0.
         25    1    1    2    0    0 -0.78801486403E+02  0.15843606116E+03  0.22913476599E+03  0.31534013497E+03  0.12500000000E+03 0.  0.
</event>
<event>
 5    0  0.5728184E-005  0.3721515E+03  0.7546771E-02  0.1053873E+00
         21   -1    0    0  502  501  0.00000000000E+00  0.00000000000E+00  0.48981933451E+03  0.48981933451E+03  0.00000000000E+00 0. -1.
         21   -1    0    0  501  502 -0.00000000000E+00 -0.00000000000E+00 -0.28275058632E+03  0.28275058632E+03  0.00000000000E+00 0. -1.
         25    1    1    2    0    0  0.12717185736E+03  0.22650236262E+03  0.29747635511E+02  0.28980324946E+03  0.12500000000E+03 0.  0.
         25    1    1    2    0    0 -0.92635754608E+02 -0.97295206289E+02 -0.50677317422E+02  0.19037050901E+03  0.12500000000E+03 0.  0.
         25    1    1    2    0    0 -0.34536102755E+02 -0.12920715633E+03  0.22799843010E+03  0.29239616237E+03  0.12500000000E+03 0.  0.
</event>
<event>
 5    0  0.5728184E-005  0.2549361E+03  0.7546771E-02  0.1110224E+00
         21   -1    0    0  502  501  0.00000000000E+00  0.00000000000E+00  0.66273216658E+02  0.66273216658E+02  0.00000000000E+00 0.  1.
         21   -1    0    0  501  502 -0.00000000000E+00 -0.00000000000E+00 -0.98067422402E+03  0.98067422402E+03  0.00000000000E+00 0.  1.
         25    1    1    2    0    0  0.95357204381E+02  0.67873399207E+02 -0.53166743921E+03  0.55856518032E+03  0.12500000000E+03 0.  0.
         25    1    1    2    0    0 -0.13894164614E+02  0.85657800551E+01 -0.10540564211E+03  0.16432215245E+03  0.12500000000E+03 0.  0.
         25    1    1    2    0    0 -0.81463039766E+02 -0.76439179262E+02 -0.27732792604E+03  0.32406010791E+03  0.12500000000E+03 0.  0.
</event>
<event>
 5    0  0.5728184E-005  0.3322350E+03  0.7546771E-02  0.1070152E+00
         21   -1    0    0  502  501  0.00000000000E+00  0.00000000000E+00  0.39843036583E+03  0.39843036583E+03  0.00000000000E+00 0. -1.
         21   -1    0    0  501  502 -0.00000000000E+00 -0.00000000000E+00 -0.27703737160E+03  0.27703737160E+03  0.00000000000E+00 0. -1.
         25    1    1    2    0    0 -0.11097457972E+03 -0.55613782987E+02  0.27185072785E+03  0.32393837136E+03  0.12500000000E+03 0.  0.
         25    1    1    2    0    0  0.77332153658E+02 -0.42099501297E+02 -0.50536700515E+02  0.16103287893E+03  0.12500000000E+03 0.  0.
         25    1    1    2    0    0  0.33642426067E+02  0.97713284283E+02 -0.99921033100E+02  0.19049648714E+03  0.12500000000E+03 0.  0.
</event>
<event>
 5    0  0.5728184E-005  0.3967039E+03  0.7546771E-02  0.1044927E+00
         21   -1    0    0  502  501  0.00000000000E+00  0.00000000000E+00  0.33378990223E+03  0.33378990223E+03  0.00000000000E+00 0.  1.
         21   -1    0    0  501  502 -0.00000000000E+00 -0.00000000000E+00 -0.47147615202E+03  0.47147615202E+03  0.00000000000E+00 0.  1.
         25    1    1    2    0    0  0.10078753236E+03 -0.19850075597E+03 -0.18702102200E+03  0.31648465914E+03  0.12500000000E+03 0.  0.
         25    1    1    2    0    0 -0.42206834245E+02  0.16235925569E+03  0.19419225267E+03  0.28544277143E+03  0.12500000000E+03 0.  0.
         25    1    1    2    0    0 -0.58580698113E+02  0.36141500280E+02 -0.14485748047E+03  0.20333862368E+03  0.12500000000E+03 0.  0.
</event>
<event>
 5    0  0.5728184E-005  0.2074806E+03  0.7546771E-02  0.1143577E+00
         21   -1    0    0  502  501  0.00000000000E+00  0.00000000000E+00  0.21167494120E+04  0.21167494120E+04  0.00000000000E+00 0.  1.
         21   -1    0    0  501  502 -0.00000000000E+00 -0.00000000000E+00 -0.20336943632E+02  0.20336943632E+02  0.00000000000E+00 0.  1.
         25    1    1    2    0    0  0.16080627435E+02 -0.34030035905E+02  0.96209590125E+03  0.97091202131E+03  0.12500000000E+03 0.  0.
         25    1    1    2    0    0  0.17483872562E+02 -0.19196194238E+02  0.45376200864E+03  0.47138003793E+03  0.12500000000E+03 0.  0.
         25    1    1    2    0    0 -0.33564499997E+02  0.53226230143E+02  0.68055455853E+03  0.69479429644E+03  0.12500000000E+03 0.  0.
</event>
<event>
 5    0  0.5728184E-005  0.3225334E+03  0.7546771E-02  0.1074489E+00
         21   -1    0    0  502  501  0.00000000000E+00  0.00000000000E+00  0.51538126469E+03  0.51538126469E+03  0.00000000000E+00 0.  1.
         21   -1    0    0  501  502 -0.00000000000E+00 -0.00000000000E+00 -0.20184631097E+03  0.20184631097E+03  0.00000000000E+00 0.  1.
         25    1    1    2    0    0  0.36613098222E+02 -0.24797992392E+03  0.13675290544E+03  0.31170646252E+03  0.12500000000E+03 0.  0.
         25    1    1    2    0    0  0.74122160099E+00  0.67272489701E+02  0.73968113196E+02  0.16007004420E+03  0.12500000000E+03 0.  0.
         25    1    1    2    0    0 -0.37354319823E+02  0.18070743422E+03  0.10281393509E+03  0.24545106893E+03  0.12500000000E+03 0.  0.
</event>
<event>
 5    0  0.5728184E-005  0.4614234E+03  0.7546771E-02  0.1024369E+00
         21   -1    0    0  502  501  0.00000000000E+00  0.00000000000E+00  0.39042445288E+03  0.39042445288E+03  0.00000000000E+00 0. -1.
         21   -1    0    0  501  502 -0.00000000000E+00 -0.00000000000E+00 -0.54533357873E+03  0.54533357873E+03  0.00000000000E+00 0. -1.
         25    1    1    2    0    0  0.92540211146E+02  0.54321505710E+02 -0.83476908634E+02  0.18468327195E+03  0.12500000000E+03 0.  0.
         25    1    1    2    0    0 -0.12413281202E+03  0.23395631789E+03  0.18316947196E+03  0.34542809550E+03  0.12500000000E+03 0.  0.
         25    1    1    2    0    0  0.31592600878E+02 -0.28827782360E+03 -0.25460168918E+03  0.40564666416E+03  0.12500000000E+03 0.  0.
</event>
<event>
 5    0  0.5728184E-005  0.5880997E+03  0.7546771E-02  0.9930408E-01
         21   -1    0    0  502  501  0.00000000000E+00  0.00000000000E+00  0.91296689437E+03  0.91296689437E+03  0.00000000000E+00 0.  1.
         21   -1    0    0  501  502 -0.00000000000E+00 -0.00000000000E+00 -0.37883219424E+03  0.37883219424E+03  0.00000000000E+00 0.  1.
         25    1    1    2    0    0 -0.23540850957E+03  0.39298765422E+03 -0.29899257257E+02  0.47578926883E+03  0.12500000000E+03 0.  0.
         25    1    1    2    0    0  0.88675523683E+02 -0.24960770517E+01  0.12707845703E+03  0.19910678829E+03  0.12500000000E+03 0.  0.
         25    1    1    2    0    0  0.14673298588E+03 -0.39049157717E+03  0.43695550035E+03  0.61690303150E+03  0.12500000000E+03 0.  0.
</event>
<event>
 5    0  0.5728184E-005  0.2535280E+03  0.7546771E-02  0.1111095E+00
         21   -1    0    0  502  501  0.00000000000E+00  0.00000000000E+00  0.18877927163E+03  0.18877927163E+03  0.00000000000E+00 0.  1.
         21   -1    0    0  501  502 -0.00000000000E+00 -0.00000000000E+00 -0.34048464772E+03  0.34048464772E+03  0.00000000000E+00 0.  1.
         25    1    1    2    0    0 -0.75441182398E+02  0.28400015129E+02 -0.95982442596E+02  0.17701853617E+03  0.12500000000E+03 0.  0.
         25    1    1    2    0    0 -0.40527087431E+02  0.59944538440E+02 -0.68358573911E+02  0.15979263791E+03  0.12500000000E+03 0.  0.
         25    1    1    2    0    0  0.11596826983E+03 -0.88344553569E+02  0.12635640417E+02  0.19245274527E+03  0.12500000000E+03 0.  0.
</event>
<event>
 5    0  0.5728184E-005  0.2373943E+03  0.7546771E-02  0.1121541E+00
         21   -1    0    0  502  501  0.00000000000E+00  0.00000000000E+00  0.49307489886E+03  0.49307489886E+03  0.00000000000E+00 0. -1.
         21   -1    0    0  501  502 -0.00000000000E+00 -0.00000000000E+00 -0.11429508050E+03  0.11429508050E+03  0.00000000000E+00 0. -1.
         25    1    1    2    0    0 -0.24734109217E+02  0.10261965429E+03  0.10462263237E+03  0.19419954894E+03  0.12500000000E+03 0.  0.
         25    1    1    2    0    0  0.57034747750E+02 -0.11190627348E+03  0.13236560817E+03  0.22118234722E+03  0.12500000000E+03 0.  0.
         25    1    1    2    0    0 -0.32300638533E+02  0.92866191976E+01  0.14179157782E+03  0.19198808319E+03  0.12500000000E+03 0.  0.
</event>
<event>
 5    0  0.5728184E-005  0.3847824E+03  0.7546771E-02  0.1049180E+00
         21   -1    0    0  502  501  0.00000000000E+00  0.00000000000E+00  0.28003033501E+03  0.28003033501E+03  0.00000000000E+00 0. -1.
         21   -1    0    0  501  502 -0.00000000000E+00 -0.00000000000E+00 -0.52871956258E+03  0.52871956258E+03  0.00000000000E+00 0. -1.
         25    1    1    2    0    0  0.11563906934E+03 -0.25613914636E+03 -0.14151955839E+03  0.33857413083E+03  0.12500000000E+03 0.  0.
         25    1    1    2    0    0  0.41591412857E+02  0.75059320929E+02  0.47180189347E+02  0.15879142782E+03  0.12500000000E+03 0.  0.
         25    1    1    2    0    0 -0.15723048220E+03  0.18107982543E+03 -0.15434985852E+03  0.31138433894E+03  0.12500000000E+03 0.  0.
</event>
<event>
 5    0  0.5728184E-005  0.3131314E+03  0.7546771E-02  0.1078855E+00
         21   -1    0    0  502  501  0.00000000000E+00  0.00000000000E+00  0.52714851339E+03  0.52714851339E+03  0.00000000000E+00 0.  1.
         21   -1    0    0  501  502 -0.00000000000E+00 -0.00000000000E+00 -0.18600309093E+03  0.18600309093E+03  0.00000000000E+00 0.  1.
         25    1    1    2    0    0 -0.11264313067E+03  0.51667312768E+02  0.10825053404E+03  0.20664260019E+03  0.12500000000E+03 0.  0.
         25    1    1    2    0    0  0.71303556597E+02 -0.19741962615E+03  0.17892628554E+03  0.30281730735E+03  0.12500000000E+03 0.  0.
         25    1    1    2    0    0  0.41339574074E+02  0.14575231338E+03  0.53968602882E+02  0.20369169678E+03  0.12500000000E+03 0.  0.
</event>
<event>
 5    0  0.5728184E-005  0.3461978E+03  0.7546771E-02  0.1064187E+00
         21   -1    0    0  502  501  0.00000000000E+00  0.00000000000E+00  0.28501096184E+03  0.28501096184E+03  0.00000000000E+00 0.  1.
         21   -1    0    0  501  502 -0.00000000000E+00 -0.00000000000E+00 -0.42052044652E+03  0.42052044652E+03  0.00000000000E+00 0.  1.
         25    1    1    2    0    0  0.13431706831E+03 -0.10572164133E+03 -0.80087700760E+02  0.22640048608E+03  0.12500000000E+03 0.  0.
         25    1    1    2    0    0  0.93964046632E+02  0.46840340353E+02 -0.12237362543E+03  0.20401853775E+03  0.12500000000E+03 0.  0.
         25    1    1    2    0    0 -0.22828111494E+03  0.58881300977E+02  0.66951841503E+02  0.27511238453E+03  0.12500000000E+03 0.  0.
</event>
<event>
 5    0  0.5914281E-005  0.3578378E+03  0.7546771E-02  0.1059443E+00
         21   -1    0    0  502  501  0.00000000000E+00  0.00000000000E+00  0.23950784561E+03  0.23950784561E+03  0.00000000000E+00 0. -1.
         21   -1    0    0  501  502 -0.00000000000E+00 -0.00000000000E+00 -0.53462928541E+03  0.53462928541E+03  0.00000000000E+00 0. -1.
         25    1    1    2    0    0  0.52475071465E+02  0.12829538320E+03 -0.14449224919E+03  0.23604310740E+03  0.12500000000E+03 0.  0.
         25    1    1    2    0    0 -0.82766224351E+02  0.39984144028E+02  0.11877443579E+03  0.19540047662E+03  0.12500000000E+03 0.  0.
         25    1    1    2    0    0  0.30291152886E+02 -0.16827952723E+03 -0.26940362640E+03  0.34269354699E+03  0.12500000000E+03 0.  0.
</event>
<event>
 5    0  0.5728184E-005  0.3195679E+03  0.7546771E-02  0.1075848E+00
         21   -1    0    0  502  501  0.00000000000E+00  0.00000000000E+00  0.10162730372E+04  0.10162730372E+04  0.00000000000E+00 0. -1.
         21   -1    0    0  501  502 -0.00000000000E+00 -0.00000000000E+00 -0.10048837208E+03  0.10048837208E+03  0.00000000000E+00 0. -1.
         25    1    1    2    0    0 -0.62950400384E+02  0.12642826074E+03  0.53489296221E+03  0.56717046736E+03  0.12500000000E+03 0.  0.
         25    1    1    2    0    0  0.15618307007E+03 -0.11568414234E+03  0.28215217889E+03  0.36470649051E+03  0.12500000000E+03 0.  0.
         25    1    1    2    0    0 -0.93232669687E+02 -0.10744118399E+02  0.98739524055E+02  0.18488445145E+03  0.12500000000E+03 0.  0.
</event>
<event>
 5    0  0.5728184E-005  0.2745349E+03  0.7546771E-02  0.1098712E+00
         21   -1    0    0  502  501  0.00000000000E+00  0.00000000000E+00  0.29671884689E+03  0.29671884689E+03  0.00000000000E+00 0.  1.
         21   -1    0    0  501  502 -0.00000000000E+00 -0.00000000000E+00 -0.25400959582E+03  0.25400959582E+03  0.00000000000E+00 0.  1.
         25    1    1    2    0    0 -0.84912031010E+01  0.52484783333E+02 -0.13207792436E+03  0.18946327115E+03  0.12500000000E+03 0.  0.
         25    1    1    2    0    0  0.84262635666E+01  0.23839514131E+02 -0.71146974492E+01  0.12772996231E+03  0.12500000000E+03 0.  0.
         25    1    1    2    0    0  0.64939534376E-01 -0.76324297465E+02  0.18190187288E+03  0.23353520925E+03  0.12500000000E+03 0.  0.
</event>
<event>
 5    0  0.5728184E-005  0.2808501E+03  0.7546771E-02  0.1095226E+00
         21   -1    0    0  502  501  0.00000000000E+00  0.00000000000E+00  0.42713874914E+03  0.42713874914E+03  0.00000000000E+00 0.  1.
         21   -1    0    0  501  502 -0.00000000000E+00 -0.00000000000E+00 -0.18466315043E+03  0.18466315043E+03  0.00000000000E+00 0.  1.
         25    1    1    2    0    0 -0.52988769390E+02  0.17366064209E+02  0.29172277185E+02  0.13994788896E+03  0.12500000000E+03 0.  0.
         25    1    1    2    0    0  0.47337969493E+02 -0.15699066738E+03  0.19446231627E+03  0.28342114503E+03  0.12500000000E+03 0.  0.
         25    1    1    2    0    0  0.56507998970E+01  0.13962460317E+03  0.18841005256E+02  0.18843286558E+03  0.12500000000E+03 0.  0.
</event>
<event>
 5    0  0.5728184E-005  0.3787438E+03  0.7546771E-02  0.1051399E+00
         21   -1    0    0  502  501  0.00000000000E+00  0.00000000000E+00  0.80933462734E+03  0.80933462734E+03  0.00000000000E+00 0.  1.
         21   -1    0    0  501  502 -0.00000000000E+00 -0.00000000000E+00 -0.17724048307E+03  0.17724048307E+03  0.00000000000E+00 0.  1.
         25    1    1    2    0    0  0.84250264489E+02 -0.22834557721E+03  0.21406820998E+03  0.34740467501E+03  0.12500000000E+03 0.  0.
         25    1    1    2    0    0  0.28472713905E+02  0.23367818940E+03  0.11045867264E+03  0.28851743448E+03  0.12500000000E+03 0.  0.
         25    1    1    2    0    0 -0.11272297839E+03 -0.53326121937E+01  0.30756726164E+03  0.35065300091E+03  0.12500000000E+03 0.  0.
</event>
<event>
 5    0  0.5728184E-005  0.2946491E+03  0.7546771E-02  0.1087946E+00
         21   -1    0    0  502  501  0.00000000000E+00  0.00000000000E+00  0.23330322219E+03  0.23330322219E+03  0.00000000000E+00 0. -1.
         21   -1    0    0  501  502 -0.00000000000E+00 -0.00000000000E+00 -0.37212567458E+03  0.37212567458E+03  0.00000000000E+00 0. -1.
         25    1    1    2    0    0  0.18146871044E+03 -0.10860098877E+03 -0.57017641258E+02  0.25219254359E+03  0.12500000000E+03 0.  0.
         25    1    1    2    0    0 -0.42775589263E+02  0.80430361543E+02 -0.31885200313E+02  0.15792548906E+03  0.12500000000E+03 0.  0.
         25    1    1    2    0    0 -0.13869312117E+03  0.28170627222E+02 -0.49919610828E+02  0.19531086412E+03  0.12500000000E+03 0.  0.
</event>
<event>
 5    0  0.5728184E-005  0.2978195E+03  0.7546771E-02  0.1086336E+00
         21   -1    0    0  502  501  0.00000000000E+00  0.00000000000E+00  0.40067320604E+03  0.40067320604E+03  0.00000000000E+00 0. -1.
         21   -1    0    0  501  502 -0.00000000000E+00 -0.00000000000E+00 -0.22136853618E+03  0.22136853618E+03  0.00000000000E+00 0. -1.
         25    1    1    2    0    0 -0.13023576078E+03  0.66892868562E+02  0.21991056088E+03  0.29226984798E+03  0.12500000000E+03 0.  0.
         25    1    1    2    0    0  0.85279684643E+02  0.13304712996E+02  0.36901495530E+02  0.15632133691E+03  0.12500000000E+03 0.  0.
         25    1    1    2    0    0  0.44956076134E+02 -0.80197581557E+02 -0.77507386551E+02  0.17345055733E+03  0.12500000000E+03 0.  0.
</event>
<event>
 5    0  0.5910706E-005  0.3529351E+03  0.7546771E-02  0.1061417E+00
         21   -1    0    0  502  501  0.00000000000E+00  0.00000000000E+00  0.42044224702E+03  0.42044224702E+03  0.00000000000E+00 0. -1.
         21   -1    0    0  501  502 -0.00000000000E+00 -0.00000000000E+00 -0.29626696888E+03  0.29626696888E+03  0.00000000000E+00 0. -1.
         25    1    1    2    0    0  0.19932107658E+02 -0.15271472049E+03 -0.93278208927E+02  0.21919146660E+03  0.12500000000E+03 0.  0.
         25    1    1    2    0    0 -0.42651785286E+02  0.11282633004E+03  0.29578845197E+03  0.34302297861E+03  0.12500000000E+03 0.  0.
         25    1    1    2    0    0  0.22719677628E+02  0.39888390456E+02 -0.78334964894E+02  0.15449477069E+03  0.12500000000E+03 0.  0.
</event>
<event>
 5    0  0.5728184E-005  0.2856001E+03  0.7546771E-02  0.1092669E+00
         21   -1    0    0  502  501  0.00000000000E+00  0.00000000000E+00  0.86495629573E+02  0.86495629573E+02  0.00000000000E+00 0.  1.
         21   -1    0    0  501  502 -0.00000000000E+00 -0.00000000000E+00 -0.94302380628E+03  0.94302380628E+03  0.00000000000E+00 0.  1.
         25    1    1    2    0    0 -0.30595727687E+02  0.99756563952E+02 -0.25810558310E+03  0.30517365979E+03  0.12500000000E+03 0.  0.
         25    1    1    2    0    0 -0.49412470657E+02  0.93986544680E+02 -0.24659460182E+03  0.29615698621E+03  0.12500000000E+03 0.  0.
         25    1    1    2    0    0  0.80008198343E+02 -0.19374310863E+03 -0.35182799180E+03  0.42818878985E+03  0.12500000000E+03 0.  0.
</event>
<event>
 5    0  0.5728184E-005  0.3088095E+03  0.7546771E-02  0.1080918E+00
         21   -1    0    0  502  501  0.00000000000E+00  0.00000000000E+00  0.36819418193E+03  0.36819418193E+03  0.00000000000E+00 0.  1.
         21   -1    0    0  501  502 -0.00000000000E+00 -0.00000000000E+00 -0.25900276096E+03  0.25900276096E+03  0.00000000000E+00 0.  1.
         25    1    1    2    0    0  0.50090643676E+02  0.89070548513E+02  0.33672482695E+01  0.16148985590E+03  0.12500000000E+03 0.  0.
         25    1    1    2    0    0  0.11829858251E+03 -0.66323963154E+02  0.16408552182E+03  0.24686530980E+03  0.12500000000E+03 0.  0.
         25    1    1    2    0    0 -0.16838922619E+03 -0.22746585359E+02 -0.58261349127E+02  0.21884177719E+03  0.12500000000E+03 0.  0.
</event>
<event>
 5    0  0.5728184E-005  0.2466299E+03  0.7546771E-02  0.1115453E+00
         21   -1    0    0  502  501  0.00000000000E+00  0.00000000000E+00  0.17482492987E+03  0.17482492987E+03  0.00000000000E+00 0. -1.
         21   -1    0    0  501  502 -0.00000000000E+00 -0.00000000000E+00 -0.34792683124E+03  0.34792683124E+03  0.00000000000E+00 0. -1.
         25    1    1    2    0    0  0.74880926896E+02  0.17254680714E+02 -0.71368881224E+02  0.16316676876E+03  0.12500000000E+03 0.  0.
         25    1    1    2    0    0  0.62018991961E+02 -0.11231894095E+02 -0.10349917995E+03  0.17409649927E+03  0.12500000000E+03 0.  0.
         25    1    1    2    0    0 -0.13689991886E+03 -0.60227866189E+01  0.17661598031E+01  0.18548849307E+03  0.12500000000E+03 0.  0.
</event>
<event>
 5    0  0.5728184E-005  0.4087204E+03  0.7546771E-02  0.1040801E+00
         21   -1    0    0  502  501  0.00000000000E+00  0.00000000000E+00  0.21367436307E+04  0.21367436307E+04  0.00000000000E+00 0. -1.
         21   -1    0    0  501  502 -0.00000000000E+00 -0.00000000000E+00 -0.78180819434E+02  0.78180819434E+02  0.00000000000E+00 0. -1.
         25    1    1    2    0    0 -0.85324501655E+02  0.27722686067E+03  0.93874980762E+03  0.99046009721E+03  0.12500000000E+03 0.  0.
         25    1    1    2    0    0 -0.26745185143E+02 -0.99958094057E+02  0.82909333427E+03  0.84482405413E+03  0.12500000000E+03 0.  0.
         25    1    1    2    0    0  0.11206968680E+03 -0.17726876661E+03  0.29071966941E+03  0.37964029883E+03  0.12500000000E+03 0.  0.
</event>
<event>
 5    0  0.5728184E-005  0.3231438E+03  0.7546771E-02  0.1074211E+00
         21   -1    0    0  502  501  0.00000000000E+00  0.00000000000E+00  0.21626334365E+03  0.21626334365E+03  0.00000000000E+00 0.  1.
         21   -1    0    0  501  502 -0.00000000000E+00 -0.00000000000E+00 -0.48284601663E+03  0.48284601663E+03  0.00000000000E+00 0.  1.
         25    1    1    2    0    0 -0.51558955057E+02 -0.94263999804E+02 -0.23840001863E+03  0.28983373922E+03  0.12500000000E+03 0.  0.
         25    1    1    2    0    0  0.93810399882E+02 -0.11998323597E+02 -0.13678615491E+03  0.20803798468E+03  0.12500000000E+03 0.  0.
         25    1    1    2    0    0 -0.42251444825E+02  0.10626232340E+03  0.10860350055E+03  0.20123763638E+03  0.12500000000E+03 0.  0.
</event>
<event>
 5    0  0.5728184E-005  0.3782049E+03  0.7546771E-02  0.1051599E+00
         21   -1    0    0  502  501  0.00000000000E+00  0.00000000000E+00  0.15348841568E+03  0.15348841568E+03  0.00000000000E+00 0. -1.
         21   -1    0    0  501  502 -0.00000000000E+00 -0.00000000000E+00 -0.93192001061E+03  0.93192001061E+03  0.00000000000E+00 0. -1.
         25    1    1    2    0    0  0.11872683242E+03 -0.10124950451E+03 -0.19766585391E+03  0.28114820416E+03  0.12500000000E+03 0.  0.
         25    1    1    2    0    0 -0.93680780205E+01 -0.80554373171E+02  0.24331820643E+02  0.15097617500E+03  0.12500000000E+03 0.  0.
         25    1    1    2    0    0 -0.10935875440E+03  0.18180387768E+03 -0.60509756166E+03  0.65328404713E+03  0.12500000000E+03 0.  0.
</event>
<event>
 5    0  0.5728184E-005  0.2269150E+03  0.7546771E-02  0.1128830E+00
         21   -1    0    0  502  501  0.00000000000E+00  0.00000000000E+00  0.38675989457E+03  0.38675989457E+03  0.00000000000E+00 0.  1.
         21   -1    0    0  501  502 -0.00000000000E+00 -0.00000000000E+00 -0.13313273511E+03  0.13313273511E+03  0.00000000000E+00 0.  1.
         25    1    1    2    0    0 -0.67970306866E+01  0.10330129211E+03  0.13704850278E+03  0.21242563097E+03  0.12500000000E+03 0.  0.
         25    1    1    2    0    0 -0.30606488314E+02 -0.78370756894E+02  0.74751493149E+02  0.16820082756E+03  0.12500000000E+03 0.  0.
         25    1    1    2    0    0  0.37403519000E+02 -0.24930535217E+02  0.41827163534E+02  0.13926617116E+03  0.12500000000E+03 0.  0.
</event>
<event>
 5    0  0.5728184E-005  0.3587497E+03  0.7546771E-02  0.1059080E+00
         21   -1    0    0  502  501  0.00000000000E+00  0.00000000000E+00  0.24188771536E+03  0.24188771536E+03  0.00000000000E+00 0. -1.
         21   -1    0    0  501  502 -0.00000000000E+00 -0.00000000000E+00 -0.53207068023E+03  0.53207068023E+03  0.00000000000E+00 0. -1.
         25    1    1    2    0    0  0.11269209169E+03 -0.43719538595E+02 -0.17631398200E+03  0.24763385438E+03  0.12500000000E+03 0.  0.
         25    1    1    2    0    0 -0.25554633169E+02  0.14527248242E+03  0.12132028540E+03  0.22825587632E+03  0.12500000000E+03 0.  0.
         25    1    1    2    0    0 -0.87137458525E+02 -0.10155294383E+03 -0.23518926828E+03  0.29806866489E+03  0.12500000000E+03 0.  0.
</event>
<event>
 5    0  0.5728184E-005  0.2364101E+03  0.7546771E-02  0.1122208E+00
         21   -1    0    0  502  501  0.00000000000E+00  0.00000000000E+00  0.25965132142E+03  0.25965132142E+03  0.00000000000E+00 0. -1.
         21   -1    0    0  501  502 -0.00000000000E+00 -0.00000000000E+00 -0.21524911644E+03  0.21524911644E+03  0.00000000000E+00 0. -1.
         25    1    1    2    0    0 -0.82501128907E+01  0.50129311805E+01  0.37433449407E+02  0.13084134276E+03  0.12500000000E+03 0.  0.
         25    1    1    2    0    0 -0.86954962299E+02 -0.46839108937E+02 -0.57182154728E+02  0.16926271419E+03  0.12500000000E+03 0.  0.
         25    1    1    2    0    0  0.95205075189E+02  0.41826177757E+02  0.64150910295E+02  0.17479638091E+03  0.12500000000E+03 0.  0.
</event>
<event>
 5    0  0.5728184E-005  0.2513593E+03  0.7546771E-02  0.1112449E+00
         21   -1    0    0  502  501  0.00000000000E+00  0.00000000000E+00  0.11029881308E+04  0.11029881308E+04  0.00000000000E+00 0.  1.
         21   -1    0    0  501  502 -0.00000000000E+00 -0.00000000000E+00 -0.57282128997E+02  0.57282128997E+02  0.00000000000E+00 0.  1.
         25    1    1    2    0    0  0.10424631475E+02 -0.73826237220E+02  0.11573823901E+03  0.18595517259E+03  0.12500000000E+03 0.  0.
         25    1    1    2    0    0  0.10823240526E+02  0.98783542342E+02  0.46129385793E+03  0.48815197853E+03  0.12500000000E+03 0.  0.
         25    1    1    2    0    0 -0.21247872001E+02 -0.24957305122E+02  0.46867390482E+03  0.48616310864E+03  0.12500000000E+03 0.  0.
</event>
<event>
 5    0  0.5728184E-005  0.2988084E+03  0.7546771E-02  0.1085838E+00
         21   -1    0    0  502  501  0.00000000000E+00  0.00000000000E+00  0.10459799538E+04  0.10459799538E+04  0.00000000000E+00 0. -1.
         21   -1    0    0  501  502 -0.00000000000E+00 -0.00000000000E+00 -0.85361529843E+02  0.85361529843E+02  0.00000000000E+00 0. -1.
         25    1    1    2    0    0 -0.71273920273E+01 -0.11709234188E+03  0.46854007950E+03  0.49891504522E+03  0.12500000000E+03 0.  0.
         25    1    1    2    0    0 -0.22396558064E+02  0.14388741887E+03  0.45842518744E+03  0.49697469513E+03  0.12500000000E+03 0.  0.
         25    1    1    2    0    0  0.29523950091E+02 -0.26795076995E+02  0.33653156996E+02  0.13545174327E+03  0.12500000000E+03 0.  0.
</event>
<event>
 5    0  0.8240834E-005  0.2847444E+03  0.7546771E-02  0.1093126E+00
         21   -1    0    0  502  501  0.00000000000E+00  0.00000000000E+00  0.51238670033E+03  0.51238670033E+03  0.00000000000E+00 0. -1.
         21   -1    0    0  501  502 -0.00000000000E+00 -0.00000000000E+00 -0.15823860580E+03  0.15823860580E+03  0.00000000000E+00 0. -1.
         25    1    1    2    0    0  0.73037006756E+02 -0.40900573396E+02  0.66258550579E+01  0.15058606581E+03  0.12500000000E+03 0.  0.
         25    1    1    2    0    0 -0.65150139499E+02  0.72954237143E+02  0.35671025213E+03  0.39042805403E+03  0.12500000000E+03 0.  0.
         25    1    1    2    0    0 -0.78868672563E+01 -0.32053663747E+02 -0.91880126613E+01  0.12961118629E+03  0.12500000000E+03 0.  0.
</event>
<event>
 5    0  0.5728184E-005  0.3862834E+03  0.7546771E-02  0.1048636E+00
         21   -1    0    0  502  501  0.00000000000E+00  0.00000000000E+00  0.33266584587E+03  0.33266584587E+03  0.00000000000E+00 0. -1.
         21   -1    0    0  501  502 -0.00000000000E+00 -0.00000000000E+00 -0.44854285070E+03  0.44854285070E+03  0.00000000000E+00 0. -1.
         25    1    1    2    0    0  0.10965449432E+03 -0.38625484146E+02  0.17439967022E+03  0.24404155614E+03  0.12500000000E+03 0.  0.
         25    1    1    2    0    0 -0.44586404803E+02  0.28199338029E+02 -0.35625500518E+03  0.38121618391E+03  0.12500000000E+03 0.  0.
         25    1    1    2    0    0 -0.65068089518E+02  0.10426146117E+02  0.65978330130E+02  0.15595095653E+03  0.12500000000E+03 0.  0.
</event>
<event>
 5    0  0.5728184E-005  0.4550581E+03  0.7546771E-02  0.1026224E+00
         21   -1    0    0  502  501  0.00000000000E+00  0.00000000000E+00  0.13775208447E+04  0.13775208447E+04  0.00000000000E+00 0. -1.
         21   -1    0    0  501  502 -0.00000000000E+00 -0.00000000000E+00 -0.15032648322E+03  0.15032648322E+03  0.00000000000E+00 0. -1.
         25    1    1    2    0    0  0.46169424337E+02 -0.22133408244E+03  0.82812599212E+03  0.86748951038E+03  0.12500000000E+03 0.  0.
         25    1    1    2    0    0  0.14481372506E+03  0.93928416289E+01  0.61782153931E+02  0.20124928567E+03  0.12500000000E+03 0.  0.
         25    1    1    2    0    0 -0.19098314939E+03  0.21194124081E+03  0.33728621542E+03  0.45910853185E+03  0.12500000000E+03 0.  0.
</event>
<event>
 5    0  0.5728184E-005  0.2045806E+03  0.7546771E-02  0.1145931E+00
         21   -1    0    0  502  501  0.00000000000E+00  0.00000000000E+00  0.12729697900E+03  0.12729697900E+03  0.00000000000E+00 0. -1.
         21   -1    0    0  501  502 -0.00000000000E+00 -0.00000000000E+00 -0.32878423378E+03  0.32878423378E+03  0.00000000000E+00 0. -1.
         25    1    1    2    0    0  0.62869224441E+00 -0.36082757936E+02 -0.27486878695E+02  0.13297702499E+03  0.12500000000E+03 0.  0.
         25    1    1    2    0    0  0.38701845263E+02  0.40901972417E+01 -0.50829704330E+02  0.14043938686E+03  0.12500000000E+03 0.  0.
         25    1    1    2    0    0 -0.39330537507E+02  0.31992560694E+02 -0.12317067175E+03  0.18266480093E+03  0.12500000000E+03 0.  0.
</event>
<event>
 5    0  0.5728184E-005  0.2999990E+03  0.7546771E-02  0.1085241E+00
         21   -1    0    0  502  501  0.00000000000E+00  0.00000000000E+00  0.12604661208E+03  0.12604661208E+03  0.00000000000E+00 0.  1.
         21   -1    0    0  501  502 -0.00000000000E+00 -0.00000000000E+00 -0.71401699024E+03  0.71401699024E+03  0.00000000000E+00 0.  1.
         25    1    1    2    0    0  0.42450222689E+02  0.35355333943E+02 -0.15112185448E+03  0.20375189802E+03  0.12500000000E+03 0.  0.
         25    1    1    2    0    0 -0.59248345889E+02  0.35051819759E+01  0.37972732151E+02  0.14349070067E+03  0.12500000000E+03 0.  0.
         25    1    1    2    0    0  0.16798123200E+02 -0.38860515919E+02 -0.47482125582E+03  0.49282100363E+03  0.12500000000E+03 0.  0.
</event>
<event>
 5    0  0.5728184E-005  0.3394248E+03  0.7546771E-02  0.1067041E+00
         21   -1    0    0  502  501  0.00000000000E+00  0.00000000000E+00  0.33192992127E+03  0.33192992127E+03  0.00000000000E+00 0.  1.
         21   -1    0    0  501  502 -0.00000000000E+00 -0.00000000000E+00 -0.34708900572E+03  0.34708900572E+03  0.00000000000E+00 0.  1.
         25    1    1    2    0    0 -0.92389778737E+02  0.32839577669E+02 -0.69290118298E+02  0.17332175158E+03  0.12500000000E+03 0.  0.
         25    1    1    2    0    0  0.13435472875E+03  0.90475019485E+01 -0.16473513717E+03  0.24677057330E+03  0.12500000000E+03 0.  0.
         25    1    1    2    0    0 -0.41964950014E+02 -0.41887079617E+02  0.21886617101E+03  0.25892660211E+03  0.12500000000E+03 0.  0.
</event>
<event>
 5    0  0.5728184E-005  0.2803615E+03  0.7546771E-02  0.1095492E+00
         21   -1    0    0  502  501  0.00000000000E+00  0.00000000000E+00  0.29130454691E+03  0.29130454691E+03  0.00000000000E+00 0. -1.
         21   -1    0    0  501  502 -0.00000000000E+00 -0.00000000000E+00 -0.26982945016E+03  0.26982945016E+03  0.00000000000E+00 0. -1.
         25    1    1    2    0    0 -0.14769745708E+03 -0.49161282297E+02  0.93335077061E+02  0.22038104981E+03  0.12500000000E+03 0.  0.
         25    1    1    2    0    0  0.55564125396E+02  0.42015382264E+02 -0.11023548175E+03  0.18063644653E+03  0.12500000000E+03 0.  0.
         25    1    1    2    0    0  0.92133331687E+02  0.71459000335E+01  0.38375501441E+02  0.16011650073E+03  0.12500000000E+03 0.  0.
</event>
<event>
 5    0  0.5728184E-005  0.4322127E+03  0.7546771E-02  0.1033163E+00
         21   -1    0    0  502  501  0.00000000000E+00  0.00000000000E+00  0.60485700736E+03  0.60485700736E+03  0.00000000000E+00 0.  1.
         21   -1    0    0  501  502 -0.00000000000E+00 -0.00000000000E+00 -0.30884627944E+03  0.30884627944E+03  0.00000000000E+00 0.  1.
         25    1    1    2    0    0 -0.25066399474E+03 -0.13230869650E+03  0.26666271495E+03  0.40874445926E+03  0.12500000000E+03 0.  0.
         25    1    1    2    0    0  0.30208426901E+03  0.18645762558E+02  0.15777555194E+02  0.32783608906E+03  0.12500000000E+03 0.  0.
         25    1    1    2    0    0 -0.51420274268E+02  0.11366293395E+03  0.13570457775E+02  0.17712273847E+03  0.12500000000E+03 0.  0.
</event>
<event>
 5    0  0.5728184E-005  0.4152062E+03  0.7546771E-02  0.1038638E+00
         21   -1    0    0  502  501  0.00000000000E+00  0.00000000000E+00  0.51056667714E+03  0.51056667714E+03  0.00000000000E+00 0.  1.
         21   -1    0    0  501  502 -0.00000000000E+00 -0.00000000000E+00 -0.33765658255E+03  0.33765658255E+03  0.00000000000E+00 0.  1.
         25    1    1    2    0    0  0.14087327745E+03 -0.83125410450E+02 -0.28122882623E+02  0.20777634776E+03  0.12500000000E+03 0.  0.
         25    1    1    2    0    0 -0.10778008029E+03 -0.15833619392E+03  0.27407332841E+03  0.35697070659E+03  0.12500000000E+03 0.  0.
         25    1    1    2    0    0 -0.33093197167E+02  0.24146160437E+03 -0.73040351201E+02  0.28347620533E+03  0.12500000000E+03 0.  0.
</event>
<event>
 5    0  0.5728184E-005  0.3161329E+03  0.7546771E-02  0.1077443E+00
         21   -1    0    0  502  501  0.00000000000E+00  0.00000000000E+00  0.61880809255E+02  0.61880809255E+02  0.00000000000E+00 0. -1.
         21   -1    0    0  501  502 -0.00000000000E+00 -0.00000000000E+00 -0.16150408867E+04  0.16150408867E+04  0.00000000000E+00 0. -1.
         25    1    1    2    0    0 -0.16826397871E+03 -0.12361202271E+03 -0.47067726728E+03  0.52986299043E+03  0.12500000000E+03 0.  0.
         25    1    1    2    0    0  0.72671853846E+02 -0.42406840462E+02 -0.43450099351E+03  0.45988656408E+03  0.12500000000E+03 0.  0.
         25    1    1    2    0    0  0.95592124869E+02  0.16601886318E+03 -0.64798181668E+03  0.68717214147E+03  0.12500000000E+03 0.  0.
</event>
<event>
 5    0  0.5728184E-005  0.3152221E+03  0.7546771E-02  0.1077869E+00
         21   -1    0    0  502  501  0.00000000000E+00  0.00000000000E+00  0.26325824671E+03  0.26325824671E+03  0.00000000000E+00 0.  1.
         21   -1    0    0  501  502 -0.00000000000E+00 -0.00000000000E+00 -0.37744288662E+03  0.37744288662E+03  0.00000000000E+00 0.  1.
         25    1    1    2    0    0 -0.10003513376E+03 -0.14449508172E+03 -0.28852080950E+02  0.21758515391E+03  0.12500000000E+03 0.  0.
         25    1    1    2    0    0  0.90653427577E+02  0.17858345027E+03 -0.14825678360E+03  0.27877440077E+03  0.12500000000E+03 0.  0.
         25    1    1    2    0    0  0.93817061798E+01 -0.34088368550E+02  0.62924224640E+02  0.14434157865E+03  0.12500000000E+03 0.  0.
</event>
<event>
 5    0  0.5728184E-005  0.6725413E+03  0.7546771E-02  0.9765378E-01
         21   -1    0    0  502  501  0.00000000000E+00  0.00000000000E+00  0.76398934888E+03  0.76398934888E+03  0.00000000000E+00 0. -1.
         21   -1    0    0  501  502 -0.00000000000E+00 -0.00000000000E+00 -0.59203941457E+03  0.59203941457E+03  0.00000000000E+00 0. -1.
         25    1    1    2    0    0  0.62470000683E+02 -0.13918918949E+02  0.19336270646E+02  0.14175728783E+03  0.12500000000E+03 0.  0.
         25    1    1    2    0    0 -0.24308089433E+02  0.18540200167E+03 -0.48854289111E+03  0.53783263371E+03  0.12500000000E+03 0.  0.
         25    1    1    2    0    0 -0.38161911250E+02 -0.17148308272E+03  0.64115655477E+03  0.67643884192E+03  0.12500000000E+03 0.  0.
</event>
<event>
 5    0  0.5728184E-005  0.8231781E+03  0.7546771E-02  0.9527061E-01
         21   -1    0    0  502  501  0.00000000000E+00  0.00000000000E+00  0.98705433344E+03  0.98705433344E+03  0.00000000000E+00 0. -1.
         21   -1    0    0  501  502 -0.00000000000E+00 -0.00000000000E+00 -0.68650955375E+03  0.68650955375E+03  0.00000000000E+00 0. -1.
         25    1    1    2    0    0  0.23532431225E+03 -0.28988182926E+03  0.81067886204E+03  0.90124038093E+03  0.12500000000E+03 0.  0.
         25    1    1    2    0    0 -0.21070859357E+02  0.27222126916E+03 -0.40044012018E+03  0.50052541429E+03  0.12500000000E+03 0.  0.
         25    1    1    2    0    0 -0.21425345289E+03  0.17660560103E+02 -0.10969396216E+03  0.27179809196E+03  0.12500000000E+03 0.  0.
</event>
<event>
 5    0  0.5728184E-005  0.3664958E+03  0.7546771E-02  0.1056041E+00
         21   -1    0    0  502  501  0.00000000000E+00  0.00000000000E+00  0.82373668820E+02  0.82373668820E+02  0.00000000000E+00 0.  1.
         21   -1    0    0  501  502 -0.00000000000E+00 -0.00000000000E+00 -0.16306082705E+04  0.16306082705E+04  0.00000000000E+00 0.  1.
         25    1    1    2    0    0  0.26717698278E+02 -0.75497456234E+02 -0.66989469038E+02  0.16286893584E+03  0.12500000000E+03 0.  0.
         25    1    1    2    0    0 -0.12743733371E+03 -0.11145471611E+03 -0.69315396600E+03  0.72439619571E+03  0.12500000000E+03 0.  0.
         25    1    1    2    0    0  0.10071963543E+03  0.18695217234E+03 -0.78809116659E+03  0.82571680773E+03  0.12500000000E+03 0.  0.
</event>
<event>
 5    0  0.5728184E-005  0.3491632E+03  0.7546771E-02  0.1062959E+00
         21   -1    0    0  502  501  0.00000000000E+00  0.00000000000E+00  0.34309742728E+03  0.34309742728E+03  0.00000000000E+00 0.  1.
         21   -1    0    0  501  502 -0.00000000000E+00 -0.00000000000E+00 -0.35533627340E+03  0.35533627340E+03  0.00000000000E+00 0.  1.
         25    1    1    2    0    0  0.15467347448E+03 -0.13948108127E+03  0.60347088530E+02  0.25029108421E+03  0.12500000000E+03 0.  0.
         25    1    1    2    0    0  0.40267929911E+02  0.16223958362E+03 -0.20842649442E+02  0.20976797827E+03  0.12500000000E+03 0.  0.
         25    1    1    2    0    0 -0.19494140439E+03 -0.22758502345E+02 -0.51743285206E+02  0.23837463821E+03  0.12500000000E+03 0.  0.
</event>
<event>
 5    0  0.5728184E-005  0.3244920E+03  0.7546771E-02  0.1073600E+00
         21   -1    0    0  502  501  0.00000000000E+00  0.00000000000E+00  0.51438158001E+03  0.51438158001E+03  0.00000000000E+00 0. -1.
         21   -1    0    0  501  502 -0.00000000000E+00 -0.00000000000E+00 -0.20470221647E+03  0.20470221647E+03  0.00000000000E+00 0. -1.
         25    1    1    2    0    0  0.12923458251E+03 -0.15503917723E+03 -0.37412317682E+02  0.24034018662E+03  0.12500000000E+03 0.  0.
         25    1    1    2    0    0 -0.59041151980E+02  0.37985882744E+02  0.17264700730E+03  0.22441206306E+03  0.12500000000E+03 0.  0.
         25    1    1    2    0    0 -0.70193430527E+02  0.11705329448E+03  0.17444467392E+03  0.25433154680E+03  0.12500000000E+03 0.  0.
</event>
<event>
 5    0  0.5728184E-005  0.2263752E+03  0.7546771E-02  0.1129217E+00
         21   -1    0    0  502  501  0.00000000000E+00  0.00000000000E+00  0.21924848395E+03  0.21924848395E+03  0.00000000000E+00 0.  1.
         21   -1    0    0  501  502 -0.00000000000E+00 -0.00000000000E+00 -0.23373360621E+03  0.23373360621E+03  0.00000000000E+00 0.  1.
         25    1    1    2    0    0  0.24135876496E+02 -0.88517707752E+02 -0.38430722921E+02  0.15974932108E+03  0.12500000000E+03 0.  0.
         25    1    1    2    0    0 -0.12524029966E+02 -0.13600029005E+02  0.34734306873E+02  0.13104687783E+03  0.12500000000E+03 0.  0.
         25    1    1    2    0    0 -0.11611846529E+02  0.10211773676E+03 -0.10788706206E+02  0.16218589125E+03  0.12500000000E+03 0.  0.
</event>
<event>
 5    0  0.5728184E-005  0.2317786E+03  0.7546771E-02  0.1125394E+00
         21   -1    0    0  502  501  0.00000000000E+00  0.00000000000E+00  0.32015769938E+03  0.32015769938E+03  0.00000000000E+00 0.  1.
         21   -1    0    0  501  502 -0.00000000000E+00 -0.00000000000E+00 -0.16779638400E+03  0.16779638400E+03  0.00000000000E+00 0.  1.
         25    1    1    2    0    0  0.28298009382E+02 -0.41500557825E+02 -0.21153429911E+02  0.13636546935E+03  0.12500000000E+03 0.  0.
         25    1    1    2    0    0 -0.62405571180E+02  0.54481171612E+02  0.16216960847E+03  0.22087696866E+03  0.12500000000E+03 0.  0.
         25    1    1    2    0    0  0.34107561798E+02 -0.12980613787E+02  0.11345136824E+02  0.13071164537E+03  0.12500000000E+03 0.  0.
</event>
<event>
 5    0  0.5728184E-005  0.3491602E+03  0.7546771E-02  0.1062960E+00
         21   -1    0    0  502  501  0.00000000000E+00  0.00000000000E+00  0.83496722412E+03  0.83496722412E+03  0.00000000000E+00 0. -1.
         21   -1    0    0  501  502 -0.00000000000E+00 -0.00000000000E+00 -0.14600912253E+03  0.14600912253E+03  0.00000000000E+00 0. -1.
         25    1    1    2    0    0 -0.74056471914E+02 -0.99207809460E+02  0.28793975375E+02  0.17827126383E+03  0.12500000000E+03 0.  0.
         25    1    1    2    0    0  0.28934449329E+02  0.15491135484E+03  0.62189171158E+03  0.65361229421E+03  0.12500000000E+03 0.  0.
         25    1    1    2    0    0  0.45122022585E+02 -0.55703545381E+02  0.38272414637E+02  0.14909278860E+03  0.12500000000E+03 0.  0.
</event>
<event>
 5    0  0.5728184E-005  0.3520099E+03  0.7546771E-02  0.1061793E+00
         21   -1    0    0  502  501  0.00000000000E+00  0.00000000000E+00  0.24419719473E+04  0.24419719473E+04  0.00000000000E+00 0. -1.
         21   -1    0    0  501  502 -0.00000000000E+00 -0.00000000000E+00 -0.50742178319E+02  0.50742178319E+02  0.00000000000E+00 0. -1.
         25    1    1    2    0    0 -0.15308359715E+03  0.12111573351E+03  0.13424248353E+04  0.13622896340E+04  0.12500000000E+03 0.  0.
         25    1    1    2    0    0 -0.72016325434E+02 -0.23802430718E+02  0.34453164351E+03  0.37427257476E+03  0.12500000000E+03 0.  0.
         25    1    1    2    0    0  0.22509992259E+03 -0.97313302787E+02  0.70427329025E+03  0.75615191689E+03  0.12500000000E+03 0.  0.
</event>
<event>
 5    0  0.5728184E-005  0.3058490E+03  0.7546771E-02  0.1082353E+00
         21   -1    0    0  502  501  0.00000000000E+00  0.00000000000E+00  0.34786939526E+03  0.34786939526E+03  0.00000000000E+00 0.  1.
         21   -1    0    0  501  502 -0.00000000000E+00 -0.00000000000E+00 -0.26890447416E+03  0.26890447416E+03  0.00000000000E+00 0.  1.
         25    1    1    2    0    0  0.71817283733E+02 -0.32704972926E+02  0.17907838839E+03  0.23220983331E+03  0.12500000000E+03 0.  0.
         25    1    1    2    0    0  0.21997118882E+02  0.75676018992E+02  0.57420987198E+02  0.15853360168E+03  0.12500000000E+03 0.  0.
         25    1    1    2    0    0 -0.93814402615E+02 -0.42971046066E+02 -0.15753445449E+03  0.22603043443E+03  0.12500000000E+03 0.  0.
</event>
<event>
 5    0  0.5728184E-005  0.3328235E+03  0.7546771E-02  0.1069894E+00
         21   -1    0    0  502  501  0.00000000000E+00  0.00000000000E+00  0.55368422826E+02  0.55368422826E+02  0.00000000000E+00 0.  1.
         21   -1    0    0  501  502 -0.00000000000E+00 -0.00000000000E+00 -0.20006257361E+04  0.20006257361E+04  0.00000000000E+00 0.  1.
         25    1    1    2    0    0 -0.20958159424E+03 -0.12095496041E+03 -0.85070090640E+03  0.89323657518E+03  0.12500000000E+03 0.  0.
         25    1    1    2    0    0  0.54369404607E+02  0.34347368959E+01 -0.61988404425E+03  0.63470391357E+03  0.12500000000E+03 0.  0.
         25    1    1    2    0    0  0.15521218964E+03  0.11752022352E+03 -0.47467236257E+03  0.52805367013E+03  0.12500000000E+03 0.  0.
</event>
<event>
 5    0  0.5728184E-005  0.4047983E+03  0.7546771E-02  0.1042131E+00
         21   -1    0    0  502  501  0.00000000000E+00  0.00000000000E+00  0.10745722384E+04  0.10745722384E+04  0.00000000000E+00 0.  1.
         21   -1    0    0  501  502 -0.00000000000E+00 -0.00000000000E+00 -0.15249013026E+03  0.15249013026E+03  0.00000000000E+00 0.  1.
         25    1    1    2    0    0  0.25297719785E+03  0.76948049527E+02  0.19859402663E+03  0.35352942222E+03  0.12500000000E+03 0.  0.
         25    1    1    2    0    0 -0.14225760016E+03 -0.64969015558E+02  0.66769805478E+03  0.69706806708E+03  0.12500000000E+03 0.  0.
         25    1    1    2    0    0 -0.11071959769E+03 -0.11979033969E+02  0.55790026720E+02  0.17646487937E+03  0.12500000000E+03 0.  0.
</event>
<event>
 5    0  0.5728184E-005  0.3394350E+03  0.7546771E-02  0.1067037E+00
         21   -1    0    0  502  501  0.00000000000E+00  0.00000000000E+00  0.20004222046E+03  0.20004222046E+03  0.00000000000E+00 0.  1.
         21   -1    0    0  501  502 -0.00000000000E+00 -0.00000000000E+00 -0.57595900160E+03  0.57595900160E+03  0.00000000000E+00 0.  1.
         25    1    1    2    0    0 -0.56449395944E+02  0.25583584025E+03 -0.81362837714E+02  0.30146877587E+03  0.12500000000E+03 0.  0.
         25    1    1    2    0    0  0.18702703735E+02 -0.17948573227E+03 -0.19343594723E+03  0.29258739702E+03  0.12500000000E+03 0.  0.
         25    1    1    2    0    0  0.37746692209E+02 -0.76350107980E+02 -0.10111799620E+03  0.18194504917E+03  0.12500000000E+03 0.  0.
</event>
<event>
 5    0  0.5728184E-005  0.4222745E+03  0.7546771E-02  0.1036329E+00
         21   -1    0    0  502  501  0.00000000000E+00  0.00000000000E+00  0.30855657592E+03  0.30855657592E+03  0.00000000000E+00 0.  1.
         21   -1    0    0  501  502 -0.00000000000E+00 -0.00000000000E+00 -0.57790290957E+03  0.57790290957E+03  0.00000000000E+00 0.  1.
         25    1    1    2    0    0 -0.19674781429E+02 -0.11697072096E+03 -0.45668345537E+03  0.48811271751E+03  0.12500000000E+03 0.  0.
         25    1    1    2    0    0 -0.34268327310E+01  0.17195874596E+03  0.12299476191E+03  0.24563034209E+03  0.12500000000E+03 0.  0.
         25    1    1    2    0    0  0.23101614160E+02 -0.54988025006E+02  0.64342359813E+02  0.15271642589E+03  0.12500000000E+03 0.  0.
</event>
<event>
 5    0  0.5728184E-005  0.2798567E+03  0.7546771E-02  0.1095767E+00
         21   -1    0    0  502  501  0.00000000000E+00  0.00000000000E+00  0.72800632365E+02  0.72800632365E+02  0.00000000000E+00 0. -1.
         21   -1    0    0  501  502 -0.00000000000E+00 -0.00000000000E+00 -0.10758117574E+04  0.10758117574E+04  0.00000000000E+00 0. -1.
         25    1    1    2    0    0  0.91863592908E+01 -0.75065288080E+02 -0.52721088376E+03  0.54707906433E+03  0.12500000000E+03 0.  0.
         25    1    1    2    0    0 -0.11369735954E+03  0.96171614339E+02 -0.18983835116E+03  0.27173455530E+03  0.12500000000E+03 0.  0.
         25    1    1    2    0    0  0.10451100025E+03 -0.21106326260E+02 -0.28596189008E+03  0.32979877010E+03  0.12500000000E+03 0.  0.
</event>
<event>
 5    0  0.5728184E-005  0.5110914E+03  0.7546771E-02  0.1010924E+00
         21   -1    0    0  502  501  0.00000000000E+00  0.00000000000E+00  0.18597367818E+03  0.18597367818E+03  0.00000000000E+00 0.  1.
         21   -1    0    0  501  502 -0.00000000000E+00 -0.00000000000E+00 -0.14045774261E+04  0.14045774261E+04  0.00000000000E+00 0.  1.
         25    1    1    2    0    0  0.58071367908E+02 -0.56945822484E+02 -0.13251835315E+03  0.19950244206E+03  0.12500000000E+03 0.  0.
         25    1    1    2    0    0 -0.19861524002E+03 -0.34904253362E+03 -0.49106584617E+03  0.64656737400E+03  0.12500000000E+03 0.  0.
         25    1    1    2    0    0  0.14054387211E+03  0.40598835611E+03 -0.59501954861E+03  0.74448128822E+03  0.12500000000E+03 0.  0.
</event>
<event>
 5    0  0.5728184E-005  0.2543678E+03  0.7546771E-02  0.1110575E+00
         21   -1    0    0  502  501  0.00000000000E+00  0.00000000000E+00  0.24205583353E+03  0.24205583353E+03  0.00000000000E+00 0. -1.
         21   -1    0    0  501  502 -0.00000000000E+00 -0.00000000000E+00 -0.26730598941E+03  0.26730598941E+03  0.00000000000E+00 0. -1.
         25    1    1    2    0    0  0.58060969737E+02 -0.76911623620E+01 -0.83917092922E+02  0.16154661454E+03  0.12500000000E+03 0.  0.
         25    1    1    2    0    0 -0.85675196229E+02  0.93897519573E+02  0.73368917745E+02  0.19278221267E+03  0.12500000000E+03 0.  0.
         25    1    1    2    0    0  0.27614226492E+02 -0.86206357211E+02 -0.14701980709E+02  0.15503299573E+03  0.12500000000E+03 0.  0.
</event>
<event>
 5    0  0.5728184E-005  0.3359267E+03  0.7546771E-02  0.1068544E+00
         21   -1    0    0  502  501  0.00000000000E+00  0.00000000000E+00  0.75569806352E+03  0.75569806352E+03  0.00000000000E+00 0. -1.
         21   -1    0    0  501  502 -0.00000000000E+00 -0.00000000000E+00 -0.14932778712E+03  0.14932778712E+03  0.00000000000E+00 0. -1.
         25    1    1    2    0    0 -0.13661597089E+03 -0.10997017953E+03  0.26339113229E+02  0.21697030390E+03  0.12500000000E+03 0.  0.
         25    1    1    2    0    0 -0.31486550274E+02  0.66084824417E+02  0.15485144615E+03  0.21204380972E+03  0.12500000000E+03 0.  0.
         25    1    1    2    0    0  0.16810252117E+03  0.43885355109E+02  0.42517971703E+03  0.47601173703E+03  0.12500000000E+03 0.  0.
</event>
<event>
 5    0  0.5728184E-005  0.4691530E+03  0.7546771E-02  0.1022160E+00
         21   -1    0    0  502  501  0.00000000000E+00  0.00000000000E+00  0.19480913598E+03  0.19480913598E+03  0.00000000000E+00 0.  1.
         21   -1    0    0  501  502 -0.00000000000E+00 -0.00000000000E+00 -0.11298472313E+04  0.11298472313E+04  0.00000000000E+00 0.  1.
         25    1    1    2    0    0  0.31958645176E+02 -0.19400461449E+03 -0.12149810659E+03  0.26276593263E+03  0.12500000000E+03 0.  0.
         25    1    1    2    0    0 -0.23067564310E+03 -0.20476938942E+02 -0.65641229451E+03  0.70720057815E+03  0.12500000000E+03 0.  0.
         25    1    1    2    0    0  0.19871699792E+03  0.21448155343E+03 -0.15712769424E+03  0.35468985652E+03  0.12500000000E+03 0.  0.
</event>
<event>
 5    0  0.5728184E-005  0.3888440E+03  0.7546771E-02  0.1047713E+00
         21   -1    0    0  502  501  0.00000000000E+00  0.00000000000E+00  0.12282965740E+04  0.12282965740E+04  0.00000000000E+00 0.  1.
         21   -1    0    0  501  502 -0.00000000000E+00 -0.00000000000E+00 -0.12309705368E+03  0.12309705368E+03  0.00000000000E+00 0.  1.
         25    1    1    2    0    0  0.15983214369E+03  0.16797155313E+03  0.31718277054E+03  0.41229924418E+03  0.12500000000E+03 0.  0.
         25    1    1    2    0    0 -0.11604005581E+03  0.99188082794E+02  0.43040305337E+03  0.47347160281E+03  0.12500000000E+03 0.  0.
         25    1    1    2    0    0 -0.43792087889E+02 -0.26715963593E+03  0.35761369639E+03  0.46562278066E+03  0.12500000000E+03 0.  0.
</event>
<event>
 5    0  0.5728184E-005  0.5366936E+03  0.7546771E-02  0.1004622E+00
         21   -1    0    0  502  501  0.00000000000E+00  0.00000000000E+00  0.22404956950E+03  0.22404956950E+03  0.00000000000E+00 0.  1.
         21   -1    0    0  501  502 -0.00000000000E+00 -0.00000000000E+00 -0.12856085184E+04  0.12856085184E+04  0.00000000000E+00 0.  1.
         25    1    1    2    0    0 -0.55851639339E+02 -0.38209722832E+03 -0.20893529589E+03  0.45650482514E+03  0.12500000000E+03 0.  0.
         25    1    1    2    0    0 -0.97421244308E+02  0.21420811312E+03 -0.70722351510E+03  0.75575532739E+03  0.12500000000E+03 0.  0.
         25    1    1    2    0    0  0.15327288365E+03  0.16788911520E+03 -0.14540013792E+03  0.29739793538E+03  0.12500000000E+03 0.  0.
</event>
<event>
 5    0  0.5728184E-005  0.2920325E+03  0.7546771E-02  0.1089293E+00
         21   -1    0    0  502  501  0.00000000000E+00  0.00000000000E+00  0.29656928689E+03  0.29656928689E+03  0.00000000000E+00 0. -1.
         21   -1    0    0  501  502 -0.00000000000E+00 -0.00000000000E+00 -0.28756503871E+03  0.28756503871E+03  0.00000000000E+00 0. -1.
         25    1    1    2    0    0  0.83536417466E+02  0.50567341498E+02  0.10615332028E+03  0.19086360700E+03  0.12500000000E+03 0.  0.
         25    1    1    2    0    0 -0.88643505565E+02 -0.49194598843E+02 -0.18134689596E+03  0.24246541261E+03  0.12500000000E+03 0.  0.
         25    1    1    2    0    0  0.51070880994E+01 -0.13727426546E+01  0.84197823866E+02  0.15080530599E+03  0.12500000000E+03 0.  0.
</event>
<event>
 5    0  0.5867716E-005  0.2814803E+03  0.7546771E-02  0.1094883E+00
         21   -1    0    0  502  501  0.00000000000E+00  0.00000000000E+00  0.20005666907E+03  0.20005666907E+03  0.00000000000E+00 0.  1.
         21   -1    0    0  501  502 -0.00000000000E+00 -0.00000000000E+00 -0.39604368306E+03  0.39604368306E+03  0.00000000000E+00 0.  1.
         25    1    1    2    0    0  0.17840177863E+02 -0.43823449547E+02  0.27879683909E+02  0.13653220664E+03  0.12500000000E+03 0.  0.
         25    1    1    2    0    0  0.92427900895E+02  0.32432396381E+02  0.24040816848E+02  0.16061674282E+03  0.12500000000E+03 0.  0.
         25    1    1    2    0    0 -0.11026807876E+03  0.11391053166E+02 -0.24790751476E+03  0.29895140267E+03  0.12500000000E+03 0.  0.
</event>
<event>
 5    0  0.5728184E-005  0.2220466E+03  0.7546771E-02  0.1132366E+00
         21   -1    0    0  502  501  0.00000000000E+00  0.00000000000E+00  0.43241636783E+02  0.43241636783E+02  0.00000000000E+00 0.  1.
         21   -1    0    0  501  502 -0.00000000000E+00 -0.00000000000E+00 -0.11402130650E+04  0.11402130650E+04  0.00000000000E+00 0.  1.
         25    1    1    2    0    0 -0.66536291665E+02  0.84924478998E+02 -0.33410236745E+03  0.37267765854E+03  0.12500000000E+03 0.  0.
         25    1    1    2    0    0  0.36362351932E+02 -0.26841423220E+02 -0.34438259425E+03  0.36914367645E+03  0.12500000000E+03 0.  0.
         25    1    1    2    0    0  0.30173939733E+02 -0.58083055778E+02 -0.41848646653E+03  0.44163336681E+03  0.12500000000E+03 0.  0.
</event>
<event>
 5    0  0.5728184E-005  0.2568620E+03  0.7546771E-02  0.1109043E+00
         21   -1    0    0  502  501  0.00000000000E+00  0.00000000000E+00  0.61347280199E+02  0.61347280199E+02  0.00000000000E+00 0. -1.
         21   -1    0    0  501  502 -0.00000000000E+00 -0.00000000000E+00 -0.10754854238E+04  0.10754854238E+04  0.00000000000E+00 0. -1.
         25    1    1    2    0    0 -0.35391827796E+02  0.93496379692E+01 -0.17989318370E+03  0.22209582335E+03  0.12500000000E+03 0.  0.
         25    1    1    2    0    0 -0.62031521911E+02 -0.11144909158E+03 -0.31185946801E+03  0.35937464784E+03  0.12500000000E+03 0.  0.
         25    1    1    2    0    0  0.97423349707E+02  0.10209945361E+03 -0.52238549185E+03  0.55536223277E+03  0.12500000000E+03 0.  0.
</event>
<event>
 5    0  0.5728184E-005  0.3050007E+03  0.7546771E-02  0.1082767E+00
         21   -1    0    0  502  501  0.00000000000E+00  0.00000000000E+00  0.11108596327E+03  0.11108596327E+03  0.00000000000E+00 0. -1.
         21   -1    0    0  501  502 -0.00000000000E+00 -0.00000000000E+00 -0.83741847110E+03  0.83741847110E+03  0.00000000000E+00 0. -1.
         25    1    1    2    0    0  0.94038604149E+02 -0.11016210454E+03 -0.24761663545E+03  0.31291843426E+03  0.12500000000E+03 0.  0.
         25    1    1    2    0    0  0.84009856002E+02  0.10023250087E+03 -0.12390922815E+03  0.21927769370E+03  0.12500000000E+03 0.  0.
         25    1    1    2    0    0 -0.17804846015E+03  0.99296036663E+01 -0.35480664423E+03  0.41630830641E+03  0.12500000000E+03 0.  0.
</event>
<event>
 5    0  0.5728184E-005  0.2725682E+03  0.7546771E-02  0.1099819E+00
         21   -1    0    0  502  501  0.00000000000E+00  0.00000000000E+00  0.44116183017E+02  0.44116183017E+02  0.00000000000E+00 0.  1.
         21   -1    0    0  501  502 -0.00000000000E+00 -0.00000000000E+00 -0.16840405279E+04  0.16840405279E+04  0.00000000000E+00 0.  1.
         25    1    1    2    0    0  0.11549434490E+03 -0.12063207339E+03 -0.47963637562E+03  0.52303641714E+03  0.12500000000E+03 0.  0.
         25    1    1    2    0    0  0.73306489876E+01  0.52020328460E+02 -0.55041139192E+03  0.56686643342E+03  0.12500000000E+03 0.  0.
         25    1    1    2    0    0 -0.12282499389E+03  0.68611744928E+02 -0.60987657733E+03  0.63825386034E+03  0.12500000000E+03 0.  0.
</event>
<event>
 5    0  0.5728184E-005  0.4591186E+03  0.7546771E-02  0.1025037E+00
         21   -1    0    0  502  501  0.00000000000E+00  0.00000000000E+00  0.55167949920E+03  0.55167949920E+03  0.00000000000E+00 0.  1.
         21   -1    0    0  501  502 -0.00000000000E+00 -0.00000000000E+00 -0.38208759156E+03  0.38208759156E+03  0.00000000000E+00 0. -1.
         25    1    1    2    0    0  0.26536106394E+02 -0.20874445349E+02  0.22766215558E+03  0.26190640408E+03  0.12500000000E+03 0.  0.
         25    1    1    2    0    0  0.11893861396E+03  0.27215188378E+03 -0.13032216787E+03  0.34759446079E+03  0.12500000000E+03 0.  0.
         25    1    1    2    0    0 -0.14547472035E+03 -0.25127743843E+03  0.72251919930E+02  0.32426622590E+03  0.12500000000E+03 0.  0.
</event>
<event>
 5    0  0.5728184E-005  0.4851430E+03  0.7546771E-02  0.1017731E+00
         21   -1    0    0  502  501  0.00000000000E+00  0.00000000000E+00  0.24750716640E+04  0.24750716640E+04  0.00000000000E+00 0.  1.
         21   -1    0    0  501  502 -0.00000000000E+00 -0.00000000000E+00 -0.95093704373E+02  0.95093704373E+02  0.00000000000E+00 0.  1.
         25    1    1    2    0    0  0.11073022495E+03 -0.24299052358E+03  0.43800587544E+03  0.52799595092E+03  0.12500000000E+03 0.  0.
         25    1    1    2    0    0 -0.25615605638E+03  0.12371929780E+03  0.54747509621E+03  0.62950486165E+03  0.12500000000E+03 0.  0.
         25    1    1    2    0    0  0.14542583143E+03  0.11927122578E+03  0.13944969880E+04  0.14126645558E+04  0.12500000000E+03 0.  0.
</event>
<event>
 5    0  0.5728184E-005  0.2535155E+03  0.7546771E-02  0.1111103E+00
         21   -1    0    0  502  501  0.00000000000E+00  0.00000000000E+00  0.28070628603E+03  0.28070628603E+03  0.00000000000E+00 0. -1.
         21   -1    0    0  501  502 -0.00000000000E+00 -0.00000000000E+00 -0.22895847650E+03  0.22895847650E+03  0.00000000000E+00 0. -1.
         25    1    1    2    0    0  0.53354399631E+02  0.66811638686E+02  0.13980638627E+03  0.20610995285E+03  0.12500000000E+03 0.  0.
         25    1    1    2    0    0 -0.72870485109E+02  0.50643864679E+01 -0.38050982245E+02  0.14969513305E+03  0.12500000000E+03 0.  0.
         25    1    1    2    0    0  0.19516085478E+02 -0.71876025154E+02 -0.50007594490E+02  0.15385967662E+03  0.12500000000E+03 0.  0.
</event>
<event>
 5    0  0.5728184E-005  0.3698067E+03  0.7546771E-02  0.1054767E+00
         21   -1    0    0  502  501  0.00000000000E+00  0.00000000000E+00  0.17757498773E+04  0.17757498773E+04  0.00000000000E+00 0.  1.
         21   -1    0    0  501  502 -0.00000000000E+00 -0.00000000000E+00 -0.77013670495E+02  0.77013670495E+02  0.00000000000E+00 0.  1.
         25    1    1    2    0    0 -0.13891190501E+03 -0.10317149822E+03  0.11496563195E+04  0.11693055753E+04  0.12500000000E+03 0.  0.
         25    1    1    2    0    0  0.14654484175E+03  0.65435819255E+02  0.12292276402E+03  0.23768096895E+03  0.12500000000E+03 0.  0.
         25    1    1    2    0    0 -0.76329367418E+01  0.37735678961E+02  0.42615712328E+03  0.44577700357E+03  0.12500000000E+03 0.  0.
</event>
<event>
 5    0  0.5728184E-005  0.3331894E+03  0.7546771E-02  0.1069734E+00
         21   -1    0    0  502  501  0.00000000000E+00  0.00000000000E+00  0.63864124843E+03  0.63864124843E+03  0.00000000000E+00 0.  1.
         21   -1    0    0  501  502 -0.00000000000E+00 -0.00000000000E+00 -0.17383023582E+03  0.17383023582E+03  0.00000000000E+00 0.  1.
         25    1    1    2    0    0  0.16990799072E+02 -0.14715480614E+03  0.52091676719E+02  0.20070318136E+03  0.12500000000E+03 0.  0.
         25    1    1    2    0    0 -0.26115140536E+02 -0.96177178723E+02  0.73669179198E+02  0.17602328890E+03  0.12500000000E+03 0.  0.
         25    1    1    2    0    0  0.91243414641E+01  0.24333198487E+03  0.33905015670E+03  0.43574501399E+03  0.12500000000E+03 0.  0.
</event>
<event>
 5    0  0.5728184E-005  0.3555858E+03  0.7546771E-02  0.1060345E+00
         21   -1    0    0  502  501  0.00000000000E+00  0.00000000000E+00  0.38504911017E+03  0.38504911017E+03  0.00000000000E+00 0.  1.
         21   -1    0    0  501  502 -0.00000000000E+00 -0.00000000000E+00 -0.32837696530E+03  0.32837696530E+03  0.00000000000E+00 0.  1.
         25    1    1    2    0    0 -0.23481841718E+03 -0.62929108612E+02 -0.65351650231E+02  0.28106155900E+03  0.12500000000E+03 0.  0.
         25    1    1    2    0    0  0.19908454999E+03 -0.45763379026E+02  0.10680804991E+03  0.26222491192E+03  0.12500000000E+03 0.  0.
         25    1    1    2    0    0  0.35733867194E+02  0.10869248764E+03  0.15215745194E+02  0.17013960455E+03  0.12500000000E+03 0.  0.
</event>
<event>
 5    0  0.5728184E-005  0.3171450E+03  0.7546771E-02  0.1076971E+00
         21   -1    0    0  502  501  0.00000000000E+00  0.00000000000E+00  0.54625443714E+03  0.54625443714E+03  0.00000000000E+00 0.  1.
         21   -1    0    0  501  502 -0.00000000000E+00 -0.00000000000E+00 -0.18412839660E+03  0.18412839660E+03  0.00000000000E+00 0.  1.
         25    1    1    2    0    0  0.10338101691E+03 -0.98021839057E+02  0.97146217752E+01  0.18977694661E+03  0.12500000000E+03 0.  0.
         25    1    1    2    0    0 -0.11976301279E+03  0.78686577531E+02  0.28235271524E+02  0.19224200185E+03  0.12500000000E+03 0.  0.
         25    1    1    2    0    0  0.16381995880E+02  0.19335261526E+02  0.32417614724E+03  0.34836388528E+03  0.12500000000E+03 0.  0.
</event>
<event>
 5    0  0.5728184E-005  0.2710504E+03  0.7546771E-02  0.1100680E+00
         21   -1    0    0  502  501  0.00000000000E+00  0.00000000000E+00  0.45116351261E+03  0.45116351261E+03  0.00000000000E+00 0. -1.
         21   -1    0    0  501  502 -0.00000000000E+00 -0.00000000000E+00 -0.16284188652E+03  0.16284188652E+03  0.00000000000E+00 0. -1.
         25    1    1    2    0    0 -0.48792344010E+02  0.16453280539E+02  0.22002301415E+03  0.25823735212E+03  0.12500000000E+03 0.  0.
         25    1    1    2    0    0 -0.39160044177E+02 -0.30186171916E+01 -0.70572949926E+02  0.14882258690E+03  0.12500000000E+03 0.  0.
         25    1    1    2    0    0  0.87952388187E+02 -0.13434663347E+02  0.13887156187E+03  0.20694546012E+03  0.12500000000E+03 0.  0.
</event>
<event>
 5    0  0.5728184E-005  0.2367684E+03  0.7546771E-02  0.1121965E+00
         21   -1    0    0  502  501  0.00000000000E+00  0.00000000000E+00  0.12976901193E+03  0.12976901193E+03  0.00000000000E+00 0.  1.
         21   -1    0    0  501  502 -0.00000000000E+00 -0.00000000000E+00 -0.43199260332E+03  0.43199260332E+03  0.00000000000E+00 0.  1.
         25    1    1    2    0    0 -0.34305927739E+02 -0.11595413510E+02  0.27816078241E+02  0.13307924144E+03  0.12500000000E+03 0.  0.
         25    1    1    2    0    0 -0.32150816253E+02 -0.13581962450E+02 -0.15754066630E+03  0.20411321914E+03  0.12500000000E+03 0.  0.
         25    1    1    2    0    0  0.66456743992E+02  0.25177375960E+02 -0.17249900333E+03  0.22456915467E+03  0.12500000000E+03 0.  0.
</event>
<event>
 5    0  0.5728184E-005  0.3608751E+03  0.7546771E-02  0.1058238E+00
         21   -1    0    0  502  501  0.00000000000E+00  0.00000000000E+00  0.86066190450E+03  0.86066190450E+03  0.00000000000E+00 0.  1.
         21   -1    0    0  501  502 -0.00000000000E+00 -0.00000000000E+00 -0.15131471290E+03  0.15131471290E+03  0.00000000000E+00 0.  1.
         25    1    1    2    0    0 -0.12872372497E+03 -0.15946784945E+03  0.56069617520E+03  0.60992212065E+03  0.12500000000E+03 0.  0.
         25    1    1    2    0    0 -0.31371286969E+02  0.70812287246E+02  0.91469881979E+02  0.17317701054E+03  0.12500000000E+03 0.  0.
         25    1    1    2    0    0  0.16009501194E+03  0.88655562202E+02  0.57181134427E+02  0.22887748621E+03  0.12500000000E+03 0.  0.
</event>
<event>
 5    0  0.5728184E-005  0.3327167E+03  0.7546771E-02  0.1069941E+00
         21   -1    0    0  502  501  0.00000000000E+00  0.00000000000E+00  0.12638663011E+04  0.12638663011E+04  0.00000000000E+00 0.  1.
         21   -1    0    0  501  502 -0.00000000000E+00 -0.00000000000E+00 -0.87588714491E+02  0.87588714491E+02  0.00000000000E+00 0.  1.
         25    1    1    2    0    0 -0.85203087847E+02 -0.14682219710E+03  0.27534349403E+03  0.34677855101E+03  0.12500000000E+03 0.  0.
         25    1    1    2    0    0 -0.69711233793E+02  0.93265734859E+02  0.15460615438E+03  0.23040446260E+03  0.12500000000E+03 0.  0.
         25    1    1    2    0    0  0.15491432164E+03  0.53556462244E+02  0.74632793820E+03  0.77427200197E+03  0.12500000000E+03 0.  0.
</event>
<event>
 5    0  0.5728184E-005  0.4056354E+03  0.7546771E-02  0.1041846E+00
         21   -1    0    0  502  501  0.00000000000E+00  0.00000000000E+00  0.16460316807E+03  0.16460316807E+03  0.00000000000E+00 0. -1.
         21   -1    0    0  501  502 -0.00000000000E+00 -0.00000000000E+00 -0.99961670821E+03  0.99961670821E+03  0.00000000000E+00 0. -1.
         25    1    1    2    0    0  0.17262658204E+02  0.40440431498E+02 -0.26112778574E+03  0.29282443265E+03  0.12500000000E+03 0.  0.
         25    1    1    2    0    0 -0.15007345751E+03 -0.11031740441E+03  0.39410766678E+02  0.22775025992E+03  0.12500000000E+03 0.  0.
         25    1    1    2    0    0  0.13281079930E+03  0.69876972914E+02 -0.61329652107E+03  0.64364518371E+03  0.12500000000E+03 0.  0.
</event>
<event>
 5    0  0.5728184E-005  0.4343596E+03  0.7546771E-02  0.1032492E+00
         21   -1    0    0  502  501  0.00000000000E+00  0.00000000000E+00  0.16813618009E+03  0.16813618009E+03  0.00000000000E+00 0. -1.
         21   -1    0    0  501  502 -0.00000000000E+00 -0.00000000000E+00 -0.11221159509E+04  0.11221159509E+04  0.00000000000E+00 0. -1.
         25    1    1    2    0    0  0.13182452536E+03 -0.56985628236E+02 -0.46192545831E+03  0.49962505576E+03  0.12500000000E+03 0.  0.
         25    1    1    2    0    0  0.16951868944E+03  0.31813111416E+02 -0.16865579291E+02  0.21367757929E+03  0.12500000000E+03 0.  0.
         25    1    1    2    0    0 -0.30134321479E+03  0.25172516820E+02 -0.47518873325E+03  0.57694949598E+03  0.12500000000E+03 0.  0.
</event>
<event>
 5    0  0.5728184E-005  0.2627948E+03  0.7546771E-02  0.1105476E+00
         21   -1    0    0  502  501  0.00000000000E+00  0.00000000000E+00  0.12447697380E+03  0.12447697380E+03  0.00000000000E+00 0.  1.
         21   -1    0    0  501  502 -0.00000000000E+00 -0.00000000000E+00 -0.55481044850E+03  0.55481044850E+03  0.00000000000E+00 0.  1.
         25    1    1    2    0    0  0.19042714043E+02  0.17269946140E+01 -0.79126999231E+02  0.14917000193E+03  0.12500000000E+03 0.  0.
         25    1    1    2    0    0  0.58127992399E+02  0.13612018657E+03 -0.19812832108E+03  0.27710539567E+03  0.12500000000E+03 0.  0.
         25    1    1    2    0    0 -0.77170706443E+02 -0.13784718118E+03 -0.15307815438E+03  0.25301202470E+03  0.12500000000E+03 0.  0.
</event>
<event>
 5    0  0.5728184E-005  0.2745003E+03  0.7546771E-02  0.1098731E+00
         21   -1    0    0  502  501  0.00000000000E+00  0.00000000000E+00  0.30690663351E+03  0.30690663351E+03  0.00000000000E+00 0.  1.
         21   -1    0    0  501  502 -0.00000000000E+00 -0.00000000000E+00 -0.24551583731E+03  0.24551583731E+03  0.00000000000E+00 0.  1.
         25    1    1    2    0    0  0.15402059896E+03 -0.66455147579E+02 -0.23087258824E+02  0.21046770076E+03  0.12500000000E+03 0.  0.
         25    1    1    2    0    0 -0.37307395999E+01  0.39833118981E+02  0.55727528522E+02  0.14258735295E+03  0.12500000000E+03 0.  0.
         25    1    1    2    0    0 -0.15028985936E+03  0.26622028598E+02  0.28750526504E+02  0.19936741711E+03  0.12500000000E+03 0.  0.
</event>
<event>
 5    0  0.5728184E-005  0.3300372E+03  0.7546771E-02  0.1071120E+00
         21   -1    0    0  502  501  0.00000000000E+00  0.00000000000E+00  0.32896631646E+03  0.32896631646E+03  0.00000000000E+00 0. -1.
         21   -1    0    0  501  502 -0.00000000000E+00 -0.00000000000E+00 -0.33111152652E+03  0.33111152652E+03  0.00000000000E+00 0. -1.
         25    1    1    2    0    0 -0.27482466638E+02 -0.16264831034E+03  0.10355988730E+03  0.23142905843E+03  0.12500000000E+03 0.  0.
         25    1    1    2    0    0 -0.69874183520E+02  0.12178036878E+02  0.58653857593E+02  0.15522880247E+03  0.12500000000E+03 0.  0.
         25    1    1    2    0    0  0.97356650158E+02  0.15047027346E+03 -0.16435895496E+03  0.27341998208E+03  0.12500000000E+03 0.  0.
</event>
<event>
 5    0  0.5728184E-005  0.2642508E+03  0.7546771E-02  0.1104616E+00
         21   -1    0    0  502  501  0.00000000000E+00  0.00000000000E+00  0.26841938203E+04  0.26841938203E+04  0.00000000000E+00 0.  1.
         21   -1    0    0  501  502 -0.00000000000E+00 -0.00000000000E+00 -0.26014687554E+02  0.26014687554E+02  0.00000000000E+00 0.  1.
         25    1    1    2    0    0 -0.34439816028E+02 -0.60516330293E+02  0.12810427609E+04  0.12890088760E+04  0.12500000000E+03 0.  0.
         25    1    1    2    0    0 -0.80438401756E+01  0.75110462608E+02  0.11406644105E+04  0.11499767747E+04  0.12500000000E+03 0.  0.
         25    1    1    2    0    0  0.42483656204E+02 -0.14594132314E+02  0.23647196138E+03  0.27122285718E+03  0.12500000000E+03 0.  0.
</event>
<event>
 5    0  0.5728184E-005  0.2886188E+03  0.7546771E-02  0.1091072E+00
         21   -1    0    0  502  501  0.00000000000E+00  0.00000000000E+00  0.14511217859E+03  0.14511217859E+03  0.00000000000E+00 0.  1.
         21   -1    0    0  501  502 -0.00000000000E+00 -0.00000000000E+00 -0.57404425775E+03  0.57404425775E+03  0.00000000000E+00 0.  1.
         25    1    1    2    0    0 -0.30542347786E+02  0.37846253369E+02 -0.80601953840E+01  0.13436941859E+03  0.12500000000E+03 0.  0.
         25    1    1    2    0    0 -0.90528048810E+02  0.22522282797E+02 -0.38941410584E+02  0.16076073619E+03  0.12500000000E+03 0.  0.
         25    1    1    2    0    0  0.12107039660E+03 -0.60368536166E+02 -0.38193047320E+03  0.42402628155E+03  0.12500000000E+03 0.  0.
</event>
<event>
 5    0  0.5728184E-005  0.2409957E+03  0.7546771E-02  0.1119131E+00
         21   -1    0    0  502  501  0.00000000000E+00  0.00000000000E+00  0.46675183231E+03  0.46675183231E+03  0.00000000000E+00 0. -1.
         21   -1    0    0  501  502 -0.00000000000E+00 -0.00000000000E+00 -0.12443210400E+03  0.12443210400E+03  0.00000000000E+00 0. -1.
         25    1    1    2    0    0  0.31456317610E+02  0.83418290003E+02  0.63574813123E+02  0.16617721832E+03  0.12500000000E+03 0.  0.
         25    1    1    2    0    0 -0.91275262638E+02 -0.88228647107E+02  0.12306974074E+03  0.21653320490E+03  0.12500000000E+03 0.  0.
         25    1    1    2    0    0  0.59818945028E+02  0.48103571037E+01  0.15567517444E+03  0.20847351308E+03  0.12500000000E+03 0.  0.
</event>
<event>
 5    0  0.5728184E-005  0.4446401E+03  0.7546771E-02  0.1029333E+00
         21   -1    0    0  502  501  0.00000000000E+00  0.00000000000E+00  0.11930473551E+04  0.11930473551E+04  0.00000000000E+00 0. -1.
         21   -1    0    0  501  502 -0.00000000000E+00 -0.00000000000E+00 -0.16571413588E+03  0.16571413588E+03  0.00000000000E+00 0. -1.
         25    1    1    2    0    0  0.77390561941E+02  0.11922006636E+02  0.50072979015E+03  0.52200263990E+03  0.12500000000E+03 0.  0.
         25    1    1    2    0    0  0.14982208927E+03 -0.17530478096E+03  0.45358920384E+02  0.26619702538E+03  0.12500000000E+03 0.  0.
         25    1    1    2    0    0 -0.22721265121E+03  0.16338277433E+03  0.48124450867E+03  0.57056182570E+03  0.12500000000E+03 0.  0.
</event>
<event>
 5    0  0.5728184E-005  0.2499494E+03  0.7546771E-02  0.1113337E+00
         21   -1    0    0  502  501  0.00000000000E+00  0.00000000000E+00  0.24618088968E+03  0.24618088968E+03  0.00000000000E+00 0. -1.
         21   -1    0    0  501  502 -0.00000000000E+00 -0.00000000000E+00 -0.25377566930E+03  0.25377566930E+03  0.00000000000E+00 0. -1.
         25    1    1    2    0    0 -0.66457347291E+02 -0.91011686952E+01 -0.91852156261E+02  0.16900067719E+03  0.12500000000E+03 0.  0.
         25    1    1    2    0    0 -0.26522713518E+02  0.77375761774E+02  0.29522900946E+02  0.15227299341E+03  0.12500000000E+03 0.  0.
         25    1    1    2    0    0  0.92980060809E+02 -0.68274593079E+02  0.54734475697E+02  0.17868288837E+03  0.12500000000E+03 0.  0.
</event>
<event>
 5    0  0.5728184E-005  0.3995573E+03  0.7546771E-02  0.1043933E+00
         21   -1    0    0  502  501  0.00000000000E+00  0.00000000000E+00  0.19773704221E+03  0.19773704221E+03  0.00000000000E+00 0.  1.
         21   -1    0    0  501  502 -0.00000000000E+00 -0.00000000000E+00 -0.80736524876E+03  0.80736524876E+03  0.00000000000E+00 0. -1.
         25    1    1    2    0    0 -0.23307842876E+03  0.14211573359E+03 -0.45449270806E+03  0.54471190309E+03  0.12500000000E+03 0.  0.
         25    1    1    2    0    0  0.11177506259E+02  0.24636257785E+00  0.86372402434E+01  0.12579586344E+03  0.12500000000E+03 0.  0.
         25    1    1    2    0    0  0.22190092250E+03 -0.14236209616E+03 -0.16377273873E+03  0.33459452444E+03  0.12500000000E+03 0.  0.
</event>
<event>
 5    0  0.5728184E-005  0.4654666E+03  0.7546771E-02  0.1023208E+00
         21   -1    0    0  502  501  0.00000000000E+00  0.00000000000E+00  0.38864329892E+03  0.38864329892E+03  0.00000000000E+00 0.  1.
         21   -1    0    0  501  502 -0.00000000000E+00 -0.00000000000E+00 -0.55747570794E+03  0.55747570794E+03  0.00000000000E+00 0.  1.
         25    1    1    2    0    0  0.10703075052E+03  0.31874732054E+03  0.54980863762E+01  0.35876268599E+03  0.12500000000E+03 0.  0.
         25    1    1    2    0    0 -0.90076771136E+02  0.50724087098E+02 -0.63314532409E+01  0.16233251372E+03  0.12500000000E+03 0.  0.
         25    1    1    2    0    0 -0.16953979379E+02 -0.36947140764E+03 -0.16799904216E+03  0.42502380715E+03  0.12500000000E+03 0.  0.
</event>
<event>
 5    0  0.5728184E-005  0.2705057E+03  0.7546771E-02  0.1100991E+00
         21   -1    0    0  502  501  0.00000000000E+00  0.00000000000E+00  0.53603259504E+02  0.53603259504E+02  0.00000000000E+00 0.  1.
         21   -1    0    0  501  502 -0.00000000000E+00 -0.00000000000E+00 -0.13650906294E+04  0.13650906294E+04  0.00000000000E+00 0.  1.
         25    1    1    2    0    0 -0.11803366447E+02  0.11322753669E+03 -0.18220579899E+03  0.24856336760E+03  0.12500000000E+03 0.  0.
         25    1    1    2    0    0 -0.81193610200E+01 -0.11509744087E+03 -0.49717807462E+03  0.52547538744E+03  0.12500000000E+03 0.  0.
         25    1    1    2    0    0  0.19922727467E+02  0.18699041835E+01 -0.63210349631E+03  0.64465513389E+03  0.12500000000E+03 0.  0.
</event>
<event>
 5    0  0.5728184E-005  0.2687847E+03  0.7546771E-02  0.1101977E+00
         21   -1    0    0  502  501  0.00000000000E+00  0.00000000000E+00  0.63744509441E+02  0.63744509441E+02  0.00000000000E+00 0.  1.
         21   -1    0    0  501  502 -0.00000000000E+00 -0.00000000000E+00 -0.11333561689E+04  0.11333561689E+04  0.00000000000E+00 0.  1.
         25    1    1    2    0    0  0.13214989762E+03 -0.94537574680E+02 -0.34193085536E+03  0.39867613211E+03  0.12500000000E+03 0.  0.
         25    1    1    2    0    0 -0.10991249864E+03  0.83476254174E+02 -0.54298426390E+03  0.57402609105E+03  0.12500000000E+03 0.  0.
         25    1    1    2    0    0 -0.22237398975E+02  0.11061320505E+02 -0.18469654020E+03  0.22439845518E+03  0.12500000000E+03 0.  0.
</event>
<event>
 5    0  0.5728184E-005  0.7597377E+03  0.7546771E-02  0.9620196E-01
         21   -1    0    0  502  501  0.00000000000E+00  0.00000000000E+00  0.15015703759E+04  0.15015703759E+04  0.00000000000E+00 0. -1.
         21   -1    0    0  501  502 -0.00000000000E+00 -0.00000000000E+00 -0.38439848470E+03  0.38439848470E+03  0.00000000000E+00 0. -1.
         25    1    1    2    0    0 -0.35587288477E+02  0.11077965903E+03  0.33128582147E+03  0.37271152848E+03  0.12500000000E+03 0.  0.
         25    1    1    2    0    0  0.59498012473E+03 -0.31488336040E+03  0.42391357098E+03  0.80528292863E+03  0.12500000000E+03 0.  0.
         25    1    1    2    0    0 -0.55939283625E+03  0.20410370138E+03  0.36197249877E+03  0.70797440351E+03  0.12500000000E+03 0.  0.
</event>
<event>
 5    0  0.5728184E-005  0.4189131E+03  0.7546771E-02  0.1037421E+00
         21   -1    0    0  502  501  0.00000000000E+00  0.00000000000E+00  0.27908579695E+04  0.27908579695E+04  0.00000000000E+00 0. -1.
         21   -1    0    0  501  502 -0.00000000000E+00 -0.00000000000E+00 -0.62879650836E+02  0.62879650836E+02  0.00000000000E+00 0. -1.
         25    1    1    2    0    0 -0.83006777928E+02 -0.22438063262E+03  0.80913843280E+03  0.85297526160E+03  0.12500000000E+03 0.  0.
         25    1    1    2    0    0 -0.58245256755E+02 -0.95405009918E+02  0.91992439180E+03  0.93508315805E+03  0.12500000000E+03 0.  0.
         25    1    1    2    0    0  0.14125203468E+03  0.31978564254E+03  0.99891549409E+03  0.10656792007E+04  0.12500000000E+03 0.  0.
</event>
<event>
 5    0  0.5728184E-005  0.2776068E+03  0.7546771E-02  0.1097003E+00
         21   -1    0    0  502  501  0.00000000000E+00  0.00000000000E+00  0.48872794049E+03  0.48872794049E+03  0.00000000000E+00 0. -1.
         21   -1    0    0  501  502 -0.00000000000E+00 -0.00000000000E+00 -0.15768599561E+03  0.15768599561E+03  0.00000000000E+00 0. -1.
         25    1    1    2    0    0 -0.37059796948E+02 -0.15323567817E+03  0.14789602849E+03  0.24970550025E+03  0.12500000000E+03 0.  0.
         25    1    1    2    0    0 -0.53741614090E+02  0.57294716339E+02  0.13919085325E+02  0.14828886183E+03  0.12500000000E+03 0.  0.
         25    1    1    2    0    0  0.90801411037E+02  0.95940961830E+02  0.16922683107E+03  0.24841957402E+03  0.12500000000E+03 0.  0.
</event>
<event>
 5    0  0.5728184E-005  0.5531470E+03  0.7546771E-02  0.1000768E+00
         21   -1    0    0  502  501  0.00000000000E+00  0.00000000000E+00  0.43086353569E+03  0.43086353569E+03  0.00000000000E+00 0.  1.
         21   -1    0    0  501  502 -0.00000000000E+00 -0.00000000000E+00 -0.71013565606E+03  0.71013565606E+03  0.00000000000E+00 0.  1.
         25    1    1    2    0    0  0.47093099105E+03 -0.35351801637E+02 -0.91575695860E+02  0.49702802364E+03  0.12500000000E+03 0.  0.
         25    1    1    2    0    0 -0.16013158321E+03  0.46631301171E+02 -0.22501738848E+03  0.30671554788E+03  0.12500000000E+03 0.  0.
         25    1    1    2    0    0 -0.31079940784E+03 -0.11279499534E+02  0.37320963974E+02  0.33725562023E+03  0.12500000000E+03 0.  0.
</event>
<event>
 5    0  0.5728184E-005  0.4176547E+03  0.7546771E-02  0.1037832E+00
         21   -1    0    0  502  501  0.00000000000E+00  0.00000000000E+00  0.17029472570E+03  0.17029472570E+03  0.00000000000E+00 0. -1.
         21   -1    0    0  501  502 -0.00000000000E+00 -0.00000000000E+00 -0.10243148980E+04  0.10243148980E+04  0.00000000000E+00 0. -1.
         25    1    1    2    0    0 -0.15136036551E+03 -0.14764885232E+03 -0.40946917786E+03  0.47749361404E+03  0.12500000000E+03 0.  0.
         25    1    1    2    0    0 -0.14947024559E+03  0.28638780458E+02 -0.25395248981E+03  0.32136957096E+03  0.12500000000E+03 0.  0.
         25    1    1    2    0    0  0.30083061109E+03  0.11901007186E+03 -0.19059850465E+03  0.39574643871E+03  0.12500000000E+03 0.  0.
</event>
<event>
 5    0  0.5728184E-005  0.3879700E+03  0.7546771E-02  0.1048027E+00
         21   -1    0    0  502  501  0.00000000000E+00  0.00000000000E+00  0.84256112273E+03  0.84256112273E+03  0.00000000000E+00 0.  1.
         21   -1    0    0  501  502 -0.00000000000E+00 -0.00000000000E+00 -0.17864665113E+03  0.17864665113E+03  0.00000000000E+00 0.  1.
         25    1    1    2    0    0  0.55211516370E+02 -0.29520582533E+03  0.28639567749E+03  0.43340774674E+03  0.12500000000E+03 0.  0.
         25    1    1    2    0    0 -0.12376728091E+03  0.82956182050E+02  0.17495058646E+03  0.26159658955E+03  0.12500000000E+03 0.  0.
         25    1    1    2    0    0  0.68555764543E+02  0.21224964328E+03  0.20256820766E+03  0.32620343757E+03  0.12500000000E+03 0.  0.
</event>
<event>
 5    0  0.5728184E-005  0.2379933E+03  0.7546771E-02  0.1121137E+00
         21   -1    0    0  502  501  0.00000000000E+00  0.00000000000E+00  0.10511358649E+03  0.10511358649E+03  0.00000000000E+00 0.  1.
         21   -1    0    0  501  502 -0.00000000000E+00 -0.00000000000E+00 -0.53885314948E+03  0.53885314948E+03  0.00000000000E+00 0.  1.
         25    1    1    2    0    0 -0.24173324336E+02  0.97885215633E+02 -0.25202960635E+03  0.29884743185E+03  0.12500000000E+03 0.  0.
         25    1    1    2    0    0 -0.12310657376E+02 -0.96172173940E+02 -0.67831760587E+02  0.17212433608E+03  0.12500000000E+03 0.  0.
         25    1    1    2    0    0  0.36483981713E+02 -0.17130416939E+01 -0.11387819605E+03  0.17299496805E+03  0.12500000000E+03 0.  0.
</event>
<event>
 5    0  0.5728184E-005  0.2912808E+03  0.7546771E-02  0.1089682E+00
         21   -1    0    0  502  501  0.00000000000E+00  0.00000000000E+00  0.16224368669E+04  0.16224368669E+04  0.00000000000E+00 0. -1.
         21   -1    0    0  501  502 -0.00000000000E+00 -0.00000000000E+00 -0.52294491120E+02  0.52294491120E+02  0.00000000000E+00 0. -1.
         25    1    1    2    0    0  0.44249122461E+02  0.92632023069E+02  0.57499245332E+03  0.59731063770E+03  0.12500000000E+03 0.  0.
         25    1    1    2    0    0  0.65235429686E+02 -0.95814907466E+02  0.81367494144E+03  0.83134112620E+03  0.12500000000E+03 0.  0.
         25    1    1    2    0    0 -0.10948455215E+03  0.31828843971E+01  0.18147498106E+03  0.24607959416E+03  0.12500000000E+03 0.  0.
</event>
<event>
 5    0  0.5728184E-005  0.1993957E+03  0.7546771E-02  0.1150250E+00
         21   -1    0    0  502  501  0.00000000000E+00  0.00000000000E+00  0.63072503325E+03  0.63072503325E+03  0.00000000000E+00 0.  1.
         21   -1    0    0  501  502 -0.00000000000E+00 -0.00000000000E+00 -0.63036417658E+02  0.63036417658E+02  0.00000000000E+00 0.  1.
         25    1    1    2    0    0 -0.36015821004E+02  0.24381296540E+02  0.17091930073E+03  0.21617121535E+03  0.12500000000E+03 0.  0.
         25    1    1    2    0    0  0.88052832395E+01 -0.90174662239E+01  0.26512011093E+03  0.29338118708E+03  0.12500000000E+03 0.  0.
         25    1    1    2    0    0  0.27210537765E+02 -0.15363830316E+02  0.13164920393E+03  0.18420904848E+03  0.12500000000E+03 0.  0.
</event>
<event>
 5    0  0.5728184E-005  0.2788372E+03  0.7546771E-02  0.1096326E+00
         21   -1    0    0  502  501  0.00000000000E+00  0.00000000000E+00  0.69274196166E+02  0.69274196166E+02  0.00000000000E+00 0.  1.
         21   -1    0    0  501  502 -0.00000000000E+00 -0.00000000000E+00 -0.11223545076E+04  0.11223545076E+04  0.00000000000E+00 0.  1.
         25    1    1    2    0    0 -0.70002058522E+02 -0.11298696879E+03 -0.30640861360E+03  0.35661965986E+03  0.12500000000E+03 0.  0.
         25    1    1    2    0    0 -0.51586403074E+02  0.13817980499E+03 -0.45307737760E+03  0.49260422814E+03  0.12500000000E+03 0.  0.
         25    1    1    2    0    0  0.12158846160E+03 -0.25192836199E+02 -0.29359432028E+03  0.34240481581E+03  0.12500000000E+03 0.  0.
</event>
<event>
 5    0  0.7107083E-005  0.3255221E+03  0.7546771E-02  0.1073136E+00
         21   -1    0    0  502  501  0.00000000000E+00  0.00000000000E+00  0.16839042045E+03  0.16839042045E+03  0.00000000000E+00 0. -1.
         21   -1    0    0  501  502 -0.00000000000E+00 -0.00000000000E+00 -0.62927934632E+03  0.62927934632E+03  0.00000000000E+00 0. -1.
         25    1    1    2    0    0 -0.93204691824E+02  0.46748567089E+02  0.44846515349E+02  0.16884535244E+03  0.12500000000E+03 0.  0.
         25    1    1    2    0    0 -0.77109651858E+02  0.27881985482E+02 -0.19372499000E+03  0.24469915258E+03  0.12500000000E+03 0.  0.
         25    1    1    2    0    0  0.17031434368E+03 -0.74630552572E+02 -0.31201045122E+03  0.38412526175E+03  0.12500000000E+03 0.  0.
</event>
<event>
 5    0  0.5728184E-005  0.2289200E+03  0.7546771E-02  0.1127402E+00
         21   -1    0    0  502  501  0.00000000000E+00  0.00000000000E+00  0.32151837048E+03  0.32151837048E+03  0.00000000000E+00 0.  1.
         21   -1    0    0  501  502 -0.00000000000E+00 -0.00000000000E+00 -0.16299027723E+03  0.16299027723E+03  0.00000000000E+00 0.  1.
         25    1    1    2    0    0  0.70673375741E+02  0.64338093964E+02  0.56860205063E+02  0.16730869461E+03  0.12500000000E+03 0.  0.
         25    1    1    2    0    0  0.94620781262E+01  0.12523523378E+02  0.96386545272E+01  0.12634980499E+03  0.12500000000E+03 0.  0.
         25    1    1    2    0    0 -0.80135453867E+02 -0.76861617342E+02  0.92029233659E+02  0.19085014811E+03  0.12500000000E+03 0.  0.
</event>
<event>
 5    0  0.5728184E-005  0.2186124E+03  0.7546771E-02  0.1134922E+00
         21   -1    0    0  502  501  0.00000000000E+00  0.00000000000E+00  0.14904628444E+04  0.14904628444E+04  0.00000000000E+00 0. -1.
         21   -1    0    0  501  502 -0.00000000000E+00 -0.00000000000E+00 -0.32064804136E+02  0.32064804136E+02  0.00000000000E+00 0. -1.
         25    1    1    2    0    0  0.34809200507E+02  0.37870869984E+02  0.53456560037E+03  0.55139030126E+03  0.12500000000E+03 0.  0.
         25    1    1    2    0    0 -0.61439505052E+02 -0.42106474693E+02  0.28911801614E+03  0.32366957727E+03  0.12500000000E+03 0.  0.
         25    1    1    2    0    0  0.26630304545E+02  0.42356047088E+01  0.63471442381E+03  0.64746777006E+03  0.12500000000E+03 0.  0.
</event>
<event>
 5    0  0.5728184E-005  0.4137515E+03  0.7546771E-02  0.1039119E+00
         21   -1    0    0  502  501  0.00000000000E+00  0.00000000000E+00  0.13816629262E+04  0.13816629262E+04  0.00000000000E+00 0. -1.
         21   -1    0    0  501  502 -0.00000000000E+00 -0.00000000000E+00 -0.12390166773E+03  0.12390166773E+03  0.00000000000E+00 0. -1.
         25    1    1    2    0    0  0.14458775118E+03 -0.55951672341E+02  0.64481575274E+03  0.67486929283E+03  0.12500000000E+03 0.  0.
         25    1    1    2    0    0 -0.43741047915E+02 -0.20906012532E+03  0.31737690277E+03  0.40245808935E+03  0.12500000000E+03 0.  0.
         25    1    1    2    0    0 -0.10084670326E+03  0.26501179766E+03  0.29556860293E+03  0.42823721171E+03  0.12500000000E+03 0.  0.
</event>
<event>
 5    0  0.5728184E-005  0.2637974E+03  0.7546771E-02  0.1104883E+00
         21   -1    0    0  502  501  0.00000000000E+00  0.00000000000E+00  0.43298029447E+03  0.43298029447E+03  0.00000000000E+00 0. -1.
         21   -1    0    0  501  502 -0.00000000000E+00 -0.00000000000E+00 -0.16072104618E+03  0.16072104618E+03  0.00000000000E+00 0. -1.
         25    1    1    2    0    0 -0.25105553680E+02  0.31545793920E+02  0.58356882093E+02  0.14372178550E+03  0.12500000000E+03 0.  0.
         25    1    1    2    0    0 -0.12634913496E+02 -0.10831455545E+03  0.24449092386E+03  0.29545303486E+03  0.12500000000E+03 0.  0.
         25    1    1    2    0    0  0.37740467176E+02  0.76768761533E+02 -0.30588557660E+02  0.15452652028E+03  0.12500000000E+03 0.  0.
</event>
<event>
 5    0  0.5728184E-005  0.3235032E+03  0.7546771E-02  0.1074048E+00
         21   -1    0    0  502  501  0.00000000000E+00  0.00000000000E+00  0.93195152528E+03  0.93195152528E+03  0.00000000000E+00 0. -1.
         21   -1    0    0  501  502 -0.00000000000E+00 -0.00000000000E+00 -0.11229587936E+03  0.11229587936E+03  0.00000000000E+00 0. -1.
         25    1    1    2    0    0 -0.70624383813E+02  0.10639605768E+02  0.91915638231E+02  0.17080541371E+03  0.12500000000E+03 0.  0.
         25    1    1    2    0    0 -0.15629493407E+03 -0.34165075882E+02  0.44563557396E+03  0.48970544576E+03  0.12500000000E+03 0.  0.
         25    1    1    2    0    0  0.22691931788E+03  0.23525470114E+02  0.28210443374E+03  0.38373654518E+03  0.12500000000E+03 0.  0.
</event>
<event>
 5    0  0.5728184E-005  0.2793486E+03  0.7546771E-02  0.1096045E+00
         21   -1    0    0  502  501  0.00000000000E+00  0.00000000000E+00  0.34034880596E+03  0.34034880596E+03  0.00000000000E+00 0. -1.
         21   -1    0    0  501  502 -0.00000000000E+00 -0.00000000000E+00 -0.22928134083E+03  0.22928134083E+03  0.00000000000E+00 0. -1.
         25    1    1    2    0    0  0.10561592819E+03 -0.80630506449E+02  0.16660209834E+03  0.24705720396E+03  0.12500000000E+03 0.  0.
         25    1    1    2    0    0  0.15140014150E+02  0.17392669378E+02  0.70970980381E+01  0.12730708455E+03  0.12500000000E+03 0.  0.
         25    1    1    2    0    0 -0.12075594234E+03  0.63237837072E+02 -0.62631731256E+02  0.19526585828E+03  0.12500000000E+03 0.  0.
</event>
<event>
 5    0  0.5728184E-005  0.2365694E+03  0.7546771E-02  0.1122099E+00
         21   -1    0    0  502  501  0.00000000000E+00  0.00000000000E+00  0.36466244382E+03  0.36466244382E+03  0.00000000000E+00 0.  1.
         21   -1    0    0  501  502 -0.00000000000E+00 -0.00000000000E+00 -0.15347096652E+03  0.15347096652E+03  0.00000000000E+00 0.  1.
         25    1    1    2    0    0  0.10020160702E+03  0.47945287662E+02  0.14351070945E+03  0.22036205750E+03  0.12500000000E+03 0.  0.
         25    1    1    2    0    0 -0.30802140515E+02  0.12239082472E+02  0.59720336748E+02  0.14244327159E+03  0.12500000000E+03 0.  0.
         25    1    1    2    0    0 -0.69399466503E+02 -0.60184370134E+02  0.79604311028E+01  0.15532808124E+03  0.12500000000E+03 0.  0.
</event>
<event>
 5    0  0.5728184E-005  0.2513480E+03  0.7546771E-02  0.1112456E+00
         21   -1    0    0  502  501  0.00000000000E+00  0.00000000000E+00  0.23471313144E+03  0.23471313144E+03  0.00000000000E+00 0.  1.
         21   -1    0    0  501  502 -0.00000000000E+00 -0.00000000000E+00 -0.26916182772E+03  0.26916182772E+03  0.00000000000E+00 0.  1.
         25    1    1    2    0    0  0.38963567038E+02 -0.11580755230E+02 -0.12485727940E+02  0.13203471835E+03  0.12500000000E+03 0.  0.
         25    1    1    2    0    0 -0.89696983593E+01 -0.50665791500E+02  0.11235848139E+03  0.17577515825E+03  0.12500000000E+03 0.  0.
         25    1    1    2    0    0 -0.29993868679E+02  0.62246546729E+02 -0.13432144974E+03  0.19606508256E+03  0.12500000000E+03 0.  0.
</event>
<event>
 5    0  0.5728184E-005  0.4020991E+03  0.7546771E-02  0.1043055E+00
         21   -1    0    0  502  501  0.00000000000E+00  0.00000000000E+00  0.13662429892E+04  0.13662429892E+04  0.00000000000E+00 0.  1.
         21   -1    0    0  501  502 -0.00000000000E+00 -0.00000000000E+00 -0.11834181586E+03  0.11834181586E+03  0.00000000000E+00 0.  1.
         25    1    1    2    0    0 -0.22015689347E+03 -0.91744093985E+02  0.26694112912E+03  0.37916830424E+03  0.12500000000E+03 0.  0.
         25    1    1    2    0    0  0.19181924945E+03  0.12193392193E+03  0.24180080471E+03  0.35461970466E+03  0.12500000000E+03 0.  0.
         25    1    1    2    0    0  0.28337644020E+02 -0.30189827941E+02  0.73915923954E+03  0.75079679619E+03  0.12500000000E+03 0.  0.
</event>
<event>
 5    0  0.5728184E-005  0.2869147E+03  0.7546771E-02  0.1091971E+00
         21   -1    0    0  502  501  0.00000000000E+00  0.00000000000E+00  0.46750541649E+03  0.46750541649E+03  0.00000000000E+00 0. -1.
         21   -1    0    0  501  502 -0.00000000000E+00 -0.00000000000E+00 -0.17608360322E+03  0.17608360322E+03  0.00000000000E+00 0. -1.
         25    1    1    2    0    0 -0.69218972775E+01  0.76999757255E+02 -0.34776651784E+02  0.15103407161E+03  0.12500000000E+03 0.  0.
         25    1    1    2    0    0  0.52778332543E+02 -0.15367134974E+03  0.24268427962E+03  0.31768080788E+03  0.12500000000E+03 0.  0.
         25    1    1    2    0    0 -0.45856435265E+02  0.76671592490E+02  0.83514185425E+02  0.17487414022E+03  0.12500000000E+03 0.  0.
</event>
<event>
 5    0  0.5728184E-005  0.2751906E+03  0.7546771E-02  0.1098345E+00
         21   -1    0    0  502  501  0.00000000000E+00  0.00000000000E+00  0.45499902079E+03  0.45499902079E+03  0.00000000000E+00 0. -1.
         21   -1    0    0  501  502 -0.00000000000E+00 -0.00000000000E+00 -0.16643964756E+03  0.16643964756E+03  0.00000000000E+00 0. -1.
         25    1    1    2    0    0 -0.12016212280E+02  0.12504032081E+03  0.17454317958E+03  0.24873639203E+03  0.12500000000E+03 0.  0.
         25    1    1    2    0    0  0.46342793514E+02 -0.15857055166E+03  0.11863439341E+03  0.23872870306E+03  0.12500000000E+03 0.  0.
         25    1    1    2    0    0 -0.34326581235E+02  0.33530230855E+02 -0.46181997601E+01  0.13397357325E+03  0.12500000000E+03 0.  0.
</event>
<event>
 5    0  0.5728184E-005  0.9068259E+03  0.7546771E-02  0.9417089E-01
         21   -1    0    0  502  501  0.00000000000E+00  0.00000000000E+00  0.44013197407E+03  0.44013197407E+03  0.00000000000E+00 0.  1.
         21   -1    0    0  501  502 -0.00000000000E+00 -0.00000000000E+00 -0.18683786761E+04  0.18683786761E+04  0.00000000000E+00 0.  1.
         25    1    1    2    0    0 -0.44262646921E+03 -0.41075089263E+03 -0.23043915743E+01  0.61665614183E+03  0.12500000000E+03 0.  0.
         25    1    1    2    0    0  0.57950420384E+03  0.40033282346E+03 -0.10241269129E+04  0.12492207273E+04  0.12500000000E+03 0.  0.
         25    1    1    2    0    0 -0.13687773463E+03  0.10418069170E+02 -0.40181539754E+03  0.44263378102E+03  0.12500000000E+03 0.  0.
</event>
<event>
 5    0  0.5728184E-005  0.3167819E+03  0.7546771E-02  0.1077140E+00
         21   -1    0    0  502  501  0.00000000000E+00  0.00000000000E+00  0.12016648088E+04  0.12016648088E+04  0.00000000000E+00 0. -1.
         21   -1    0    0  501  502 -0.00000000000E+00 -0.00000000000E+00 -0.83509779222E+02  0.83509779222E+02  0.00000000000E+00 0. -1.
         25    1    1    2    0    0  0.16389840828E+03 -0.53737385503E+02  0.16043348103E+03  0.26667263952E+03  0.12500000000E+03 0.  0.
         25    1    1    2    0    0 -0.49597359149E+02  0.76016996534E+02  0.28222290979E+03  0.32173475505E+03  0.12500000000E+03 0.  0.
         25    1    1    2    0    0 -0.11430104913E+03 -0.22279611032E+02  0.67549863881E+03  0.69676719349E+03  0.12500000000E+03 0.  0.
</event>
<event>
 5    0  0.5728184E-005  0.2552386E+03  0.7546771E-02  0.1110038E+00
         21   -1    0    0  502  501  0.00000000000E+00  0.00000000000E+00  0.19704763257E+03  0.19704763257E+03  0.00000000000E+00 0.  1.
         21   -1    0    0  501  502 -0.00000000000E+00 -0.00000000000E+00 -0.33061424058E+03  0.33061424058E+03  0.00000000000E+00 0.  1.
         25    1    1    2    0    0 -0.52042321162E+02 -0.49962465056E+02 -0.97357091810E+02  0.17409208607E+03  0.12500000000E+03 0.  0.
         25    1    1    2    0    0  0.14236634414E+03  0.52799891681E+02 -0.32047457179E+02  0.19926877331E+03  0.12500000000E+03 0.  0.
         25    1    1    2    0    0 -0.90324022974E+02 -0.28374266252E+01 -0.41620590184E+01  0.15430101377E+03  0.12500000000E+03 0.  0.
</event>
<event>
 5    0  0.5728184E-005  0.3486063E+03  0.7546771E-02  0.1063189E+00
         21   -1    0    0  502  501  0.00000000000E+00  0.00000000000E+00  0.17409608625E+03  0.17409608625E+03  0.00000000000E+00 0.  1.
         21   -1    0    0  501  502 -0.00000000000E+00 -0.00000000000E+00 -0.69804195301E+03  0.69804195301E+03  0.00000000000E+00 0.  1.
         25    1    1    2    0    0 -0.69712737239E+01  0.28482556168E+02 -0.16901903512E+03  0.21225524468E+03  0.12500000000E+03 0.  0.
         25    1    1    2    0    0  0.93202361117E+02 -0.36003899367E+01  0.96190966156E+02  0.18324122051E+03  0.12500000000E+03 0.  0.
         25    1    1    2    0    0 -0.86231087393E+02 -0.24882166231E+02 -0.45111779780E+03  0.47664157406E+03  0.12500000000E+03 0.  0.
</event>
<event>
 5    0  0.5728184E-005  0.3120619E+03  0.7546771E-02  0.1079362E+00
         21   -1    0    0  502  501  0.00000000000E+00  0.00000000000E+00  0.34437028947E+03  0.34437028947E+03  0.00000000000E+00 0. -1.
         21   -1    0    0  501  502 -0.00000000000E+00 -0.00000000000E+00 -0.28278466578E+03  0.28278466578E+03  0.00000000000E+00 0. -1.
         25    1    1    2    0    0  0.94586116276E+02 -0.16866955896E+03  0.31391620198E+02  0.23239274372E+03  0.12500000000E+03 0.  0.
         25    1    1    2    0    0 -0.90485975159E+02 -0.22559692328E+02  0.53979267596E+02  0.16503155077E+03  0.12500000000E+03 0.  0.
         25    1    1    2    0    0 -0.41001411177E+01  0.19122925129E+03 -0.23785264099E+02  0.22973066076E+03  0.12500000000E+03 0.  0.
</event>
<event>
 5    0  0.5728184E-005  0.4657081E+03  0.7546771E-02  0.1023139E+00
         21   -1    0    0  502  501  0.00000000000E+00  0.00000000000E+00  0.39464744671E+03  0.39464744671E+03  0.00000000000E+00 0. -1.
         21   -1    0    0  501  502 -0.00000000000E+00 -0.00000000000E+00 -0.54956402167E+03  0.54956402167E+03  0.00000000000E+00 0. -1.
         25    1    1    2    0    0  0.26652466400E+03  0.22214174264E+03 -0.19838573333E+02  0.36932495087E+03  0.12500000000E+03 0.  0.
         25    1    1    2    0    0  0.74970981931E+01 -0.16964638593E+03 -0.16493924191E+03  0.26770516667E+03  0.12500000000E+03 0.  0.
         25    1    1    2    0    0 -0.27402176219E+03 -0.52495356703E+02  0.29861240285E+02  0.30718135084E+03  0.12500000000E+03 0.  0.
</event>
<event>
 5    0  0.6124803E-005  0.2859119E+03  0.7546771E-02  0.1092503E+00
         21   -1    0    0  502  501  0.00000000000E+00  0.00000000000E+00  0.54305304614E+03  0.54305304614E+03  0.00000000000E+00 0. -1.
         21   -1    0    0  501  502 -0.00000000000E+00 -0.00000000000E+00 -0.15052974305E+03  0.15052974305E+03  0.00000000000E+00 0. -1.
         25    1    1    2    0    0 -0.22299320293E+01  0.13405484593E+03  0.68123873257E+02  0.19555443340E+03  0.12500000000E+03 0.  0.
         25    1    1    2    0    0 -0.71837574051E+02  0.39254458331E+02  0.10256030744E+03  0.18123235419E+03  0.12500000000E+03 0.  0.
         25    1    1    2    0    0  0.74067506080E+02 -0.17330930426E+03  0.22183912240E+03  0.31679600160E+03  0.12500000000E+03 0.  0.
</event>
<event>
 5    0  0.5728184E-005  0.2698976E+03  0.7546771E-02  0.1101338E+00
         21   -1    0    0  502  501  0.00000000000E+00  0.00000000000E+00  0.10014295333E+03  0.10014295333E+03  0.00000000000E+00 0.  1.
         21   -1    0    0  501  502 -0.00000000000E+00 -0.00000000000E+00 -0.72740751540E+03  0.72740751540E+03  0.00000000000E+00 0.  1.
         25    1    1    2    0    0 -0.11581272163E+03  0.71494479731E+02 -0.13107444292E+03  0.22656027170E+03  0.12500000000E+03 0.  0.
         25    1    1    2    0    0  0.26723969558E+02 -0.11152892072E+03 -0.33115460360E+03  0.37207693048E+03  0.12500000000E+03 0.  0.
         25    1    1    2    0    0  0.89088752073E+02  0.40034440993E+02 -0.16503551555E+03  0.22891326655E+03  0.12500000000E+03 0.  0.
</event>
<event>
 5    0  0.5728184E-005  0.3987157E+03  0.7546771E-02  0.1044225E+00
         21   -1    0    0  502  501  0.00000000000E+00  0.00000000000E+00  0.35401899135E+03  0.35401899135E+03  0.00000000000E+00 0.  1.
         21   -1    0    0  501  502 -0.00000000000E+00 -0.00000000000E+00 -0.44905556460E+03  0.44905556460E+03  0.00000000000E+00 0.  1.
         25    1    1    2    0    0  0.15467030906E+03  0.75873551044E+02 -0.86165111408E+02  0.22962823580E+03  0.12500000000E+03 0.  0.
         25    1    1    2    0    0 -0.27795911398E+03  0.66010534662E+02  0.93540553551E+02  0.32556642162E+03  0.12500000000E+03 0.  0.
         25    1    1    2    0    0  0.12328880492E+03 -0.14188408571E+03 -0.10241201539E+03  0.24787989852E+03  0.12500000000E+03 0.  0.
</event>
<event>
 5    0  0.5728184E-005  0.2929294E+03  0.7546771E-02  0.1088830E+00
         21   -1    0    0  502  501  0.00000000000E+00  0.00000000000E+00  0.14844255134E+04  0.14844255134E+04  0.00000000000E+00 0.  1.
         21   -1    0    0  501  502 -0.00000000000E+00 -0.00000000000E+00 -0.57805279644E+02  0.57805279644E+02  0.00000000000E+00 0.  1.
         25    1    1    2    0    0  0.12067345584E+03  0.67155249659E+02  0.21219303790E+03  0.28235225488E+03  0.12500000000E+03 0.  0.
         25    1    1    2    0    0 -0.12976342498E+03 -0.84974583661E+02  0.88069198391E+03  0.90294108160E+03  0.12500000000E+03 0.  0.
         25    1    1    2    0    0  0.90899691325E+01  0.17819334002E+02  0.33373521200E+03  0.35693745661E+03  0.12500000000E+03 0.  0.
</event>
<event>
 5    0  0.5728184E-005  0.4093960E+03  0.7546771E-02  0.1040574E+00
         21   -1    0    0  502  501  0.00000000000E+00  0.00000000000E+00  0.18536033805E+03  0.18536033805E+03  0.00000000000E+00 0. -1.
         21   -1    0    0  501  502 -0.00000000000E+00 -0.00000000000E+00 -0.90421204990E+03  0.90421204990E+03  0.00000000000E+00 0. -1.
         25    1    1    2    0    0  0.16711173978E+03  0.20898502076E+03 -0.33394211004E+03  0.44580646623E+03  0.12500000000E+03 0.  0.
         25    1    1    2    0    0  0.60563221456E+02 -0.20801340346E+02 -0.26765364221E+03  0.30226490326E+03  0.12500000000E+03 0.  0.
         25    1    1    2    0    0 -0.22767496124E+03 -0.18818368041E+03 -0.11725595960E+03  0.34150101846E+03  0.12500000000E+03 0.  0.
</event>
<event>
 5    0  0.5728184E-005  0.5724085E+03  0.7546771E-02  0.9964363E-01
         21   -1    0    0  502  501  0.00000000000E+00  0.00000000000E+00  0.30888501577E+03  0.30888501577E+03  0.00000000000E+00 0.  1.
         21   -1    0    0  501  502 -0.00000000000E+00 -0.00000000000E+00 -0.10607554527E+04  0.10607554527E+04  0.00000000000E+00 0. -1.
         25    1    1    2    0    0  0.83207804456E+02 -0.56211227531E+02 -0.22413643129E+03  0.27558189464E+03  0.12500000000E+03 0.  0.
         25    1    1    2    0    0 -0.28043156401E+03 -0.92746208644E+02 -0.69854409067E+03  0.76865633928E+03  0.12500000000E+03 0.  0.
         25    1    1    2    0    0  0.19722375955E+03  0.14895743617E+03  0.17081008500E+03  0.32540223457E+03  0.12500000000E+03 0.  0.
</event>
<event>
 5    0  0.5728184E-005  0.2543732E+03  0.7546771E-02  0.1110572E+00
         21   -1    0    0  502  501  0.00000000000E+00  0.00000000000E+00  0.63153389763E+03  0.63153389763E+03  0.00000000000E+00 0.  1.
         21   -1    0    0  501  502 -0.00000000000E+00 -0.00000000000E+00 -0.10245802539E+03  0.10245802539E+03  0.00000000000E+00 0.  1.
         25    1    1    2    0    0 -0.13073422412E+02  0.63972806243E+02  0.39239104116E+03  0.41696422328E+03  0.12500000000E+03 0.  0.
         25    1    1    2    0    0  0.65730629932E+02 -0.40948627596E+02  0.86385141976E+02  0.17054236590E+03  0.12500000000E+03 0.  0.
         25    1    1    2    0    0 -0.52657207520E+02 -0.23024178647E+02  0.50299689102E+02  0.14648533384E+03  0.12500000000E+03 0.  0.
</event>
<event>
 5    0  0.5728184E-005  0.2549150E+03  0.7546771E-02  0.1110237E+00
         21   -1    0    0  502  501  0.00000000000E+00  0.00000000000E+00  0.62014237170E+03  0.62014237170E+03  0.00000000000E+00 0.  1.
         21   -1    0    0  501  502 -0.00000000000E+00 -0.00000000000E+00 -0.10478509189E+03  0.10478509189E+03  0.00000000000E+00 0.  1.
         25    1    1    2    0    0  0.53622735445E+02 -0.44784267238E+02  0.15215536103E+03  0.20894325124E+03  0.12500000000E+03 0.  0.
         25    1    1    2    0    0 -0.37987371353E+02 -0.78248555299E+02  0.28537490148E+03  0.32346516224E+03  0.12500000000E+03 0.  0.
         25    1    1    2    0    0 -0.15635364092E+02  0.12303282254E+03  0.77827017293E+02  0.19251905010E+03  0.12500000000E+03 0.  0.
</event>
<event>
 5    0  0.5728184E-005  0.3017706E+03  0.7546771E-02  0.1084359E+00
         21   -1    0    0  502  501  0.00000000000E+00  0.00000000000E+00  0.24083210785E+03  0.24083210785E+03  0.00000000000E+00 0.  1.
         21   -1    0    0  501  502 -0.00000000000E+00 -0.00000000000E+00 -0.37812851312E+03  0.37812851312E+03  0.00000000000E+00 0.  1.
         25    1    1    2    0    0  0.36952558621E+02  0.11949777590E+03 -0.14133121894E+03  0.22637297427E+03  0.12500000000E+03 0.  0.
         25    1    1    2    0    0 -0.86630966600E+02  0.27716581683E+02  0.86099569173E+02  0.17694990558E+03  0.12500000000E+03 0.  0.
         25    1    1    2    0    0  0.49678407980E+02 -0.14721435758E+03 -0.82064755506E+02  0.21563774111E+03  0.12500000000E+03 0.  0.
</event>
<event>
 5    0  0.5728184E-005  0.2475411E+03  0.7546771E-02  0.1114869E+00
         21   -1    0    0  502  501  0.00000000000E+00  0.00000000000E+00  0.92693647372E+03  0.92693647372E+03  0.00000000000E+00 0. -1.
         21   -1    0    0  501  502 -0.00000000000E+00 -0.00000000000E+00 -0.66106556819E+02  0.66106556819E+02  0.00000000000E+00 0. -1.
         25    1    1    2    0    0  0.86367439966E+02  0.97268865148E+02  0.25551008717E+03  0.31277942940E+03  0.12500000000E+03 0.  0.
         25    1    1    2    0    0  0.23586648801E+02 -0.54765972790E+02  0.27809691147E+03  0.31067432135E+03  0.12500000000E+03 0.  0.
         25    1    1    2    0    0 -0.10995408877E+03 -0.42502892358E+02  0.32722291826E+03  0.36958927978E+03  0.12500000000E+03 0.  0.
</event>
<event>
 5    0  0.6370198E-005  0.3155037E+03  0.7546771E-02  0.1077737E+00
         21   -1    0    0  502  501  0.00000000000E+00  0.00000000000E+00  0.54973292398E+03  0.54973292398E+03  0.00000000000E+00 0. -1.
         21   -1    0    0  501  502 -0.00000000000E+00 -0.00000000000E+00 -0.18107440623E+03  0.18107440623E+03  0.00000000000E+00 0. -1.
         25    1    1    2    0    0 -0.11723297273E+03 -0.98255046199E+01  0.30211937771E+00  0.17165430875E+03  0.12500000000E+03 0.  0.
         25    1    1    2    0    0  0.34241741822E+02 -0.13868914524E+03  0.90770011230E+02  0.21040763016E+03  0.12500000000E+03 0.  0.
         25    1    1    2    0    0  0.82991230909E+02  0.14851464986E+03  0.27758638714E+03  0.34874539131E+03  0.12500000000E+03 0.  0.
</event>
<event>
 5    0  0.5728184E-005  0.3675543E+03  0.7546771E-02  0.1055632E+00
         21   -1    0    0  502  501  0.00000000000E+00  0.00000000000E+00  0.19501250701E+04  0.19501250701E+04  0.00000000000E+00 0.  1.
         21   -1    0    0  501  502 -0.00000000000E+00 -0.00000000000E+00 -0.69275650775E+02  0.69275650775E+02  0.00000000000E+00 0.  1.
         25    1    1    2    0    0  0.42016046185E+02  0.58091874532E+02  0.11118206516E+04  0.11211200540E+04  0.12500000000E+03 0.  0.
         25    1    1    2    0    0 -0.49205612900E+02  0.86316285715E+02  0.71345236857E+02  0.17489092699E+03  0.12500000000E+03 0.  0.
         25    1    1    2    0    0  0.71895667152E+01 -0.14440816025E+03  0.69768353085E+03  0.72338973993E+03  0.12500000000E+03 0.  0.
</event>
<event>
 5    0  0.5728184E-005  0.2908822E+03  0.7546771E-02  0.1089889E+00
         21   -1    0    0  502  501  0.00000000000E+00  0.00000000000E+00  0.52793954902E+03  0.52793954902E+03  0.00000000000E+00 0.  1.
         21   -1    0    0  501  502 -0.00000000000E+00 -0.00000000000E+00 -0.16026920787E+03  0.16026920787E+03  0.00000000000E+00 0.  1.
         25    1    1    2    0    0 -0.12157927068E+03  0.10479504409E+03  0.73635222119E+02  0.21635772753E+03  0.12500000000E+03 0.  0.
         25    1    1    2    0    0  0.58676359105E+02 -0.66073971642E+02  0.28844643891E+03  0.32655019976E+03  0.12500000000E+03 0.  0.
         25    1    1    2    0    0  0.62902911577E+02 -0.38721072446E+02  0.55886801322E+01  0.14530082960E+03  0.12500000000E+03 0.  0.
</event>
<event>
 5    0  0.5728184E-005  0.3647869E+03  0.7546771E-02  0.1056704E+00
         21   -1    0    0  502  501  0.00000000000E+00  0.00000000000E+00  0.41958995403E+03  0.41958995403E+03  0.00000000000E+00 0. -1.
         21   -1    0    0  501  502 -0.00000000000E+00 -0.00000000000E+00 -0.31714178724E+03  0.31714178724E+03  0.00000000000E+00 0.  1.
         25    1    1    2    0    0  0.88998248032E+02  0.25258572623E+03  0.33397297025E+02  0.29742329548E+03  0.12500000000E+03 0.  0.
         25    1    1    2    0    0 -0.79006094697E+02 -0.89391383274E+02  0.13918396891E+03  0.22187825401E+03  0.12500000000E+03 0.  0.
         25    1    1    2    0    0 -0.99921533354E+01 -0.16319434296E+03 -0.70133099144E+02  0.21743019178E+03  0.12500000000E+03 0.  0.
</event>
<event>
 5    0  0.5728184E-005  0.2694779E+03  0.7546771E-02  0.1101579E+00
         21   -1    0    0  502  501  0.00000000000E+00  0.00000000000E+00  0.24784630389E+03  0.24784630389E+03  0.00000000000E+00 0. -1.
         21   -1    0    0  501  502 -0.00000000000E+00 -0.00000000000E+00 -0.29299754059E+03  0.29299754059E+03  0.00000000000E+00 0. -1.
         25    1    1    2    0    0  0.59077456651E+02 -0.10485838719E+02 -0.58766478085E+02  0.15059414877E+03  0.12500000000E+03 0.  0.
         25    1    1    2    0    0 -0.50469893730E+01  0.38741874202E+02 -0.13404669428E+03  0.18740309807E+03  0.12500000000E+03 0.  0.
         25    1    1    2    0    0 -0.54030467278E+02 -0.28256035483E+02  0.14766193566E+03  0.20284659765E+03  0.12500000000E+03 0.  0.
</event>
<event>
 5    0  0.5728184E-005  0.3465730E+03  0.7546771E-02  0.1064030E+00
         21   -1    0    0  502  501  0.00000000000E+00  0.00000000000E+00  0.20130033938E+03  0.20130033938E+03  0.00000000000E+00 0.  1.
         21   -1    0    0  501  502 -0.00000000000E+00 -0.00000000000E+00 -0.59668480332E+03  0.59668480332E+03  0.00000000000E+00 0.  1.
         25    1    1    2    0    0 -0.15142011523E+03  0.37188481951E+02  0.92825842740E+02  0.22034670764E+03  0.12500000000E+03 0.  0.
         25    1    1    2    0    0  0.26236858842E+02 -0.32143311883E+02 -0.20319132769E+03  0.24214310007E+03  0.12500000000E+03 0.  0.
         25    1    1    2    0    0  0.12518325639E+03 -0.50451700679E+01 -0.28501897899E+03  0.33549533500E+03  0.12500000000E+03 0.  0.
</event>
<event>
 5    0  0.6309732E-005  0.2642466E+03  0.7546771E-02  0.1104618E+00
         21   -1    0    0  502  501  0.00000000000E+00  0.00000000000E+00  0.30634012577E+03  0.30634012577E+03  0.00000000000E+00 0. -1.
         21   -1    0    0  501  502 -0.00000000000E+00 -0.00000000000E+00 -0.22793704199E+03  0.22793704199E+03  0.00000000000E+00 0. -1.
         25    1    1    2    0    0 -0.80568920870E+02 -0.51674524394E+02  0.30491963903E+02  0.16036323564E+03  0.12500000000E+03 0.  0.
         25    1    1    2    0    0 -0.15860732712E+01 -0.88960663941E+02 -0.26166331552E+02  0.15564765422E+03  0.12500000000E+03 0.  0.
         25    1    1    2    0    0  0.82154994141E+02  0.14063518834E+03  0.74077451433E+02  0.21826627791E+03  0.12500000000E+03 0.  0.
</event>
<event>
 5    0  0.5728184E-005  0.3575653E+03  0.7546771E-02  0.1059552E+00
         21   -1    0    0  502  501  0.00000000000E+00  0.00000000000E+00  0.17243304954E+03  0.17243304954E+03  0.00000000000E+00 0. -1.
         21   -1    0    0  501  502 -0.00000000000E+00 -0.00000000000E+00 -0.74146444690E+03  0.74146444690E+03  0.00000000000E+00 0. -1.
         25    1    1    2    0    0  0.18442241878E+03 -0.42799457898E+02 -0.11647680665E+03  0.25502013378E+03  0.12500000000E+03 0.  0.
         25    1    1    2    0    0 -0.20102313274E+03  0.16663058886E+03 -0.20504260396E+03  0.35474430578E+03  0.12500000000E+03 0.  0.
         25    1    1    2    0    0  0.16600713965E+02 -0.12383113097E+03 -0.24751198675E+03  0.30413305688E+03  0.12500000000E+03 0.  0.
</event>
<event>
 5    0  0.5728184E-005  0.3936187E+03  0.7546771E-02  0.1046012E+00
         21   -1    0    0  502  501  0.00000000000E+00  0.00000000000E+00  0.13288516474E+03  0.13288516474E+03  0.00000000000E+00 0.  1.
         21   -1    0    0  501  502 -0.00000000000E+00 -0.00000000000E+00 -0.11659365682E+04  0.11659365682E+04  0.00000000000E+00 0. -1.
         25    1    1    2    0    0 -0.14502166214E+02  0.20257077939E+02 -0.52815576085E+03  0.54331774290E+03  0.12500000000E+03 0.  0.
         25    1    1    2    0    0 -0.22809149533E+03  0.68404130682E+02 -0.30007445926E+03  0.40295723896E+03  0.12500000000E+03 0.  0.
         25    1    1    2    0    0  0.24259366154E+03 -0.88661208621E+02 -0.20482118333E+03  0.35254675105E+03  0.12500000000E+03 0.  0.
</event>
<event>
 5    0  0.5728184E-005  0.2974140E+03  0.7546771E-02  0.1086541E+00
         21   -1    0    0  502  501  0.00000000000E+00  0.00000000000E+00  0.11385753426E+04  0.11385753426E+04  0.00000000000E+00 0. -1.
         21   -1    0    0  501  502 -0.00000000000E+00 -0.00000000000E+00 -0.77689273983E+02  0.77689273983E+02  0.00000000000E+00 0. -1.
         25    1    1    2    0    0  0.12047023422E+03  0.15542225265E+03  0.27404136323E+03  0.35971213868E+03  0.12500000000E+03 0.  0.
         25    1    1    2    0    0 -0.60805617640E+02 -0.14226226429E+02  0.35757855128E+03  0.38391031373E+03  0.12500000000E+03 0.  0.
         25    1    1    2    0    0 -0.59664616581E+02 -0.14119602622E+03  0.42926615412E+03  0.47264216419E+03  0.12500000000E+03 0.  0.
</event>
<event>
 5    0  0.5728184E-005  0.2869974E+03  0.7546771E-02  0.1091927E+00
         21   -1    0    0  502  501  0.00000000000E+00  0.00000000000E+00  0.56789758232E+03  0.56789758232E+03  0.00000000000E+00 0. -1.
         21   -1    0    0  501  502 -0.00000000000E+00 -0.00000000000E+00 -0.14503936118E+03  0.14503936118E+03  0.00000000000E+00 0. -1.
         25    1    1    2    0    0  0.16458662116E+03  0.68094327218E+02  0.59782232732E+02  0.22566459318E+03  0.12500000000E+03 0.  0.
         25    1    1    2    0    0 -0.45301866077E+02 -0.60213935559E+02  0.12006576356E+03  0.18899408638E+03  0.12500000000E+03 0.  0.
         25    1    1    2    0    0 -0.11928475508E+03 -0.78803916597E+01  0.24301022484E+03  0.29827826395E+03  0.12500000000E+03 0.  0.
</event>
<event>
 5    0  0.5728184E-005  0.2869110E+03  0.7546771E-02  0.1091973E+00
         21   -1    0    0  502  501  0.00000000000E+00  0.00000000000E+00  0.44625387519E+03  0.44625387519E+03  0.00000000000E+00 0. -1.
         21   -1    0    0  501  502 -0.00000000000E+00 -0.00000000000E+00 -0.18446435861E+03  0.18446435861E+03  0.00000000000E+00 0. -1.
         25    1    1    2    0    0  0.10140755941E+03 -0.67207556394E+02  0.27655501016E+03  0.32696792256E+03  0.12500000000E+03 0.  0.
         25    1    1    2    0    0 -0.55488478048E+02  0.72897008902E+02  0.39349838525E+02  0.15989482448E+03  0.12500000000E+03 0.  0.
         25    1    1    2    0    0 -0.45919081359E+02 -0.56894525085E+01 -0.54115332100E+02  0.14385548676E+03  0.12500000000E+03 0.  0.
</event>
<event>
 5    0  0.5728184E-005  0.3728393E+03  0.7546771E-02  0.1053613E+00
         21   -1    0    0  502  501  0.00000000000E+00  0.00000000000E+00  0.39142313199E+03  0.39142313199E+03  0.00000000000E+00 0.  1.
         21   -1    0    0  501  502 -0.00000000000E+00 -0.00000000000E+00 -0.35513774205E+03  0.35513774205E+03  0.00000000000E+00 0.  1.
         25    1    1    2    0    0  0.59490967758E+02  0.11636959659E+03 -0.48952849970E+02  0.18735645112E+03  0.12500000000E+03 0.  0.
         25    1    1    2    0    0 -0.22581719197E+03 -0.16841442321E+03  0.13901558370E+03  0.33809341112E+03  0.12500000000E+03 0.  0.
         25    1    1    2    0    0  0.16632622421E+03  0.52044826615E+02 -0.53777343785E+02  0.22111101180E+03  0.12500000000E+03 0.  0.
</event>
<event>
 5    0  0.5728184E-005  0.3318695E+03  0.7546771E-02  0.1070313E+00
         21   -1    0    0  502  501  0.00000000000E+00  0.00000000000E+00  0.21081598285E+03  0.21081598285E+03  0.00000000000E+00 0.  1.
         21   -1    0    0  501  502 -0.00000000000E+00 -0.00000000000E+00 -0.52243350351E+03  0.52243350351E+03  0.00000000000E+00 0.  1.
         25    1    1    2    0    0 -0.82888040041E+02  0.17050723311E+02 -0.12509241527E+03  0.19604659320E+03  0.12500000000E+03 0.  0.
         25    1    1    2    0    0  0.84192050096E+02 -0.17968075606E+03 -0.22894375258E+03  0.32774031983E+03  0.12500000000E+03 0.  0.
         25    1    1    2    0    0 -0.13040100557E+01  0.16263003275E+03  0.42418647202E+02  0.20946257333E+03  0.12500000000E+03 0.  0.
</event>
<event>
 5    0  0.5728184E-005  0.5005218E+03  0.7546771E-02  0.1013643E+00
         21   -1    0    0  502  501  0.00000000000E+00  0.00000000000E+00  0.65866923550E+03  0.65866923550E+03  0.00000000000E+00 0. -1.
         21   -1    0    0  501  502 -0.00000000000E+00 -0.00000000000E+00 -0.38034572349E+03  0.38034572349E+03  0.00000000000E+00 0. -1.
         25    1    1    2    0    0 -0.25054470428E+03  0.28094655420E+03  0.18928970627E+03  0.43949881463E+03  0.12500000000E+03 0.  0.
         25    1    1    2    0    0  0.96841427058E+02  0.46608673018E+02 -0.77371194691E+02  0.18210417942E+03  0.12500000000E+03 0.  0.
         25    1    1    2    0    0  0.15370327722E+03 -0.32755522722E+03  0.16640500043E+03  0.41741196494E+03  0.12500000000E+03 0.  0.
</event>
<event>
 5    0  0.5728184E-005  0.2181304E+03  0.7546771E-02  0.1135285E+00
         21   -1    0    0  502  501  0.00000000000E+00  0.00000000000E+00  0.18534906854E+03  0.18534906854E+03  0.00000000000E+00 0.  1.
         21   -1    0    0  501  502 -0.00000000000E+00 -0.00000000000E+00 -0.25670955386E+03  0.25670955386E+03  0.00000000000E+00 0.  1.
         25    1    1    2    0    0  0.40956141512E+02  0.33832545631E+02  0.54281828982E+02  0.14626538767E+03  0.12500000000E+03 0.  0.
         25    1    1    2    0    0 -0.42694822955E+02 -0.39732600615E+02 -0.38226468934E+02  0.14313556646E+03  0.12500000000E+03 0.  0.
         25    1    1    2    0    0  0.17386814430E+01  0.59000549844E+01 -0.87415845361E+02  0.15265766827E+03  0.12500000000E+03 0.  0.
</event>
<event>
 5    0  0.5728184E-005  0.4895811E+03  0.7546771E-02  0.1016535E+00
         21   -1    0    0  502  501  0.00000000000E+00  0.00000000000E+00  0.15282561380E+04  0.15282561380E+04  0.00000000000E+00 0.  1.
         21   -1    0    0  501  502 -0.00000000000E+00 -0.00000000000E+00 -0.15683865233E+03  0.15683865233E+03  0.00000000000E+00 0.  1.
         25    1    1    2    0    0  0.32024584878E+02  0.19334577471E+02  0.14895706471E+02  0.13132510040E+03  0.12500000000E+03 0.  0.
         25    1    1    2    0    0 -0.26813268812E+03 -0.23389524121E+03  0.46526041731E+03  0.59891099357E+03  0.12500000000E+03 0.  0.
         25    1    1    2    0    0  0.23610810324E+03  0.21456066374E+03  0.89126136184E+03  0.95485869632E+03  0.12500000000E+03 0.  0.
</event>
<event>
 5    0  0.5728184E-005  0.2354166E+03  0.7546771E-02  0.1122884E+00
         21   -1    0    0  502  501  0.00000000000E+00  0.00000000000E+00  0.46013368860E+03  0.46013368860E+03  0.00000000000E+00 0.  1.
         21   -1    0    0  501  502 -0.00000000000E+00 -0.00000000000E+00 -0.12044533979E+03  0.12044533979E+03  0.00000000000E+00 0.  1.
         25    1    1    2    0    0  0.60871293439E+02 -0.48905490524E+02  0.10870057561E+03  0.18313349368E+03  0.12500000000E+03 0.  0.
         25    1    1    2    0    0 -0.99477714888E+02  0.29284235171E+02  0.20681574479E+03  0.26296603294E+03  0.12500000000E+03 0.  0.
         25    1    1    2    0    0  0.38606421449E+02  0.19621255354E+02  0.24172028417E+02  0.13447950177E+03  0.12500000000E+03 0.  0.
</event>
<event>
 5    0  0.5728184E-005  0.3125002E+03  0.7546771E-02  0.1079154E+00
         21   -1    0    0  502  501  0.00000000000E+00  0.00000000000E+00  0.13688105461E+04  0.13688105461E+04  0.00000000000E+00 0.  1.
         21   -1    0    0  501  502 -0.00000000000E+00 -0.00000000000E+00 -0.71343970544E+02  0.71343970544E+02  0.00000000000E+00 0.  1.
         25    1    1    2    0    0  0.93848212329E+02  0.11711333023E+03  0.30060300436E+03  0.35848317297E+03  0.12500000000E+03 0.  0.
         25    1    1    2    0    0 -0.13232540657E+03 -0.19166672923E+03  0.71182712732E+03  0.75932141252E+03  0.12500000000E+03 0.  0.
         25    1    1    2    0    0  0.38477194240E+02  0.74553399003E+02  0.28503644390E+03  0.32234993118E+03  0.12500000000E+03 0.  0.
</event>
<event>
 5    0  0.5728184E-005  0.3806661E+03  0.7546771E-02  0.1050688E+00
         21   -1    0    0  502  501  0.00000000000E+00  0.00000000000E+00  0.27763347371E+03  0.27763347371E+03  0.00000000000E+00 0. -1.
         21   -1    0    0  501  502 -0.00000000000E+00 -0.00000000000E+00 -0.52193512456E+03  0.52193512456E+03  0.00000000000E+00 0. -1.
         25    1    1    2    0    0 -0.24439820427E+03  0.18000487326E+03 -0.77648762032E+02  0.33732264509E+03  0.12500000000E+03 0.  0.
         25    1    1    2    0    0  0.15782823654E+02 -0.43377920979E+02 -0.80527489272E+02  0.15569334629E+03  0.12500000000E+03 0.  0.
         25    1    1    2    0    0  0.22861538061E+03 -0.13662695228E+03 -0.86125399547E+02  0.30655260689E+03  0.12500000000E+03 0.  0.
</event>
<event>
 5    0  0.5728184E-005  0.2284142E+03  0.7546771E-02  0.1127761E+00
         21   -1    0    0  502  501  0.00000000000E+00  0.00000000000E+00  0.13008855373E+03  0.13008855373E+03  0.00000000000E+00 0.  1.
         21   -1    0    0  501  502 -0.00000000000E+00 -0.00000000000E+00 -0.40105784424E+03  0.40105784424E+03  0.00000000000E+00 0.  1.
         25    1    1    2    0    0 -0.73809666484E+02 -0.92161395310E+01 -0.39421814187E+02  0.15070462345E+03  0.12500000000E+03 0.  0.
         25    1    1    2    0    0  0.43226254225E+02  0.28403412719E+02 -0.26886330284E+02  0.13792439112E+03  0.12500000000E+03 0.  0.
         25    1    1    2    0    0  0.30583412259E+02 -0.19187273188E+02 -0.20466114604E+03  0.24251738341E+03  0.12500000000E+03 0.  0.
</event>
<event>
 5    0  0.5728184E-005  0.3811006E+03  0.7546771E-02  0.1050528E+00
         21   -1    0    0  502  501  0.00000000000E+00  0.00000000000E+00  0.63659786647E+03  0.63659786647E+03  0.00000000000E+00 0.  1.
         21   -1    0    0  501  502 -0.00000000000E+00 -0.00000000000E+00 -0.22814666427E+03  0.22814666427E+03  0.00000000000E+00 0.  1.
         25    1    1    2    0    0 -0.46915536772E+02 -0.12978238151E+03  0.17568328450E+02  0.18702454466E+03  0.12500000000E+03 0.  0.
         25    1    1    2    0    0 -0.67965124522E+02  0.28184969113E+03  0.16260186350E+03  0.35513782192E+03  0.12500000000E+03 0.  0.
         25    1    1    2    0    0  0.11488066129E+03 -0.15206730962E+03  0.22828101025E+03  0.32258216416E+03  0.12500000000E+03 0.  0.
</event>
<event>
 5    0  0.5728184E-005  0.3665519E+03  0.7546771E-02  0.1056019E+00
         21   -1    0    0  502  501  0.00000000000E+00  0.00000000000E+00  0.29081825661E+03  0.29081825661E+03  0.00000000000E+00 0. -1.
         21   -1    0    0  501  502 -0.00000000000E+00 -0.00000000000E+00 -0.46200778806E+03  0.46200778806E+03  0.00000000000E+00 0. -1.
         25    1    1    2    0    0 -0.19835061927E+03 -0.15196583166E+03 -0.84174431915E+02  0.29179944679E+03  0.12500000000E+03 0.  0.
         25    1    1    2    0    0 -0.14515784989E+02  0.15855139979E+03 -0.11294242873E+02  0.20273582394E+03  0.12500000000E+03 0.  0.
         25    1    1    2    0    0  0.21286640426E+03 -0.65855681216E+01 -0.75720856664E+02  0.25829077394E+03  0.12500000000E+03 0.  0.
</event>
<event>
 5    0  0.5728184E-005  0.4178215E+03  0.7546771E-02  0.1037778E+00
         21   -1    0    0  502  501  0.00000000000E+00  0.00000000000E+00  0.15782196329E+04  0.15782196329E+04  0.00000000000E+00 0. -1.
         21   -1    0    0  501  502 -0.00000000000E+00 -0.00000000000E+00 -0.11061500454E+03  0.11061500454E+03  0.00000000000E+00 0. -1.
         25    1    1    2    0    0 -0.27928048292E+02 -0.24251327168E+03  0.36228933985E+03  0.45439105249E+03  0.12500000000E+03 0.  0.
         25    1    1    2    0    0 -0.19018815712E+03  0.51607859201E+02  0.44077297025E+03  0.49873912774E+03  0.12500000000E+03 0.  0.
         25    1    1    2    0    0  0.21811620541E+03  0.19090541248E+03  0.66454231824E+03  0.73570445718E+03  0.12500000000E+03 0.  0.
</event>
<event>
 5    0  0.5869366E-005  0.4909892E+03  0.7546771E-02  0.1016158E+00
         21   -1    0    0  502  501  0.00000000000E+00  0.00000000000E+00  0.64672438238E+03  0.64672438238E+03  0.00000000000E+00 0. -1.
         21   -1    0    0  501  502 -0.00000000000E+00 -0.00000000000E+00 -0.37275599280E+03  0.37275599280E+03  0.00000000000E+00 0. -1.
         25    1    1    2    0    0 -0.13899622851E+03  0.19203561280E+03  0.47824228330E+02  0.27223112412E+03  0.12500000000E+03 0.  0.
         25    1    1    2    0    0  0.16451852597E+03 -0.88946604553E+01  0.40926147810E+03  0.45854707264E+03  0.12500000000E+03 0.  0.
         25    1    1    2    0    0 -0.25522297460E+02 -0.18314095235E+03 -0.18311731685E+03  0.28870217842E+03  0.12500000000E+03 0.  0.
</event>
<event>
 5    0  0.5728184E-005  0.3491388E+03  0.7546771E-02  0.1062969E+00
         21   -1    0    0  502  501  0.00000000000E+00  0.00000000000E+00  0.12565175653E+03  0.12565175653E+03  0.00000000000E+00 0. -1.
         21   -1    0    0  501  502 -0.00000000000E+00 -0.00000000000E+00 -0.97012468402E+03  0.97012468402E+03  0.00000000000E+00 0. -1.
         25    1    1    2    0    0  0.51130233768E+02  0.21017102246E+02 -0.66153094179E+03  0.67550292844E+03  0.12500000000E+03 0.  0.
         25    1    1    2    0    0  0.93367546335E+02  0.17216069784E+02 -0.60159041442E+01  0.15708304450E+03  0.12500000000E+03 0.  0.
         25    1    1    2    0    0 -0.14449778010E+03 -0.38233172030E+02 -0.17692608156E+03  0.26319046760E+03  0.12500000000E+03 0.  0.
</event>
<event>
 5    0  0.5728184E-005  0.3153410E+03  0.7546771E-02  0.1077814E+00
         21   -1    0    0  502  501  0.00000000000E+00  0.00000000000E+00  0.16544026835E+03  0.16544026835E+03  0.00000000000E+00 0. -1.
         21   -1    0    0  501  502 -0.00000000000E+00 -0.00000000000E+00 -0.60106236460E+03  0.60106236460E+03  0.00000000000E+00 0. -1.
         25    1    1    2    0    0  0.55139624622E+02  0.30036646555E+02 -0.28364330677E+03  0.31626113232E+03  0.12500000000E+03 0.  0.
         25    1    1    2    0    0  0.14747956273E+02  0.13306018044E+03  0.35972917412E+01  0.18319512641E+03  0.12500000000E+03 0.  0.
         25    1    1    2    0    0 -0.69887580894E+02 -0.16309682699E+03 -0.15557608121E+03  0.26704637422E+03  0.12500000000E+03 0.  0.
</event>
<event>
 5    0  0.5728184E-005  0.3060852E+03  0.7546771E-02  0.1082238E+00
         21   -1    0    0  502  501  0.00000000000E+00  0.00000000000E+00  0.18753091861E+03  0.18753091861E+03  0.00000000000E+00 0.  1.
         21   -1    0    0  501  502 -0.00000000000E+00 -0.00000000000E+00 -0.49958760996E+03  0.49958760996E+03  0.00000000000E+00 0.  1.
         25    1    1    2    0    0  0.75717308337E+02  0.54887474634E+02 -0.93325718909E+02  0.18188027783E+03  0.12500000000E+03 0.  0.
         25    1    1    2    0    0 -0.87611810948E+02 -0.17595964467E+03 -0.23395480746E+03  0.33014766076E+03  0.12500000000E+03 0.  0.
         25    1    1    2    0    0  0.11894502611E+02  0.12107217003E+03  0.15223835015E+02  0.17509058999E+03  0.12500000000E+03 0.  0.
</event>
<event>
 5    0  0.5728184E-005  0.2987970E+03  0.7546771E-02  0.1085844E+00
         21   -1    0    0  502  501  0.00000000000E+00  0.00000000000E+00  0.44571362413E+03  0.44571362413E+03  0.00000000000E+00 0. -1.
         21   -1    0    0  501  502 -0.00000000000E+00 -0.00000000000E+00 -0.20030725412E+03  0.20030725412E+03  0.00000000000E+00 0. -1.
         25    1    1    2    0    0 -0.44836930365E+02  0.13383614615E+03  0.20751139999E+03  0.28037197696E+03  0.12500000000E+03 0.  0.
         25    1    1    2    0    0 -0.12249050571E+02  0.39103044777E+02 -0.29294775480E+02  0.13476747093E+03  0.12500000000E+03 0.  0.
         25    1    1    2    0    0  0.57085980936E+02 -0.17293919093E+03  0.67189745503E+02  0.23088143035E+03  0.12500000000E+03 0.  0.
</event>
<event>
 5    0  0.5728184E-005  0.5367582E+03  0.7546771E-02  0.1004606E+00
         21   -1    0    0  502  501  0.00000000000E+00  0.00000000000E+00  0.59736971743E+03  0.59736971743E+03  0.00000000000E+00 0.  1.
         21   -1    0    0  501  502 -0.00000000000E+00 -0.00000000000E+00 -0.48229663318E+03  0.48229663318E+03  0.00000000000E+00 0.  1.
         25    1    1    2    0    0 -0.36798155892E+03  0.28133970345E+03  0.52912875359E+02  0.48268750639E+03  0.12500000000E+03 0.  0.
         25    1    1    2    0    0  0.20404531170E+03 -0.40621119701E+02 -0.71485797279E+02  0.25302131097E+03  0.12500000000E+03 0.  0.
         25    1    1    2    0    0  0.16393624723E+03 -0.24071858375E+03  0.13364600618E+03  0.34395753325E+03  0.12500000000E+03 0.  0.
</event>
<event>
 5    0  0.5728184E-005  0.6633034E+03  0.7546771E-02  0.9782132E-01
         21   -1    0    0  502  501  0.00000000000E+00  0.00000000000E+00  0.30222623480E+03  0.30222623480E+03  0.00000000000E+00 0.  1.
         21   -1    0    0  501  502 -0.00000000000E+00 -0.00000000000E+00 -0.14557685383E+04  0.14557685383E+04  0.00000000000E+00 0.  1.
         25    1    1    2    0    0 -0.27713966243E+03  0.37840574901E+03 -0.16212662544E+03  0.51176884045E+03  0.12500000000E+03 0.  0.
         25    1    1    2    0    0 -0.49948808625E+02 -0.38189207583E+03 -0.53146169742E+03  0.66814143479E+03  0.12500000000E+03 0.  0.
         25    1    1    2    0    0  0.32708847106E+03  0.34863268160E+01 -0.45995398068E+03  0.57808449791E+03  0.12500000000E+03 0.  0.
</event>
<event>
 5    0  0.8135888E-005  0.6528315E+03  0.7546771E-02  0.9801481E-01
         21   -1    0    0  502  501  0.00000000000E+00  0.00000000000E+00  0.31206232679E+03  0.31206232679E+03  0.00000000000E+00 0.  1.
         21   -1    0    0  501  502 -0.00000000000E+00 -0.00000000000E+00 -0.13657173741E+04  0.13657173741E+04  0.00000000000E+00 0.  1.
         25    1    1    2    0    0 -0.15046649397E+03 -0.74695769731E+02  0.14989891760E+03  0.25751564869E+03  0.12500000000E+03 0.  0.
         25    1    1    2    0    0  0.26226448415E+03 -0.25310626807E+03 -0.64211350620E+03  0.74885258725E+03  0.12500000000E+03 0.  0.
         25    1    1    2    0    0 -0.11179799018E+03  0.32780203780E+03 -0.56144045870E+03  0.67141146495E+03  0.12500000000E+03 0.  0.
</event>
<event>
 5    0  0.5728184E-005  0.2714359E+03  0.7546771E-02  0.1100461E+00
         21   -1    0    0  502  501  0.00000000000E+00  0.00000000000E+00  0.31054052989E+03  0.31054052989E+03  0.00000000000E+00 0. -1.
         21   -1    0    0  501  502 -0.00000000000E+00 -0.00000000000E+00 -0.23725552430E+03  0.23725552430E+03  0.00000000000E+00 0. -1.
         25    1    1    2    0    0  0.16715480636E+03  0.26025328266E+02  0.17403204884E+02  0.21105904042E+03  0.12500000000E+03 0.  0.
         25    1    1    2    0    0 -0.11718887059E+03  0.25847597891E+02 -0.18782037073E+02  0.17429599715E+03  0.12500000000E+03 0.  0.
         25    1    1    2    0    0 -0.49965935774E+02 -0.51872926157E+02  0.74663837784E+02  0.16244101661E+03  0.12500000000E+03 0.  0.
</event>
<event>
 5    0  0.5728184E-005  0.3145876E+03  0.7546771E-02  0.1078168E+00
         21   -1    0    0  502  501  0.00000000000E+00  0.00000000000E+00  0.20812755192E+03  0.20812755192E+03  0.00000000000E+00 0.  1.
         21   -1    0    0  501  502 -0.00000000000E+00 -0.00000000000E+00 -0.47550330363E+03  0.47550330363E+03  0.00000000000E+00 0.  1.
         25    1    1    2    0    0  0.62322596868E+02  0.18362108505E+03 -0.14266313471E+03  0.27125371695E+03  0.12500000000E+03 0.  0.
         25    1    1    2    0    0  0.87051310349E+02 -0.79244433058E+02 -0.45527709586E+02  0.17763834931E+03  0.12500000000E+03 0.  0.
         25    1    1    2    0    0 -0.14937390722E+03 -0.10437665199E+03 -0.79184907412E+02  0.23473878929E+03  0.12500000000E+03 0.  0.
</event>
<event>
 5    0  0.5728184E-005  0.4343310E+03  0.7546771E-02  0.1032501E+00
         21   -1    0    0  502  501  0.00000000000E+00  0.00000000000E+00  0.85863689083E+02  0.85863689083E+02  0.00000000000E+00 0. -1.
         21   -1    0    0  501  502 -0.00000000000E+00 -0.00000000000E+00 -0.21970102641E+04  0.21970102641E+04  0.00000000000E+00 0. -1.
         25    1    1    2    0    0  0.15953595136E+03 -0.55495895771E+02 -0.19158285710E+03  0.28435981671E+03  0.12500000000E+03 0.  0.
         25    1    1    2    0    0 -0.24905832857E+02  0.25457309584E+03 -0.10295490621E+04  0.10681872649E+04  0.12500000000E+03 0.  0.
         25    1    1    2    0    0 -0.13463011850E+03 -0.19907720007E+03 -0.89001465588E+03  0.93032687163E+03  0.12500000000E+03 0.  0.
</event>
<event>
 5    0  0.5728184E-005  0.2367080E+03  0.7546771E-02  0.1122005E+00
         21   -1    0    0  502  501  0.00000000000E+00  0.00000000000E+00  0.22124671828E+02  0.22124671828E+02  0.00000000000E+00 0.  1.
         21   -1    0    0  501  502 -0.00000000000E+00 -0.00000000000E+00 -0.25324982033E+04  0.25324982033E+04  0.00000000000E+00 0.  1.
         25    1    1    2    0    0 -0.87651758488E+02  0.19304309485E+02 -0.68346446820E+03  0.70057416911E+03  0.12500000000E+03 0.  0.
         25    1    1    2    0    0  0.14088610515E+02 -0.12393046983E+02 -0.13400314033E+04  0.13459796575E+04  0.12500000000E+03 0.  0.
         25    1    1    2    0    0  0.73563147973E+02 -0.69112625019E+01 -0.48687766000E+03  0.50806904855E+03  0.12500000000E+03 0.  0.
</event>
<event>
 5    0  0.5728184E-005  0.3075498E+03  0.7546771E-02  0.1081526E+00
         21   -1    0    0  502  501  0.00000000000E+00  0.00000000000E+00  0.71386986281E+03  0.71386986281E+03  0.00000000000E+00 0. -1.
         21   -1    0    0  501  502 -0.00000000000E+00 -0.00000000000E+00 -0.13249873876E+03  0.13249873876E+03  0.00000000000E+00 0. -1.
         25    1    1    2    0    0 -0.21552720720E+02 -0.90885423178E+02  0.28858160368E+03  0.32806862377E+03  0.12500000000E+03 0.  0.
         25    1    1    2    0    0  0.46546684884E+02  0.83280196755E+02  0.34592258966E+03  0.37998634592E+03  0.12500000000E+03 0.  0.
         25    1    1    2    0    0 -0.24993964164E+02  0.76052264236E+01 -0.53133069296E+02  0.13831363189E+03  0.12500000000E+03 0.  0.
</event>
<event>
 5    0  0.5728184E-005  0.3050335E+03  0.7546771E-02  0.1082751E+00
         21   -1    0    0  502  501  0.00000000000E+00  0.00000000000E+00  0.12662042469E+03  0.12662042469E+03  0.00000000000E+00 0. -1.
         21   -1    0    0  501  502 -0.00000000000E+00 -0.00000000000E+00 -0.73483748368E+03  0.73483748368E+03  0.00000000000E+00 0. -1.
         25    1    1    2    0    0 -0.67868214143E+02 -0.23813951321E+02 -0.38249606821E+02  0.14920198119E+03  0.12500000000E+03 0.  0.
         25    1    1    2    0    0  0.19994195887E+03 -0.16763673710E+02 -0.26729239382E+03  0.35683053606E+03  0.12500000000E+03 0.  0.
         25    1    1    2    0    0 -0.13207374473E+03  0.40577625031E+02 -0.30267505835E+03  0.35542539112E+03  0.12500000000E+03 0.  0.
</event>
<event>
 5    0  0.5728184E-005  0.2590824E+03  0.7546771E-02  0.1107696E+00
         21   -1    0    0  502  501  0.00000000000E+00  0.00000000000E+00  0.53800273245E+03  0.53800273245E+03  0.00000000000E+00 0.  1.
         21   -1    0    0  501  502 -0.00000000000E+00 -0.00000000000E+00 -0.12476456227E+03  0.12476456227E+03  0.00000000000E+00 0.  1.
         25    1    1    2    0    0 -0.11526103108E+03  0.37390212692E+02  0.26274583556E+03  0.31518805084E+03  0.12500000000E+03 0.  0.
         25    1    1    2    0    0  0.16801476393E+02 -0.76453097331E+02  0.90815685447E+02  0.17320466051E+03  0.12500000000E+03 0.  0.
         25    1    1    2    0    0  0.98459554682E+02  0.39062884639E+02  0.59676649175E+02  0.17437458336E+03  0.12500000000E+03 0.  0.
</event>
<event>
 5    0  0.5728184E-005  0.3255815E+03  0.7546771E-02  0.1073109E+00
         21   -1    0    0  502  501  0.00000000000E+00  0.00000000000E+00  0.42631621942E+03  0.42631621942E+03  0.00000000000E+00 0.  1.
         21   -1    0    0  501  502 -0.00000000000E+00 -0.00000000000E+00 -0.24864947555E+03  0.24864947555E+03  0.00000000000E+00 0.  1.
         25    1    1    2    0    0 -0.19729328169E+03 -0.10299875184E+02  0.44193555794E+02  0.23792603220E+03  0.12500000000E+03 0.  0.
         25    1    1    2    0    0  0.28450494965E+02 -0.70339659233E+02 -0.41491531261E+02  0.15199883385E+03  0.12500000000E+03 0.  0.
         25    1    1    2    0    0  0.16884278672E+03  0.80639534417E+02  0.17496471933E+03  0.28504082892E+03  0.12500000000E+03 0.  0.
</event>
<event>
 5    0  0.5728184E-005  0.2742744E+03  0.7546771E-02  0.1098858E+00
         21   -1    0    0  502  501  0.00000000000E+00  0.00000000000E+00  0.86050674870E+02  0.86050674870E+02  0.00000000000E+00 0.  1.
         21   -1    0    0  501  502 -0.00000000000E+00 -0.00000000000E+00 -0.87421101820E+03  0.87421101820E+03  0.00000000000E+00 0.  1.
         25    1    1    2    0    0 -0.98307722221E+02  0.58661833197E+02 -0.43600701532E+03  0.46779561384E+03  0.12500000000E+03 0.  0.
         25    1    1    2    0    0  0.63894196505E+02 -0.36228561184E+01 -0.33938489448E+02  0.14447288500E+03  0.12500000000E+03 0.  0.
         25    1    1    2    0    0  0.34413525716E+02 -0.55038977079E+02 -0.31821483857E+03  0.34799319424E+03  0.12500000000E+03 0.  0.
</event>
<event>
 5    0  0.5728184E-005  0.3538274E+03  0.7546771E-02  0.1061055E+00
         21   -1    0    0  502  501  0.00000000000E+00  0.00000000000E+00  0.21050832461E+03  0.21050832461E+03  0.00000000000E+00 0. -1.
         21   -1    0    0  501  502 -0.00000000000E+00 -0.00000000000E+00 -0.59472142787E+03  0.59472142787E+03  0.00000000000E+00 0. -1.
         25    1    1    2    0    0  0.13966087326E+03  0.53226532697E+02 -0.10061645880E+03  0.21928724332E+03  0.12500000000E+03 0.  0.
         25    1    1    2    0    0 -0.53683038566E+02  0.18469170258E+03 -0.10748094786E+03  0.25331807631E+03  0.12500000000E+03 0.  0.
         25    1    1    2    0    0 -0.85977834693E+02 -0.23791823528E+03 -0.17611569660E+03  0.33262443284E+03  0.12500000000E+03 0.  0.
</event>
<event>
 5    0  0.5728184E-005  0.3070364E+03  0.7546771E-02  0.1081775E+00
         21   -1    0    0  502  501  0.00000000000E+00  0.00000000000E+00  0.79012706880E+03  0.79012706880E+03  0.00000000000E+00 0. -1.
         21   -1    0    0  501  502 -0.00000000000E+00 -0.00000000000E+00 -0.11931166939E+03  0.11931166939E+03  0.00000000000E+00 0. -1.
         25    1    1    2    0    0  0.89260338556E+02  0.28818791471E+02  0.52641499185E+02  0.16490621037E+03  0.12500000000E+03 0.  0.
         25    1    1    2    0    0 -0.23687710517E+02 -0.11981118369E+03  0.10340303658E+03  0.20305914247E+03  0.12500000000E+03 0.  0.
         25    1    1    2    0    0 -0.65572628038E+02  0.90992392223E+02  0.51477086364E+03  0.54147338535E+03  0.12500000000E+03 0.  0.
</event>
<event>
 5    0  0.5728184E-005  0.4693570E+03  0.7546771E-02  0.1022102E+00
         21   -1    0    0  502  501  0.00000000000E+00  0.00000000000E+00  0.11104751858E+04  0.11104751858E+04  0.00000000000E+00 0. -1.
         21   -1    0    0  501  502 -0.00000000000E+00 -0.00000000000E+00 -0.19837993116E+03  0.19837993116E+03  0.00000000000E+00 0. -1.
         25    1    1    2    0    0 -0.11812479335E+03  0.66637162559E+02 -0.63216958058E+02  0.19497528567E+03  0.12500000000E+03 0.  0.
         25    1    1    2    0    0  0.29989454024E+02 -0.43319068106E+02  0.97487653810E+01  0.13599980677E+03  0.12500000000E+03 0.  0.
         25    1    1    2    0    0  0.88135339321E+02 -0.23318094453E+02  0.96556344727E+03  0.97788002447E+03  0.12500000000E+03 0.  0.
</event>
<event>
 5    0  0.5728184E-005  0.3545636E+03  0.7546771E-02  0.1060757E+00
         21   -1    0    0  502  501  0.00000000000E+00  0.00000000000E+00  0.46591099655E+03  0.46591099655E+03  0.00000000000E+00 0. -1.
         21   -1    0    0  501  502 -0.00000000000E+00 -0.00000000000E+00 -0.26982698187E+03  0.26982698187E+03  0.00000000000E+00 0. -1.
         25    1    1    2    0    0 -0.43258832232E+02  0.22173292400E+03  0.76502932790E+02  0.26928519246E+03  0.12500000000E+03 0.  0.
         25    1    1    2    0    0 -0.62513405071E+02 -0.17704631238E+03 -0.45023504235E+02  0.23001182247E+03  0.12500000000E+03 0.  0.
         25    1    1    2    0    0  0.10577223730E+03 -0.44686611620E+02  0.16460458613E+03  0.23644096349E+03  0.12500000000E+03 0.  0.
</event>
<event>
 5    0  0.5728184E-005  0.2304068E+03  0.7546771E-02  0.1126354E+00
         21   -1    0    0  502  501  0.00000000000E+00  0.00000000000E+00  0.33598798013E+03  0.33598798013E+03  0.00000000000E+00 0. -1.
         21   -1    0    0  501  502 -0.00000000000E+00 -0.00000000000E+00 -0.15800356555E+03  0.15800356555E+03  0.00000000000E+00 0. -1.
         25    1    1    2    0    0 -0.24133118422E+02 -0.51829326797E+02  0.57665375188E+02  0.14906033012E+03  0.12500000000E+03 0.  0.
         25    1    1    2    0    0  0.42651735344E+02  0.43757315363E+02  0.16019177579E+03  0.21217982517E+03  0.12500000000E+03 0.  0.
         25    1    1    2    0    0 -0.18518616922E+02  0.80720114344E+01 -0.39872736410E+02  0.13275139039E+03  0.12500000000E+03 0.  0.
</event>
<event>
 5    0  0.5728184E-005  0.2545978E+03  0.7546771E-02  0.1110433E+00
         21   -1    0    0  502  501  0.00000000000E+00  0.00000000000E+00  0.16520064467E+04  0.16520064467E+04  0.00000000000E+00 0.  1.
         21   -1    0    0  501  502 -0.00000000000E+00 -0.00000000000E+00 -0.39237170176E+02  0.39237170176E+02  0.00000000000E+00 0.  1.
         25    1    1    2    0    0  0.37504772228E+02  0.22676659768E+02  0.65198446031E+03  0.66530412243E+03  0.12500000000E+03 0.  0.
         25    1    1    2    0    0 -0.14522744536E+03 -0.32201769680E+02  0.50226912488E+03  0.53854177059E+03  0.12500000000E+03 0.  0.
         25    1    1    2    0    0  0.10772267313E+03  0.95251099120E+01  0.45851569131E+03  0.48739772384E+03  0.12500000000E+03 0.  0.
</event>
<event>
 5    0  0.5728184E-005  0.4194552E+03  0.7546771E-02  0.1037244E+00
         21   -1    0    0  502  501  0.00000000000E+00  0.00000000000E+00  0.15795284624E+03  0.15795284624E+03  0.00000000000E+00 0.  1.
         21   -1    0    0  501  502 -0.00000000000E+00 -0.00000000000E+00 -0.11138933443E+04  0.11138933443E+04  0.00000000000E+00 0.  1.
         25    1    1    2    0    0  0.22682186675E+03 -0.11874209220E+03 -0.49644655022E+02  0.28920137529E+03  0.12500000000E+03 0.  0.
         25    1    1    2    0    0 -0.48197117426E+02  0.86254548030E+02 -0.37933487767E+03  0.41143986025E+03  0.12500000000E+03 0.  0.
         25    1    1    2    0    0 -0.17862474932E+03  0.32487544172E+02 -0.52696096539E+03  0.57120495502E+03  0.12500000000E+03 0.  0.
</event>
<event>
 5    0  0.5728184E-005  0.3797571E+03  0.7546771E-02  0.1051024E+00
         21   -1    0    0  502  501  0.00000000000E+00  0.00000000000E+00  0.34341060936E+03  0.34341060936E+03  0.00000000000E+00 0.  1.
         21   -1    0    0  501  502 -0.00000000000E+00 -0.00000000000E+00 -0.41995046682E+03  0.41995046682E+03  0.00000000000E+00 0.  1.
         25    1    1    2    0    0  0.16228717388E+03  0.46673379954E+02 -0.23757598711E+03  0.31714804248E+03  0.12500000000E+03 0.  0.
         25    1    1    2    0    0 -0.20182544080E+03 -0.10403743143E+03  0.15703020072E+03  0.30305243709E+03  0.12500000000E+03 0.  0.
         25    1    1    2    0    0  0.39538266918E+02  0.57364051478E+02  0.40059289339E+01  0.14316059660E+03  0.12500000000E+03 0.  0.
</event>
<event>
 5    0  0.7889914E-005  0.6960082E+03  0.7546771E-02  0.9724083E-01
         21   -1    0    0  502  501  0.00000000000E+00  0.00000000000E+00  0.10216778476E+04  0.10216778476E+04  0.00000000000E+00 0. -1.
         21   -1    0    0  501  502 -0.00000000000E+00 -0.00000000000E+00 -0.47414884444E+03  0.47414884444E+03  0.00000000000E+00 0. -1.
         25    1    1    2    0    0 -0.37026459644E+03 -0.13367011827E+03  0.37984530606E+02  0.41476667714E+03  0.12500000000E+03 0.  0.
         25    1    1    2    0    0  0.19695856368E+03  0.13339052737E+03  0.72767437914E+03  0.77570658799E+03  0.12500000000E+03 0.  0.
         25    1    1    2    0    0  0.17330603277E+03  0.27959090277E+00 -0.21812990660E+03  0.30535342690E+03  0.12500000000E+03 0.  0.
</event>
<event>
 5    0  0.5728184E-005  0.2746424E+03  0.7546771E-02  0.1098652E+00
         21   -1    0    0  502  501  0.00000000000E+00  0.00000000000E+00  0.62901628057E+03  0.62901628057E+03  0.00000000000E+00 0.  1.
         21   -1    0    0  501  502 -0.00000000000E+00 -0.00000000000E+00 -0.11991494432E+03  0.11991494432E+03  0.00000000000E+00 0.  1.
         25    1    1    2    0    0 -0.90560946370E+02 -0.11854098474E+03  0.16857877753E+03  0.25748214366E+03  0.12500000000E+03 0.  0.
         25    1    1    2    0    0  0.14774723885E+02  0.14233876783E+03  0.11645274091E+03  0.22285613781E+03  0.12500000000E+03 0.  0.
         25    1    1    2    0    0  0.75786222485E+02 -0.23797783091E+02  0.22406981782E+03  0.26859294342E+03  0.12500000000E+03 0.  0.
</event>
<event>
 5    0  0.5728184E-005  0.2623360E+03  0.7546771E-02  0.1105748E+00
         21   -1    0    0  502  501  0.00000000000E+00  0.00000000000E+00  0.18481270937E+04  0.18481270937E+04  0.00000000000E+00 0. -1.
         21   -1    0    0  501  502 -0.00000000000E+00 -0.00000000000E+00 -0.37237795019E+02  0.37237795019E+02  0.00000000000E+00 0. -1.
         25    1    1    2    0    0  0.34796041803E+02  0.11614115340E+03  0.62248294438E+03  0.64638189028E+03  0.12500000000E+03 0.  0.
         25    1    1    2    0    0 -0.13296637687E+02 -0.15676145660E+03  0.88681035551E+03  0.90929014153E+03  0.12500000000E+03 0.  0.
         25    1    1    2    0    0 -0.21499404116E+02  0.40620303200E+02  0.30159599882E+03  0.32969285694E+03  0.12500000000E+03 0.  0.
</event>
<event>
 5    0  0.5728184E-005  0.2897211E+03  0.7546771E-02  0.1090495E+00
         21   -1    0    0  502  501  0.00000000000E+00  0.00000000000E+00  0.83067460712E+02  0.83067460712E+02  0.00000000000E+00 0.  1.
         21   -1    0    0  501  502 -0.00000000000E+00 -0.00000000000E+00 -0.10104837787E+04  0.10104837787E+04  0.00000000000E+00 0.  1.
         25    1    1    2    0    0  0.17843593588E+03  0.50656388459E+02 -0.47496240948E+03  0.52499499362E+03  0.12500000000E+03 0.  0.
         25    1    1    2    0    0 -0.30519273121E+02 -0.45774565124E+02 -0.11106001328E+03  0.17602858686E+03  0.12500000000E+03 0.  0.
         25    1    1    2    0    0 -0.14791666276E+03 -0.48818233354E+01 -0.34139389522E+03  0.39252765892E+03  0.12500000000E+03 0.  0.
</event>
<event>
 5    0  0.5728184E-005  0.2692541E+03  0.7546771E-02  0.1101707E+00
         21   -1    0    0  502  501  0.00000000000E+00  0.00000000000E+00  0.32235991244E+03  0.32235991244E+03  0.00000000000E+00 0. -1.
         21   -1    0    0  501  502 -0.00000000000E+00 -0.00000000000E+00 -0.22489701563E+03  0.22489701563E+03  0.00000000000E+00 0. -1.
         25    1    1    2    0    0 -0.13223530099E+03  0.86597210278E+02  0.53645714251E+02  0.20853804044E+03  0.12500000000E+03 0.  0.
         25    1    1    2    0    0  0.13679364928E+03 -0.93086115057E+02  0.50006622668E+02  0.21331476651E+03  0.12500000000E+03 0.  0.
         25    1    1    2    0    0 -0.45583482921E+01  0.64889047787E+01 -0.61894401086E+01  0.12540412112E+03  0.12500000000E+03 0.  0.
</event>
<event>
 5    0  0.5728184E-005  0.3911694E+03  0.7546771E-02  0.1046881E+00
         21   -1    0    0  502  501  0.00000000000E+00  0.00000000000E+00  0.17904029877E+03  0.17904029877E+03  0.00000000000E+00 0. -1.
         21   -1    0    0  501  502 -0.00000000000E+00 -0.00000000000E+00 -0.85463148571E+03  0.85463148571E+03  0.00000000000E+00 0. -1.
         25    1    1    2    0    0  0.79231092213E+02  0.20236575485E+03 -0.56311068500E+03  0.61639930911E+03  0.12500000000E+03 0.  0.
         25    1    1    2    0    0 -0.94457585174E+02 -0.92802884180E+02  0.45234155913E+02  0.18763192578E+03  0.12500000000E+03 0.  0.
         25    1    1    2    0    0  0.15226492961E+02 -0.10956287067E+03 -0.15771465785E+03  0.22964054960E+03  0.12500000000E+03 0.  0.
</event>
<event>
 5    0  0.5728184E-005  0.4821665E+03  0.7546771E-02  0.1018541E+00
         21   -1    0    0  502  501  0.00000000000E+00  0.00000000000E+00  0.55608940978E+03  0.55608940978E+03  0.00000000000E+00 0. -1.
         21   -1    0    0  501  502 -0.00000000000E+00 -0.00000000000E+00 -0.41807043289E+03  0.41807043289E+03  0.00000000000E+00 0. -1.
         25    1    1    2    0    0  0.17234563190E+03 -0.15851062121E+03  0.97195255480E+02  0.28266685614E+03  0.12500000000E+03 0.  0.
         25    1    1    2    0    0 -0.17942782362E+03 -0.14652426784E+03 -0.15746739648E+03  0.30673227073E+03  0.12500000000E+03 0.  0.
         25    1    1    2    0    0  0.70821917196E+01  0.30503488905E+03  0.19829111789E+03  0.38476071579E+03  0.12500000000E+03 0.  0.
</event>
<event>
 5    0  0.5728184E-005  0.2141145E+03  0.7546771E-02  0.1138349E+00
         21   -1    0    0  502  501  0.00000000000E+00  0.00000000000E+00  0.31159256995E+03  0.31159256995E+03  0.00000000000E+00 0. -1.
         21   -1    0    0  501  502 -0.00000000000E+00 -0.00000000000E+00 -0.14713136144E+03  0.14713136144E+03  0.00000000000E+00 0. -1.
         25    1    1    2    0    0 -0.32814418346E+02  0.12804864191E+02 -0.10202298823E+02  0.13026832884E+03  0.12500000000E+03 0.  0.
         25    1    1    2    0    0  0.62816172324E+02  0.16155696067E+02  0.57441836843E+02  0.15209024505E+03  0.12500000000E+03 0.  0.
         25    1    1    2    0    0 -0.30001753978E+02 -0.28960560257E+02  0.11722167049E+03  0.17636535750E+03  0.12500000000E+03 0.  0.
</event>
<event>
 5    0  0.5728184E-005  0.2422797E+03  0.7546771E-02  0.1118283E+00
         21   -1    0    0  502  501  0.00000000000E+00  0.00000000000E+00  0.62992791143E+02  0.62992791143E+02  0.00000000000E+00 0. -1.
         21   -1    0    0  501  502 -0.00000000000E+00 -0.00000000000E+00 -0.93184385502E+03  0.93184385502E+03  0.00000000000E+00 0. -1.
         25    1    1    2    0    0 -0.12195554916E+03  0.48825175497E+02 -0.29487370056E+03  0.34616838824E+03  0.12500000000E+03 0.  0.
         25    1    1    2    0    0  0.15455587429E+02 -0.11585298750E+02 -0.31843891861E+03  0.34263893418E+03  0.12500000000E+03 0.  0.
         25    1    1    2    0    0  0.10649996173E+03 -0.37239876747E+02 -0.25553844470E+03  0.30602932374E+03  0.12500000000E+03 0.  0.
</event>
<event>
 5    0  0.5728184E-005  0.4060430E+03  0.7546771E-02  0.1041707E+00
         21   -1    0    0  502  501  0.00000000000E+00  0.00000000000E+00  0.13355704183E+03  0.13355704183E+03  0.00000000000E+00 0.  1.
         21   -1    0    0  501  502 -0.00000000000E+00 -0.00000000000E+00 -0.12344604019E+04  0.12344604019E+04  0.00000000000E+00 0.  1.
         25    1    1    2    0    0  0.12253771344E+03  0.23753692785E+03 -0.32716218691E+03  0.44056711163E+03  0.12500000000E+03 0.  0.
         25    1    1    2    0    0  0.11370050680E+03 -0.29170355394E+02 -0.23321348592E+03  0.28946890143E+03  0.12500000000E+03 0.  0.
         25    1    1    2    0    0 -0.23623822023E+03 -0.20836657245E+03 -0.54052768723E+03  0.63798143067E+03  0.12500000000E+03 0.  0.
</event>
<event>
 5    0  0.5728184E-005  0.2494888E+03  0.7546771E-02  0.1113628E+00
         21   -1    0    0  502  501  0.00000000000E+00  0.00000000000E+00  0.16765436923E+04  0.16765436923E+04  0.00000000000E+00 0.  1.
         21   -1    0    0  501  502 -0.00000000000E+00 -0.00000000000E+00 -0.37126780856E+02  0.37126780856E+02  0.00000000000E+00 0.  1.
         25    1    1    2    0    0 -0.78477266308E+02 -0.49923840591E+02  0.62915552702E+03  0.64816105126E+03  0.12500000000E+03 0.  0.
         25    1    1    2    0    0  0.13117970123E+03 -0.27332125053E+01  0.69578092171E+03  0.71899351561E+03  0.12500000000E+03 0.  0.
         25    1    1    2    0    0 -0.52702434923E+02  0.52657053096E+02  0.31448046273E+03  0.34651590631E+03  0.12500000000E+03 0.  0.
</event>
<event>
 5    0  0.5728184E-005  0.3032911E+03  0.7546771E-02  0.1083607E+00
         21   -1    0    0  502  501  0.00000000000E+00  0.00000000000E+00  0.22406962895E+04  0.22406962895E+04  0.00000000000E+00 0.  1.
         21   -1    0    0  501  502 -0.00000000000E+00 -0.00000000000E+00 -0.41052183829E+02  0.41052183829E+02  0.00000000000E+00 0.  1.
         25    1    1    2    0    0  0.11000388207E+02 -0.12077328469E+03  0.50060408331E+03  0.53003456780E+03  0.12500000000E+03 0.  0.
         25    1    1    2    0    0  0.14997724148E+03  0.68408406306E+02  0.66326718537E+03  0.69478143484E+03  0.12500000000E+03 0.  0.
         25    1    1    2    0    0 -0.16097762968E+03  0.52364878382E+02  0.10357728370E+04  0.10569324707E+04  0.12500000000E+03 0.  0.
</event>
<event>
 5    0  0.5728184E-005  0.2691678E+03  0.7546771E-02  0.1101757E+00
         21   -1    0    0  502  501  0.00000000000E+00  0.00000000000E+00  0.30838014669E+03  0.30838014669E+03  0.00000000000E+00 0.  1.
         21   -1    0    0  501  502 -0.00000000000E+00 -0.00000000000E+00 -0.23494148778E+03  0.23494148778E+03  0.00000000000E+00 0.  1.
         25    1    1    2    0    0  0.52107120969E+02 -0.53509880827E+02  0.16342445261E+03  0.21888584036E+03  0.12500000000E+03 0.  0.
         25    1    1    2    0    0 -0.66717574112E+02 -0.36962108383E+02 -0.85096507912E+02  0.16936306507E+03  0.12500000000E+03 0.  0.
         25    1    1    2    0    0  0.14610453143E+02  0.90471989210E+02 -0.48892857842E+01  0.15507272903E+03  0.12500000000E+03 0.  0.
</event>
<event>
 5    0  0.5728184E-005  0.3033216E+03  0.7546771E-02  0.1083592E+00
         21   -1    0    0  502  501  0.00000000000E+00  0.00000000000E+00  0.93346964994E+02  0.93346964994E+02  0.00000000000E+00 0.  1.
         21   -1    0    0  501  502 -0.00000000000E+00 -0.00000000000E+00 -0.98561339161E+03  0.98561339161E+03  0.00000000000E+00 0.  1.
         25    1    1    2    0    0 -0.93553062344E+02 -0.10702080663E+03 -0.14930055623E+03  0.24108356355E+03  0.12500000000E+03 0.  0.
         25    1    1    2    0    0  0.94965373398E+02  0.15902353151E+03 -0.29612561345E+03  0.37097477631E+03  0.12500000000E+03 0.  0.
         25    1    1    2    0    0 -0.14123110544E+01 -0.52002724882E+02 -0.44684025693E+03  0.46690201674E+03  0.12500000000E+03 0.  0.
</event>
<event>
 5    0  0.5728184E-005  0.2975348E+03  0.7546771E-02  0.1086479E+00
         21   -1    0    0  502  501  0.00000000000E+00  0.00000000000E+00  0.26122331558E+04  0.26122331558E+04  0.00000000000E+00 0.  1.
         21   -1    0    0  501  502 -0.00000000000E+00 -0.00000000000E+00 -0.33889385729E+02  0.33889385729E+02  0.00000000000E+00 0.  1.
         25    1    1    2    0    0 -0.69851660691E+02  0.52877088107E+02  0.14005444941E+04  0.14088382167E+04  0.12500000000E+03 0.  0.
         25    1    1    2    0    0  0.10369428101E+03  0.20868463421E+02  0.25860226049E+03  0.30608516105E+03  0.12500000000E+03 0.  0.
         25    1    1    2    0    0 -0.33842620323E+02 -0.73745551528E+02  0.91919701540E+03  0.93119916369E+03  0.12500000000E+03 0.  0.
</event>
<event>
 5    0  0.5728184E-005  0.2300415E+03  0.7546771E-02  0.1126611E+00
         21   -1    0    0  502  501  0.00000000000E+00  0.00000000000E+00  0.18059220660E+03  0.18059220660E+03  0.00000000000E+00 0. -1.
         21   -1    0    0  501  502 -0.00000000000E+00 -0.00000000000E+00 -0.29303087543E+03  0.29303087543E+03  0.00000000000E+00 0. -1.
         25    1    1    2    0    0 -0.80361354687E+02 -0.29954694884E+02 -0.10605921223E+03  0.18501023640E+03  0.12500000000E+03 0.  0.
         25    1    1    2    0    0  0.42282237970E+02 -0.38885339573E+02  0.18601585269E+02  0.13881958167E+03  0.12500000000E+03 0.  0.
         25    1    1    2    0    0  0.38079116718E+02  0.68840034457E+02 -0.24981041865E+02  0.14979326396E+03  0.12500000000E+03 0.  0.
</event>
<event>
 5    0  0.5728184E-005  0.5215470E+03  0.7546771E-02  0.1008303E+00
         21   -1    0    0  502  501  0.00000000000E+00  0.00000000000E+00  0.73622606418E+03  0.73622606418E+03  0.00000000000E+00 0. -1.
         21   -1    0    0  501  502 -0.00000000000E+00 -0.00000000000E+00 -0.36946709688E+03  0.36946709688E+03  0.00000000000E+00 0. -1.
         25    1    1    2    0    0 -0.36868831567E+03  0.15207742481E+03  0.29113331154E+03  0.50935471170E+03  0.12500000000E+03 0.  0.
         25    1    1    2    0    0  0.31341086736E+03  0.51632546332E+02  0.81556289849E+02  0.35095401413E+03  0.12500000000E+03 0.  0.
         25    1    1    2    0    0  0.55277448310E+02 -0.20370997114E+03 -0.59306340934E+01  0.24538443523E+03  0.12500000000E+03 0.  0.
</event>
<event>
 5    0  0.5728184E-005  0.2888706E+03  0.7546771E-02  0.1090940E+00
         21   -1    0    0  502  501  0.00000000000E+00  0.00000000000E+00  0.73411869995E+02  0.73411869995E+02  0.00000000000E+00 0.  1.
         21   -1    0    0  501  502 -0.00000000000E+00 -0.00000000000E+00 -0.11366854954E+04  0.11366854954E+04  0.00000000000E+00 0.  1.
         25    1    1    2    0    0 -0.12732239476E+03  0.16008366275E+03 -0.45114402372E+03  0.51087542653E+03  0.12500000000E+03 0.  0.
         25    1    1    2    0    0  0.34244008981E+02 -0.10832328098E+03 -0.25144788696E+03  0.30291521126E+03  0.12500000000E+03 0.  0.
         25    1    1    2    0    0  0.93078385775E+02 -0.51760381772E+02 -0.36068171475E+03  0.39630672764E+03  0.12500000000E+03 0.  0.
</event>
<event>
 5    0  0.5728184E-005  0.2523654E+03  0.7546771E-02  0.1111819E+00
         21   -1    0    0  502  501  0.00000000000E+00  0.00000000000E+00  0.38560047086E+03  0.38560047086E+03  0.00000000000E+00 0.  1.
         21   -1    0    0  501  502 -0.00000000000E+00 -0.00000000000E+00 -0.16516652409E+03  0.16516652409E+03  0.00000000000E+00 0.  1.
         25    1    1    2    0    0 -0.36164551753E+02  0.28682672502E+02  0.29162519538E+02  0.13640389676E+03  0.12500000000E+03 0.  0.
         25    1    1    2    0    0  0.77869792335E+02  0.21597406104E+02 -0.30119507739E+02  0.15186288966E+03  0.12500000000E+03 0.  0.
         25    1    1    2    0    0 -0.41705240582E+02 -0.50280078606E+02  0.22139093497E+03  0.26250020854E+03  0.12500000000E+03 0.  0.
</event>
<event>
 5    0  0.5728184E-005  0.4206680E+03  0.7546771E-02  0.1036849E+00
         21   -1    0    0  502  501  0.00000000000E+00  0.00000000000E+00  0.42070702435E+03  0.42070702435E+03  0.00000000000E+00 0. -1.
         21   -1    0    0  501  502 -0.00000000000E+00 -0.00000000000E+00 -0.42062906815E+03  0.42062906815E+03  0.00000000000E+00 0. -1.
         25    1    1    2    0    0  0.30961489725E+02 -0.17517903214E+03  0.27881524952E+03  0.35356647255E+03  0.12500000000E+03 0.  0.
         25    1    1    2    0    0 -0.52244841355E+02 -0.10548547427E+02 -0.21444701381E+03  0.25387657835E+03  0.12500000000E+03 0.  0.
         25    1    1    2    0    0  0.21283351630E+02  0.18572757956E+03 -0.64290279514E+02  0.23389304160E+03  0.12500000000E+03 0.  0.
</event>
<event>
 5    0  0.5728184E-005  0.5853567E+03  0.7546771E-02  0.9936261E-01
         21   -1    0    0  502  501  0.00000000000E+00  0.00000000000E+00  0.10004713374E+04  0.10004713374E+04  0.00000000000E+00 0. -1.
         21   -1    0    0  501  502 -0.00000000000E+00 -0.00000000000E+00 -0.34248102766E+03  0.34248102766E+03  0.00000000000E+00 0. -1.
         25    1    1    2    0    0  0.48091992427E+03  0.48147261110E+02  0.16801001300E+03  0.52673949613E+03  0.12500000000E+03 0.  0.
         25    1    1    2    0    0 -0.11874332314E+03  0.13382122236E+03  0.23770703978E+03  0.32270378539E+03  0.12500000000E+03 0.  0.
         25    1    1    2    0    0 -0.36217660113E+03 -0.18196848347E+03  0.25227325700E+03  0.49350908359E+03  0.12500000000E+03 0.  0.
</event>
<event>
 5    0  0.5728184E-005  0.3612183E+03  0.7546771E-02  0.1058103E+00
         21   -1    0    0  502  501  0.00000000000E+00  0.00000000000E+00  0.35724843268E+03  0.35724843268E+03  0.00000000000E+00 0.  1.
         21   -1    0    0  501  502 -0.00000000000E+00 -0.00000000000E+00 -0.36523223252E+03  0.36523223252E+03  0.00000000000E+00 0.  1.
         25    1    1    2    0    0 -0.10688769868E+03  0.23182504156E+02 -0.77870698592E+02  0.18344278216E+03  0.12500000000E+03 0.  0.
         25    1    1    2    0    0  0.18700730520E+03  0.72067143635E+02 -0.13229093838E+03  0.27072365572E+03  0.12500000000E+03 0.  0.
         25    1    1    2    0    0 -0.80119606525E+02 -0.95249647791E+02  0.20217783713E+03  0.26831422732E+03  0.12500000000E+03 0.  0.
</event>
<event>
 5    0  0.5728184E-005  0.2754435E+03  0.7546771E-02  0.1098204E+00
         21   -1    0    0  502  501  0.00000000000E+00  0.00000000000E+00  0.92970798567E+02  0.92970798567E+02  0.00000000000E+00 0.  1.
         21   -1    0    0  501  502 -0.00000000000E+00 -0.00000000000E+00 -0.81605310022E+03  0.81605310022E+03  0.00000000000E+00 0.  1.
         25    1    1    2    0    0  0.86109984625E+02 -0.87748673743E+02 -0.12991806252E+03  0.21821654878E+03  0.12500000000E+03 0.  0.
         25    1    1    2    0    0  0.50624750207E+01  0.69481811380E+01 -0.79722081214E+02  0.14850762980E+03  0.12500000000E+03 0.  0.
         25    1    1    2    0    0 -0.91172459646E+02  0.80800492605E+02 -0.51344215793E+03  0.54229972021E+03  0.12500000000E+03 0.  0.
</event>
<event>
 5    0  0.5822624E-005  0.2955081E+03  0.7546771E-02  0.1087508E+00
         21   -1    0    0  502  501  0.00000000000E+00  0.00000000000E+00  0.16513571159E+03  0.16513571159E+03  0.00000000000E+00 0. -1.
         21   -1    0    0  501  502 -0.00000000000E+00 -0.00000000000E+00 -0.52880775681E+03  0.52880775681E+03  0.00000000000E+00 0. -1.
         25    1    1    2    0    0  0.43244932818E+02 -0.63548594787E+02 -0.31769010968E+03  0.34994364389E+03  0.12500000000E+03 0.  0.
         25    1    1    2    0    0  0.66802712110E+02  0.80917772099E+02 -0.64603199567E+02  0.17552453270E+03  0.12500000000E+03 0.  0.
         25    1    1    2    0    0 -0.11004764493E+03 -0.17369177312E+02  0.18621264026E+02  0.16847529180E+03  0.12500000000E+03 0.  0.
</event>
<event>
 5    0  0.5728184E-005  0.2699556E+03  0.7546771E-02  0.1101305E+00
         21   -1    0    0  502  501  0.00000000000E+00  0.00000000000E+00  0.23242428051E+03  0.23242428051E+03  0.00000000000E+00 0.  1.
         21   -1    0    0  501  502 -0.00000000000E+00 -0.00000000000E+00 -0.31354742462E+03  0.31354742462E+03  0.00000000000E+00 0.  1.
         25    1    1    2    0    0  0.10879476177E+02  0.10913842179E+02 -0.10266108206E+03  0.16248622318E+03  0.12500000000E+03 0.  0.
         25    1    1    2    0    0  0.11952563935E+03 -0.69490010004E+02  0.46102036297E+02  0.19200426480E+03  0.12500000000E+03 0.  0.
         25    1    1    2    0    0 -0.13040511552E+03  0.58576167825E+02 -0.24564098343E+02  0.19148121715E+03  0.12500000000E+03 0.  0.
</event>
<event>
 5    0  0.5728184E-005  0.2187374E+03  0.7546771E-02  0.1134828E+00
         21   -1    0    0  502  501  0.00000000000E+00  0.00000000000E+00  0.19349484589E+03  0.19349484589E+03  0.00000000000E+00 0.  1.
         21   -1    0    0  501  502 -0.00000000000E+00 -0.00000000000E+00 -0.24727292189E+03  0.24727292189E+03  0.00000000000E+00 0.  1.
         25    1    1    2    0    0  0.71170261696E+02  0.82366776915E+01  0.30598794184E+02  0.14728996984E+03  0.12500000000E+03 0.  0.
         25    1    1    2    0    0 -0.36992552338E+02 -0.25842693751E+02  0.83554566810E+01  0.13315820442E+03  0.12500000000E+03 0.  0.
         25    1    1    2    0    0 -0.34177709358E+02  0.17606016060E+02 -0.92732326864E+02  0.16031959351E+03  0.12500000000E+03 0.  0.
</event>
<event>
 5    0  0.5728184E-005  0.3300017E+03  0.7546771E-02  0.1071136E+00
         21   -1    0    0  502  501  0.00000000000E+00  0.00000000000E+00  0.21076726972E+03  0.21076726972E+03  0.00000000000E+00 0.  1.
         21   -1    0    0  501  502 -0.00000000000E+00 -0.00000000000E+00 -0.51668883415E+03  0.51668883415E+03  0.00000000000E+00 0.  1.
         25    1    1    2    0    0  0.54771505139E+02  0.57882112077E+02  0.73564098019E+01  0.14842295456E+03  0.12500000000E+03 0.  0.
         25    1    1    2    0    0 -0.73729320459E+02 -0.22884783757E+03 -0.14163531819E+03  0.30576610148E+03  0.12500000000E+03 0.  0.
         25    1    1    2    0    0  0.18957815320E+02  0.17096572549E+03 -0.17164265605E+03  0.27326704783E+03  0.12500000000E+03 0.  0.
</event>
<event>
 5    0  0.5728184E-005  0.3603320E+03  0.7546771E-02  0.1058453E+00
         21   -1    0    0  502  501  0.00000000000E+00  0.00000000000E+00  0.49929375994E+03  0.49929375994E+03  0.00000000000E+00 0. -1.
         21   -1    0    0  501  502 -0.00000000000E+00 -0.00000000000E+00 -0.26004554748E+03  0.26004554748E+03  0.00000000000E+00 0. -1.
         25    1    1    2    0    0 -0.18089048019E+03 -0.20378527468E+03  0.13731891692E+03  0.32974427811E+03  0.12500000000E+03 0.  0.
         25    1    1    2    0    0  0.17853842586E+03  0.19034475135E+03  0.91195047660E+02  0.30339517233E+03  0.12500000000E+03 0.  0.
         25    1    1    2    0    0  0.23520543228E+01  0.13440523331E+02  0.10734247878E+02  0.12619985699E+03  0.12500000000E+03 0.  0.
</event>
<event>
 5    0  0.5728184E-005  0.3269043E+03  0.7546771E-02  0.1072515E+00
         21   -1    0    0  502  501  0.00000000000E+00  0.00000000000E+00  0.12455461325E+04  0.12455461325E+04  0.00000000000E+00 0.  1.
         21   -1    0    0  501  502 -0.00000000000E+00 -0.00000000000E+00 -0.85798862727E+02  0.85798862727E+02  0.00000000000E+00 0.  1.
         25    1    1    2    0    0 -0.18358051423E+03  0.77769266938E+00  0.38709553972E+03  0.44628507356E+03  0.12500000000E+03 0.  0.
         25    1    1    2    0    0 -0.22618605201E+02 -0.80268386724E+02  0.45040812203E+03  0.47481269107E+03  0.12500000000E+03 0.  0.
         25    1    1    2    0    0  0.20619911943E+03  0.79490694054E+02  0.32224360799E+03  0.41024723056E+03  0.12500000000E+03 0.  0.
</event>
<event>
 5    0  0.5728184E-005  0.2387769E+03  0.7546771E-02  0.1120610E+00
         21   -1    0    0  502  501  0.00000000000E+00  0.00000000000E+00  0.23317267450E+03  0.23317267450E+03  0.00000000000E+00 0. -1.
         21   -1    0    0  501  502 -0.00000000000E+00 -0.00000000000E+00 -0.24451578038E+03  0.24451578038E+03  0.00000000000E+00 0. -1.
         25    1    1    2    0    0 -0.91435142144E+02 -0.21186060697E+02  0.38182554882E+02  0.16091035356E+03  0.12500000000E+03 0.  0.
         25    1    1    2    0    0  0.90975210598E+02 -0.54825470993E+02 -0.60045124393E+01  0.16414437359E+03  0.12500000000E+03 0.  0.
         25    1    1    2    0    0  0.45993154596E+00  0.76011531690E+02 -0.43521148316E+02  0.15263372772E+03  0.12500000000E+03 0.  0.
</event>
<event>
 5    0  0.5728184E-005  0.3421189E+03  0.7546771E-02  0.1065897E+00
         21   -1    0    0  502  501  0.00000000000E+00  0.00000000000E+00  0.25764542094E+03  0.25764542094E+03  0.00000000000E+00 0.  1.
         21   -1    0    0  501  502 -0.00000000000E+00 -0.00000000000E+00 -0.45428845894E+03  0.45428845894E+03  0.00000000000E+00 0.  1.
         25    1    1    2    0    0  0.10169073012E+03  0.32086020844E+02  0.10212201882E+03  0.19345393264E+03  0.12500000000E+03 0.  0.
         25    1    1    2    0    0 -0.11652695750E+03  0.61815962407E+02 -0.31180315285E+03  0.36089603927E+03  0.12500000000E+03 0.  0.
         25    1    1    2    0    0  0.14836227379E+02 -0.93901983251E+02  0.13038096027E+02  0.15758390796E+03  0.12500000000E+03 0.  0.
</event>
<event>
 5    0  0.5728184E-005  0.2876171E+03  0.7546771E-02  0.1091600E+00
         21   -1    0    0  502  501  0.00000000000E+00  0.00000000000E+00  0.39648369696E+02  0.39648369696E+02  0.00000000000E+00 0.  1.
         21   -1    0    0  501  502 -0.00000000000E+00 -0.00000000000E+00 -0.20864306791E+04  0.20864306791E+04  0.00000000000E+00 0.  1.
         25    1    1    2    0    0 -0.63872393055E+02  0.14236957939E+03 -0.38586485742E+03  0.43458654825E+03  0.12500000000E+03 0.  0.
         25    1    1    2    0    0  0.40076754198E+02 -0.19825828950E+02 -0.93558739487E+03  0.94495924947E+03  0.12500000000E+03 0.  0.
         25    1    1    2    0    0  0.23795638857E+02 -0.12254375044E+03 -0.72533005709E+03  0.74653325105E+03  0.12500000000E+03 0.  0.
</event>
<event>
 5    0  0.5728184E-005  0.3925225E+03  0.7546771E-02  0.1046400E+00
         21   -1    0    0  502  501  0.00000000000E+00  0.00000000000E+00  0.56683402891E+02  0.56683402891E+02  0.00000000000E+00 0. -1.
         21   -1    0    0  501  502 -0.00000000000E+00 -0.00000000000E+00 -0.27181488657E+04  0.27181488657E+04  0.00000000000E+00 0. -1.
         25    1    1    2    0    0 -0.13983108777E+03  0.25773618236E+03 -0.15761484092E+04  0.16080576733E+04  0.12500000000E+03 0.  0.
         25    1    1    2    0    0  0.54589099265E+01 -0.19462645954E+03 -0.65670476332E+03  0.69627250744E+03  0.12500000000E+03 0.  0.
         25    1    1    2    0    0  0.13437217785E+03 -0.63109722830E+02 -0.42861229030E+03  0.47050208787E+03  0.12500000000E+03 0.  0.
</event>
<event>
 5    0  0.5871594E-005  0.5278677E+03  0.7546771E-02  0.1006751E+00
         21   -1    0    0  502  501  0.00000000000E+00  0.00000000000E+00  0.12280359617E+04  0.12280359617E+04  0.00000000000E+00 0.  1.
         21   -1    0    0  501  502 -0.00000000000E+00 -0.00000000000E+00 -0.22690243335E+03  0.22690243335E+03  0.00000000000E+00 0.  1.
         25    1    1    2    0    0  0.76150057304E+02 -0.24733569815E+03  0.72423554092E+03  0.77917642260E+03  0.12500000000E+03 0.  0.
         25    1    1    2    0    0 -0.38846916116E+02 -0.11298841892E+03 -0.41167281847E+02  0.17775041715E+03  0.12500000000E+03 0.  0.
         25    1    1    2    0    0 -0.37303141188E+02  0.36032411707E+03  0.31806526928E+03  0.49801155529E+03  0.12500000000E+03 0.  0.
</event>
<event>
 5    0  0.5728184E-005  0.2249957E+03  0.7546771E-02  0.1130212E+00
         21   -1    0    0  502  501  0.00000000000E+00  0.00000000000E+00  0.18330365885E+03  0.18330365885E+03  0.00000000000E+00 0.  1.
         21   -1    0    0  501  502 -0.00000000000E+00 -0.00000000000E+00 -0.27617062044E+03  0.27617062044E+03  0.00000000000E+00 0.  1.
         25    1    1    2    0    0 -0.87244645642E+02 -0.21387471673E+02 -0.10355655090E+03  0.18552091896E+03  0.12500000000E+03 0.  0.
         25    1    1    2    0    0  0.52955211512E+02  0.42736136711E+02  0.27333739535E+01  0.14234852700E+03  0.12500000000E+03 0.  0.
         25    1    1    2    0    0  0.34289434129E+02 -0.21348665038E+02  0.79562153654E+01  0.13160483333E+03  0.12500000000E+03 0.  0.
</event>
<event>
 5    0  0.5728184E-005  0.2735740E+03  0.7546771E-02  0.1099251E+00
         21   -1    0    0  502  501  0.00000000000E+00  0.00000000000E+00  0.34469604257E+03  0.34469604257E+03  0.00000000000E+00 0. -1.
         21   -1    0    0  501  502 -0.00000000000E+00 -0.00000000000E+00 -0.21712670776E+03  0.21712670776E+03  0.00000000000E+00 0. -1.
         25    1    1    2    0    0  0.67709463214E+01  0.55471113257E+02  0.11183482276E+03  0.17679060411E+03  0.12500000000E+03 0.  0.
         25    1    1    2    0    0 -0.16386680376E+02 -0.34339967473E+02 -0.13497483126E+03  0.18785888782E+03  0.12500000000E+03 0.  0.
         25    1    1    2    0    0  0.96157340543E+01 -0.21131145784E+02  0.15070934332E+03  0.19717325839E+03  0.12500000000E+03 0.  0.
</event>
<event>
 5    0  0.5728184E-005  0.2225415E+03  0.7546771E-02  0.1132002E+00
         21   -1    0    0  502  501  0.00000000000E+00  0.00000000000E+00  0.72042073574E+03  0.72042073574E+03  0.00000000000E+00 0.  1.
         21   -1    0    0  501  502 -0.00000000000E+00 -0.00000000000E+00 -0.68744145073E+02  0.68744145073E+02  0.00000000000E+00 0.  1.
         25    1    1    2    0    0  0.36848573057E+02  0.52919654626E+02  0.37191159079E+03  0.39761984175E+03  0.12500000000E+03 0.  0.
         25    1    1    2    0    0 -0.41673923288E+02 -0.36363355317E+02  0.20005524584E+03  0.24229343961E+03  0.12500000000E+03 0.  0.
         25    1    1    2    0    0  0.48253502317E+01 -0.16556299309E+02  0.79709754034E+02  0.14925159946E+03  0.12500000000E+03 0.  0.
</event>
<event>
 5    0  0.5728184E-005  0.3344605E+03  0.7546771E-02  0.1069180E+00
         21   -1    0    0  502  501  0.00000000000E+00  0.00000000000E+00  0.11449825008E+03  0.11449825008E+03  0.00000000000E+00 0. -1.
         21   -1    0    0  501  502 -0.00000000000E+00 -0.00000000000E+00 -0.97699158114E+03  0.97699158114E+03  0.00000000000E+00 0. -1.
         25    1    1    2    0    0 -0.32488940217E+02  0.86245567824E+02 -0.21532213537E+03  0.26548531256E+03  0.12500000000E+03 0.  0.
         25    1    1    2    0    0  0.35361212672E+02 -0.14692636821E+03 -0.65799820961E+03  0.68660353691E+03  0.12500000000E+03 0.  0.
         25    1    1    2    0    0 -0.28722724545E+01  0.60680800384E+02  0.10827013922E+02  0.13940098176E+03  0.12500000000E+03 0.  0.
</event>
<event>
 5    0  0.5728184E-005  0.3045970E+03  0.7546771E-02  0.1082965E+00
         21   -1    0    0  502  501  0.00000000000E+00  0.00000000000E+00  0.13332307226E+04  0.13332307226E+04  0.00000000000E+00 0.  1.
         21   -1    0    0  501  502 -0.00000000000E+00 -0.00000000000E+00 -0.69589843452E+02  0.69589843452E+02  0.00000000000E+00 0.  1.
         25    1    1    2    0    0  0.13071237218E+03  0.17810763183E+03  0.50335194867E+03  0.56373419001E+03  0.12500000000E+03 0.  0.
         25    1    1    2    0    0 -0.11802029506E+03 -0.64761957367E+02  0.44091059030E+03  0.47765055198E+03  0.12500000000E+03 0.  0.
         25    1    1    2    0    0 -0.12692077119E+02 -0.11334567447E+03  0.31937834022E+03  0.36143582411E+03  0.12500000000E+03 0.  0.
</event>
<event>
 5    0  0.5728184E-005  0.2634813E+03  0.7546771E-02  0.1105069E+00
         21   -1    0    0  502  501  0.00000000000E+00  0.00000000000E+00  0.67460463009E+03  0.67460463009E+03  0.00000000000E+00 0.  1.
         21   -1    0    0  501  502 -0.00000000000E+00 -0.00000000000E+00 -0.10290829320E+03  0.10290829320E+03  0.00000000000E+00 0.  1.
         25    1    1    2    0    0  0.67181670636E+02  0.43798719736E+02  0.54427197759E+02  0.15817403256E+03  0.12500000000E+03 0.  0.
         25    1    1    2    0    0  0.19517998152E+01 -0.12000158607E+03  0.21215866196E+03  0.27393518946E+03  0.12500000000E+03 0.  0.
         25    1    1    2    0    0 -0.69133470451E+02  0.76202866331E+02  0.30511047717E+03  0.34540370127E+03  0.12500000000E+03 0.  0.
</event>
<event>
 5    0  0.5728184E-005  0.4910463E+03  0.7546771E-02  0.1016143E+00
         21   -1    0    0  502  501  0.00000000000E+00  0.00000000000E+00  0.11870876348E+04  0.11870876348E+04  0.00000000000E+00 0.  1.
         21   -1    0    0  501  502 -0.00000000000E+00 -0.00000000000E+00 -0.20312443998E+03  0.20312443998E+03  0.00000000000E+00 0.  1.
         25    1    1    2    0    0 -0.11462463359E+03 -0.34858565666E+03  0.51268566628E+03  0.64274595220E+03  0.12500000000E+03 0.  0.
         25    1    1    2    0    0  0.22580455610E+03  0.96476913003E+02  0.19315777739E+03  0.33649727973E+03  0.12500000000E+03 0.  0.
         25    1    1    2    0    0 -0.11117992251E+03  0.25210874366E+03  0.27811975111E+03  0.41096884280E+03  0.12500000000E+03 0.  0.
</event>
<event>
 5    0  0.5728184E-005  0.4536410E+03  0.7546771E-02  0.1026642E+00
         21   -1    0    0  502  501  0.00000000000E+00  0.00000000000E+00  0.98830103486E+02  0.98830103486E+02  0.00000000000E+00 0. -1.
         21   -1    0    0  501  502 -0.00000000000E+00 -0.00000000000E+00 -0.20822614647E+04  0.20822614647E+04  0.00000000000E+00 0. -1.
         25    1    1    2    0    0  0.60399578084E+01  0.72615763691E+02 -0.72970911795E+03  0.74391526872E+03  0.12500000000E+03 0.  0.
         25    1    1    2    0    0 -0.23619566487E+02  0.26297694327E+03 -0.30207288291E+03  0.42022349196E+03  0.12500000000E+03 0.  0.
         25    1    1    2    0    0  0.17579608679E+02 -0.33559270696E+03 -0.95164936041E+03  0.10169528075E+04  0.12500000000E+03 0.  0.
</event>
<event>
 5    0  0.5728184E-005  0.2974249E+03  0.7546771E-02  0.1086535E+00
         21   -1    0    0  502  501  0.00000000000E+00  0.00000000000E+00  0.53702694248E+03  0.53702694248E+03  0.00000000000E+00 0.  1.
         21   -1    0    0  501  502 -0.00000000000E+00 -0.00000000000E+00 -0.16472460207E+03  0.16472460207E+03  0.00000000000E+00 0.  1.
         25    1    1    2    0    0  0.11142076973E+03  0.38692521097E+02  0.16355439315E+03  0.23724826371E+03  0.12500000000E+03 0.  0.
         25    1    1    2    0    0  0.94534684628E+02 -0.56040299548E+02  0.44109150881E+02  0.17218576876E+03  0.12500000000E+03 0.  0.
         25    1    1    2    0    0 -0.20595545436E+03  0.17347778451E+02  0.16463879638E+03  0.29231751209E+03  0.12500000000E+03 0.  0.
</event>
<event>
 5    0  0.5728184E-005  0.2664881E+03  0.7546771E-02  0.1103307E+00
         21   -1    0    0  502  501  0.00000000000E+00  0.00000000000E+00  0.12877049489E+03  0.12877049489E+03  0.00000000000E+00 0.  1.
         21   -1    0    0  501  502 -0.00000000000E+00 -0.00000000000E+00 -0.55149191051E+03  0.55149191051E+03  0.00000000000E+00 0.  1.
         25    1    1    2    0    0 -0.13414570488E+03 -0.97857655503E+02 -0.18091795560E+03  0.27554944663E+03  0.12500000000E+03 0.  0.
         25    1    1    2    0    0  0.70358708676E+01  0.46294900651E+02 -0.13834041125E+03  0.19223888964E+03  0.12500000000E+03 0.  0.
         25    1    1    2    0    0  0.12710983402E+03  0.51562754851E+02 -0.10346304877E+03  0.21247406913E+03  0.12500000000E+03 0.  0.
</event>
<event>
 5    0  0.5728184E-005  0.2276613E+03  0.7546771E-02  0.1128297E+00
         21   -1    0    0  502  501  0.00000000000E+00  0.00000000000E+00  0.13412979363E+04  0.13412979363E+04  0.00000000000E+00 0. -1.
         21   -1    0    0  501  502 -0.00000000000E+00 -0.00000000000E+00 -0.38641413893E+02  0.38641413893E+02  0.00000000000E+00 0. -1.
         25    1    1    2    0    0 -0.37139725865E+02 -0.39650630986E+01  0.44424366995E+03  0.46300380047E+03  0.12500000000E+03 0.  0.
         25    1    1    2    0    0  0.90518117731E+02 -0.67756356078E+02  0.46035903822E+03  0.49024473225E+03  0.12500000000E+03 0.  0.
         25    1    1    2    0    0 -0.53378391866E+02  0.71721419176E+02  0.39805381428E+03  0.42669081752E+03  0.12500000000E+03 0.  0.
</event>
<event>
 5    0  0.5728184E-005  0.4778195E+03  0.7546771E-02  0.1019736E+00
         21   -1    0    0  502  501  0.00000000000E+00  0.00000000000E+00  0.44737480064E+03  0.44737480064E+03  0.00000000000E+00 0. -1.
         21   -1    0    0  501  502 -0.00000000000E+00 -0.00000000000E+00 -0.51033596148E+03  0.51033596148E+03  0.00000000000E+00 0. -1.
         25    1    1    2    0    0 -0.16542642188E+03  0.22823139038E+03 -0.35384277663E+03  0.46934547956E+03  0.12500000000E+03 0.  0.
         25    1    1    2    0    0  0.10738512411E+03 -0.64145537036E+02  0.15031572320E+03  0.23209056733E+03  0.12500000000E+03 0.  0.
         25    1    1    2    0    0  0.58041297771E+02 -0.16408585334E+03  0.14056589259E+03  0.25627471524E+03  0.12500000000E+03 0.  0.
</event>
<event>
 5    0  0.5728184E-005  0.2902183E+03  0.7546771E-02  0.1090235E+00
         21   -1    0    0  502  501  0.00000000000E+00  0.00000000000E+00  0.27915139213E+03  0.27915139213E+03  0.00000000000E+00 0.  1.
         21   -1    0    0  501  502 -0.00000000000E+00 -0.00000000000E+00 -0.30172396285E+03  0.30172396285E+03  0.00000000000E+00 0.  1.
         25    1    1    2    0    0 -0.10817047260E+03  0.39778528478E+02 -0.10921271839E+03  0.20207820349E+03  0.12500000000E+03 0.  0.
         25    1    1    2    0    0  0.70551280891E+02  0.91755460066E+02  0.91588769122E+02  0.19341677879E+03  0.12500000000E+03 0.  0.
         25    1    1    2    0    0  0.37619191706E+02 -0.13153398854E+03 -0.49486214491E+01  0.18538037270E+03  0.12500000000E+03 0.  0.
</event>
<event>
 5    0  0.5728184E-005  0.4146965E+03  0.7546771E-02  0.1038806E+00
         21   -1    0    0  502  501  0.00000000000E+00  0.00000000000E+00  0.68209671543E+03  0.68209671543E+03  0.00000000000E+00 0.  1.
         21   -1    0    0  501  502 -0.00000000000E+00 -0.00000000000E+00 -0.25212439791E+03  0.25212439791E+03  0.00000000000E+00 0.  1.
         25    1    1    2    0    0  0.92226049887E+02 -0.33315032391E+03  0.14787616192E+03  0.39621602928E+03  0.12500000000E+03 0.  0.
         25    1    1    2    0    0 -0.67777834109E+02  0.78646126425E+02  0.47814672805E+02  0.16938208563E+03  0.12500000000E+03 0.  0.
         25    1    1    2    0    0 -0.24448215778E+02  0.25450419748E+03  0.23428148280E+03  0.36862299843E+03  0.12500000000E+03 0.  0.
</event>
<event>
 5    0  0.5728184E-005  0.4682121E+03  0.7546771E-02  0.1022426E+00
         21   -1    0    0  502  501  0.00000000000E+00  0.00000000000E+00  0.10442016734E+04  0.10442016734E+04  0.00000000000E+00 0.  1.
         21   -1    0    0  501  502 -0.00000000000E+00 -0.00000000000E+00 -0.20994274296E+03  0.20994274296E+03  0.00000000000E+00 0.  1.
         25    1    1    2    0    0 -0.26107405002E+03 -0.15289749705E+03  0.21108488943E+02  0.32803638900E+03  0.12500000000E+03 0.  0.
         25    1    1    2    0    0  0.44147713592E+02  0.31185991666E+02  0.43976639363E+03  0.46037057645E+03  0.12500000000E+03 0.  0.
         25    1    1    2    0    0  0.21692633643E+03  0.12171150539E+03  0.37338404785E+03  0.46573745089E+03  0.12500000000E+03 0.  0.
</event>
<event>
 5    0  0.5728184E-005  0.3285958E+03  0.7546771E-02  0.1071760E+00
         21   -1    0    0  502  501  0.00000000000E+00  0.00000000000E+00  0.91776969278E+03  0.91776969278E+03  0.00000000000E+00 0.  1.
         21   -1    0    0  501  502 -0.00000000000E+00 -0.00000000000E+00 -0.11764953944E+03  0.11764953944E+03  0.00000000000E+00 0.  1.
         25    1    1    2    0    0  0.13305321893E+03  0.11628294869E+03  0.18843379550E+03  0.28697940434E+03  0.12500000000E+03 0.  0.
         25    1    1    2    0    0 -0.12312246127E+03  0.83359849191E+02  0.24789049471E+03  0.31493285363E+03  0.12500000000E+03 0.  0.
         25    1    1    2    0    0 -0.99307576629E+01 -0.19964279788E+03  0.36379586313E+03  0.43350697425E+03  0.12500000000E+03 0.  0.
</event>
<event>
 5    0  0.5728184E-005  0.4737154E+03  0.7546771E-02  0.1020877E+00
         21   -1    0    0  502  501  0.00000000000E+00  0.00000000000E+00  0.82171432447E+03  0.82171432447E+03  0.00000000000E+00 0.  1.
         21   -1    0    0  501  502 -0.00000000000E+00 -0.00000000000E+00 -0.27309520707E+03  0.27309520707E+03  0.00000000000E+00 0.  1.
         25    1    1    2    0    0  0.10728054509E+03 -0.57458873469E+02 -0.48327619740E+02  0.18102816445E+03  0.12500000000E+03 0.  0.
         25    1    1    2    0    0  0.23178663756E+03 -0.53517914028E+02  0.94187967004E+02  0.28475530829E+03  0.12500000000E+03 0.  0.
         25    1    1    2    0    0 -0.33906718264E+03  0.11097678750E+03  0.50275877013E+03  0.62902605880E+03  0.12500000000E+03 0.  0.
</event>
<event>
 5    0  0.5728184E-005  0.2794201E+03  0.7546771E-02  0.1096006E+00
         21   -1    0    0  502  501  0.00000000000E+00  0.00000000000E+00  0.98990117013E+03  0.98990117013E+03  0.00000000000E+00 0. -1.
         21   -1    0    0  501  502 -0.00000000000E+00 -0.00000000000E+00 -0.78872088541E+02  0.78872088541E+02  0.00000000000E+00 0. -1.
         25    1    1    2    0    0  0.10877490514E+03  0.22865490844E+02  0.23621620520E+03  0.28944413322E+03  0.12500000000E+03 0.  0.
         25    1    1    2    0    0 -0.21616565673E+01  0.45103627608E+02  0.54023676082E+03  0.55634500782E+03  0.12500000000E+03 0.  0.
         25    1    1    2    0    0 -0.10661324857E+03 -0.67969118452E+02  0.13457611558E+03  0.22298411764E+03  0.12500000000E+03 0.  0.
</event>
<event>
 5    0  0.5728184E-005  0.3050724E+03  0.7546771E-02  0.1082732E+00
         21   -1    0    0  502  501  0.00000000000E+00  0.00000000000E+00  0.11945775294E+03  0.11945775294E+03  0.00000000000E+00 0. -1.
         21   -1    0    0  501  502 -0.00000000000E+00 -0.00000000000E+00 -0.77909697931E+03  0.77909697931E+03  0.00000000000E+00 0. -1.
         25    1    1    2    0    0  0.80476592316E+02 -0.68873460322E+02 -0.12431484132E+03  0.20566773014E+03  0.12500000000E+03 0.  0.
         25    1    1    2    0    0  0.94827337713E+02 -0.43321610478E+02 -0.35475953755E+03  0.39031822324E+03  0.12500000000E+03 0.  0.
         25    1    1    2    0    0 -0.17530393003E+03  0.11219507080E+03 -0.18056484750E+03  0.30256877887E+03  0.12500000000E+03 0.  0.
</event>
<event>
 5    0  0.6247546E-005  0.2976554E+03  0.7546771E-02  0.1086419E+00
         21   -1    0    0  502  501  0.00000000000E+00  0.00000000000E+00  0.17887251791E+03  0.17887251791E+03  0.00000000000E+00 0.  1.
         21   -1    0    0  501  502 -0.00000000000E+00 -0.00000000000E+00 -0.49531787145E+03  0.49531787145E+03  0.00000000000E+00 0.  1.
         25    1    1    2    0    0 -0.25204631322E+02 -0.12606681519E+03 -0.11991321759E+03  0.21571345596E+03  0.12500000000E+03 0.  0.
         25    1    1    2    0    0  0.99160182806E+02 -0.64979120744E+02 -0.10421679303E+03  0.20134837455E+03  0.12500000000E+03 0.  0.
         25    1    1    2    0    0 -0.73955551484E+02  0.19104593593E+03 -0.92315342924E+02  0.25712855884E+03  0.12500000000E+03 0.  0.
</event>
<event>
 5    0  0.5728184E-005  0.2793146E+03  0.7546771E-02  0.1096064E+00
         21   -1    0    0  502  501  0.00000000000E+00  0.00000000000E+00  0.25579188406E+03  0.25579188406E+03  0.00000000000E+00 0. -1.
         21   -1    0    0  501  502 -0.00000000000E+00 -0.00000000000E+00 -0.30500042664E+03  0.30500042664E+03  0.00000000000E+00 0. -1.
         25    1    1    2    0    0 -0.20158761519E+02  0.76391165795E+02 -0.11543491749E+03  0.18759585830E+03  0.12500000000E+03 0.  0.
         25    1    1    2    0    0  0.27732955230E+01  0.85175135806E+02  0.73197354933E+02  0.16806352280E+03  0.12500000000E+03 0.  0.
         25    1    1    2    0    0  0.17385465996E+02 -0.16156630160E+03 -0.69709800156E+01  0.20513292959E+03  0.12500000000E+03 0.  0.
</event>
<event>
 5    0  0.5728184E-005  0.3959903E+03  0.7546771E-02  0.1045177E+00
         21   -1    0    0  502  501  0.00000000000E+00  0.00000000000E+00  0.45530515813E+03  0.45530515813E+03  0.00000000000E+00 0. -1.
         21   -1    0    0  501  502 -0.00000000000E+00 -0.00000000000E+00 -0.34440270024E+03  0.34440270024E+03  0.00000000000E+00 0. -1.
         25    1    1    2    0    0  0.45922658700E+01 -0.33910566748E+02 -0.11628472163E+03  0.17412108410E+03  0.12500000000E+03 0.  0.
         25    1    1    2    0    0 -0.14618341069E+03 -0.18150702375E+03  0.75116752685E+01  0.26456722113E+03  0.12500000000E+03 0.  0.
         25    1    1    2    0    0  0.14159114482E+03  0.21541759050E+03  0.21967550425E+03  0.36101955314E+03  0.12500000000E+03 0.  0.
</event>
<event>
 5    0  0.5728184E-005  0.2723521E+03  0.7546771E-02  0.1099941E+00
         21   -1    0    0  502  501  0.00000000000E+00  0.00000000000E+00  0.39286236605E+03  0.39286236605E+03  0.00000000000E+00 0. -1.
         21   -1    0    0  501  502 -0.00000000000E+00 -0.00000000000E+00 -0.18880832503E+03  0.18880832503E+03  0.00000000000E+00 0. -1.
         25    1    1    2    0    0  0.14960078461E+03  0.61808119679E+01  0.85147154025E+02  0.21282301340E+03  0.12500000000E+03 0.  0.
         25    1    1    2    0    0 -0.12538041785E+03 -0.42182604460E+02  0.14655529935E+03  0.23367301314E+03  0.12500000000E+03 0.  0.
         25    1    1    2    0    0 -0.24220366758E+02  0.36001792492E+02 -0.27648412360E+02  0.13517466454E+03  0.12500000000E+03 0.  0.
</event>
<event>
 5    0  0.5728184E-005  0.2536112E+03  0.7546771E-02  0.1111044E+00
         21   -1    0    0  502  501  0.00000000000E+00  0.00000000000E+00  0.50325068065E+03  0.50325068065E+03  0.00000000000E+00 0.  1.
         21   -1    0    0  501  502 -0.00000000000E+00 -0.00000000000E+00 -0.12780633424E+03  0.12780633424E+03  0.00000000000E+00 0.  1.
         25    1    1    2    0    0 -0.33163583882E+02  0.10510518193E+03  0.13831784095E+03  0.21657273072E+03  0.12500000000E+03 0.  0.
         25    1    1    2    0    0 -0.78318348128E+02 -0.12900877408E+02  0.90478264852E+02  0.17352669161E+03  0.12500000000E+03 0.  0.
         25    1    1    2    0    0  0.11148193201E+03 -0.92204304522E+02  0.14664824062E+03  0.24095759256E+03  0.12500000000E+03 0.  0.
</event>
<event>
 5    0  0.5728184E-005  0.2629548E+03  0.7546771E-02  0.1105381E+00
         21   -1    0    0  502  501  0.00000000000E+00  0.00000000000E+00  0.73885822336E+03  0.73885822336E+03  0.00000000000E+00 0. -1.
         21   -1    0    0  501  502 -0.00000000000E+00 -0.00000000000E+00 -0.93583863486E+02  0.93583863486E+02  0.00000000000E+00 0. -1.
         25    1    1    2    0    0 -0.92890598023E+02 -0.25958761403E+01  0.21232058181E+03  0.26332571321E+03  0.12500000000E+03 0.  0.
         25    1    1    2    0    0  0.14203328306E+03 -0.96835655653E+01  0.37926375487E+03  0.42394954971E+03  0.12500000000E+03 0.  0.
         25    1    1    2    0    0 -0.49142685035E+02  0.12279441706E+02  0.53690023193E+02  0.14516682394E+03  0.12500000000E+03 0.  0.
</event>
<event>
 5    0  0.5728184E-005  0.4460465E+03  0.7546771E-02  0.1028908E+00
         21   -1    0    0  502  501  0.00000000000E+00  0.00000000000E+00  0.32664040278E+03  0.32664040278E+03  0.00000000000E+00 0.  1.
         21   -1    0    0  501  502 -0.00000000000E+00 -0.00000000000E+00 -0.60910243620E+03  0.60910243620E+03  0.00000000000E+00 0.  1.
         25    1    1    2    0    0  0.24172510161E+03 -0.11028200383E+02 -0.11160349384E+03  0.29433481920E+03  0.12500000000E+03 0.  0.
         25    1    1    2    0    0 -0.11409885138E+03  0.25395703711E+03 -0.24340759154E+02  0.30615387821E+03  0.12500000000E+03 0.  0.
         25    1    1    2    0    0 -0.12762625024E+03 -0.24292883673E+03 -0.14651778043E+03  0.33525414158E+03  0.12500000000E+03 0.  0.
</event>
<event>
 5    0  0.5728184E-005  0.3817787E+03  0.7546771E-02  0.1050278E+00
         21   -1    0    0  502  501  0.00000000000E+00  0.00000000000E+00  0.64521314836E+03  0.64521314836E+03  0.00000000000E+00 0.  1.
         21   -1    0    0  501  502 -0.00000000000E+00 -0.00000000000E+00 -0.22590201618E+03  0.22590201618E+03  0.00000000000E+00 0.  1.
         25    1    1    2    0    0 -0.88876589862E+02 -0.18072993642E+03  0.23008684273E+03  0.33034423461E+03  0.12500000000E+03 0.  0.
         25    1    1    2    0    0 -0.86993611288E+02 -0.76357354282E+02  0.51458555702E+02  0.17796436978E+03  0.12500000000E+03 0.  0.
         25    1    1    2    0    0  0.17587020115E+03  0.25708729070E+03  0.13776573376E+03  0.36280656015E+03  0.12500000000E+03 0.  0.
</event>
<event>
 5    0  0.6181546E-005  0.3464271E+03  0.7546771E-02  0.1064091E+00
         21   -1    0    0  502  501  0.00000000000E+00  0.00000000000E+00  0.26770098728E+03  0.26770098728E+03  0.00000000000E+00 0. -1.
         21   -1    0    0  501  502 -0.00000000000E+00 -0.00000000000E+00 -0.44830518833E+03  0.44830518833E+03  0.00000000000E+00 0. -1.
         25    1    1    2    0    0 -0.14026283962E+02  0.15753141984E+02 -0.27670259278E+03  0.30435870774E+03  0.12500000000E+03 0.  0.
         25    1    1    2    0    0  0.13808602101E+03  0.74790179425E+02  0.30370210521E+02  0.20299918675E+03  0.12500000000E+03 0.  0.
         25    1    1    2    0    0 -0.12405973704E+03 -0.90543321408E+02  0.65728181216E+02  0.20864828112E+03  0.12500000000E+03 0.  0.
</event>
<event>
 5    0  0.5728184E-005  0.4074337E+03  0.7546771E-02  0.1041236E+00
         21   -1    0    0  502  501  0.00000000000E+00  0.00000000000E+00  0.44425099220E+03  0.44425099220E+03  0.00000000000E+00 0.  1.
         21   -1    0    0  501  502 -0.00000000000E+00 -0.00000000000E+00 -0.37366765399E+03  0.37366765399E+03  0.00000000000E+00 0.  1.
         25    1    1    2    0    0 -0.20507221552E+02  0.75118726478E+02 -0.11009850871E+03  0.18387509571E+03  0.12500000000E+03 0.  0.
         25    1    1    2    0    0  0.12842269804E+01 -0.51368599510E+02  0.37633503297E+03  0.39986677693E+03  0.12500000000E+03 0.  0.
         25    1    1    2    0    0  0.19222994571E+02 -0.23750126968E+02 -0.19565318606E+03  0.23417677354E+03  0.12500000000E+03 0.  0.
</event>
<event>
 5    0  0.5728184E-005  0.6400190E+03  0.7546771E-02  0.9825690E-01
         21   -1    0    0  502  501  0.00000000000E+00  0.00000000000E+00  0.64082674315E+03  0.64082674315E+03  0.00000000000E+00 0. -1.
         21   -1    0    0  501  502 -0.00000000000E+00 -0.00000000000E+00 -0.63921235850E+03  0.63921235850E+03  0.00000000000E+00 0.  1.
         25    1    1    2    0    0  0.23145396730E+03  0.10892133505E+03 -0.40628969828E+02  0.28759434869E+03  0.12500000000E+03 0.  0.
         25    1    1    2    0    0 -0.52772103893E+03  0.15300000538E+03 -0.55903300452E+02  0.56625848830E+03  0.12500000000E+03 0.  0.
         25    1    1    2    0    0  0.29626707163E+03 -0.26192134043E+03  0.98146654929E+02  0.42618626466E+03  0.12500000000E+03 0.  0.
</event>
<event>
 5    0  0.5728184E-005  0.2010820E+03  0.7546771E-02  0.1148829E+00
         21   -1    0    0  502  501  0.00000000000E+00  0.00000000000E+00  0.58087010714E+02  0.58087010714E+02  0.00000000000E+00 0.  1.
         21   -1    0    0  501  502 -0.00000000000E+00 -0.00000000000E+00 -0.69609320272E+03  0.69609320272E+03  0.00000000000E+00 0.  1.
         25    1    1    2    0    0  0.27991604968E+02 -0.15910505657E+00 -0.33309539883E+03  0.35687686950E+03  0.12500000000E+03 0.  0.
         25    1    1    2    0    0 -0.10357483852E+02 -0.14303231244E+02 -0.13109642163E+03  0.18199761443E+03  0.12500000000E+03 0.  0.
         25    1    1    2    0    0 -0.17634121116E+02  0.14462336301E+02 -0.17381437156E+03  0.21530572951E+03  0.12500000000E+03 0.  0.
</event>
<event>
 5    0  0.5728184E-005  0.4277950E+03  0.7546771E-02  0.1034559E+00
         21   -1    0    0  502  501  0.00000000000E+00  0.00000000000E+00  0.18722565739E+04  0.18722565739E+04  0.00000000000E+00 0. -1.
         21   -1    0    0  501  502 -0.00000000000E+00 -0.00000000000E+00 -0.97747575936E+02  0.97747575936E+02  0.00000000000E+00 0. -1.
         25    1    1    2    0    0  0.24397621642E+03 -0.11679137305E+03  0.69114079535E+03  0.75263883636E+03  0.12500000000E+03 0.  0.
         25    1    1    2    0    0 -0.28129975426E+03 -0.45451445449E+02  0.84721976452E+03  0.90255288767E+03  0.12500000000E+03 0.  0.
         25    1    1    2    0    0  0.37323537842E+02  0.16224281850E+03  0.23614843808E+03  0.31481242580E+03  0.12500000000E+03 0.  0.
</event>
<event>
 5    0  0.5728184E-005  0.2262974E+03  0.7546771E-02  0.1129273E+00
         21   -1    0    0  502  501  0.00000000000E+00  0.00000000000E+00  0.90714052452E+03  0.90714052452E+03  0.00000000000E+00 0. -1.
         21   -1    0    0  501  502 -0.00000000000E+00 -0.00000000000E+00 -0.56452698422E+02  0.56452698422E+02  0.00000000000E+00 0. -1.
         25    1    1    2    0    0  0.91820558628E+02 -0.72212279107E+02  0.29866676587E+03  0.34419829354E+03  0.12500000000E+03 0.  0.
         25    1    1    2    0    0 -0.31167158914E+02  0.56649615590E+02  0.26054935864E+03  0.29612757222E+03  0.12500000000E+03 0.  0.
         25    1    1    2    0    0 -0.60653399714E+02  0.15562663517E+02  0.29147170160E+03  0.32326735719E+03  0.12500000000E+03 0.  0.
</event>
<event>
 5    0  0.5728184E-005  0.4370087E+03  0.7546771E-02  0.1031669E+00
         21   -1    0    0  502  501  0.00000000000E+00  0.00000000000E+00  0.12843922097E+04  0.12843922097E+04  0.00000000000E+00 0. -1.
         21   -1    0    0  501  502 -0.00000000000E+00 -0.00000000000E+00 -0.14869022985E+03  0.14869022985E+03  0.00000000000E+00 0. -1.
         25    1    1    2    0    0  0.94105333643E+02 -0.17105942845E+03  0.24198872122E+03  0.33511294078E+03  0.12500000000E+03 0.  0.
         25    1    1    2    0    0  0.20611586490E+03  0.19549124790E+03  0.40034816842E+03  0.50656118458E+03  0.12500000000E+03 0.  0.
         25    1    1    2    0    0 -0.30022119854E+03 -0.24431819448E+02  0.49336509018E+03  0.59140831417E+03  0.12500000000E+03 0.  0.
</event>
<event>
 5    0  0.5728184E-005  0.2911867E+03  0.7546771E-02  0.1089731E+00
         21   -1    0    0  502  501  0.00000000000E+00  0.00000000000E+00  0.52008760089E+02  0.52008760089E+02  0.00000000000E+00 0.  1.
         21   -1    0    0  501  502 -0.00000000000E+00 -0.00000000000E+00 -0.16302964488E+04  0.16302964488E+04  0.00000000000E+00 0.  1.
         25    1    1    2    0    0 -0.93491501937E+02  0.13912784230E+02 -0.38089426980E+03  0.41187336800E+03  0.12500000000E+03 0.  0.
         25    1    1    2    0    0  0.10623741903E+02  0.15048403958E+03 -0.45454144848E+03  0.49496589624E+03  0.12500000000E+03 0.  0.
         25    1    1    2    0    0  0.82867760034E+02 -0.16439682381E+03 -0.74285197045E+03  0.77546594466E+03  0.12500000000E+03 0.  0.
</event>
<event>
 5    0  0.5728184E-005  0.2636297E+03  0.7546771E-02  0.1104982E+00
         21   -1    0    0  502  501  0.00000000000E+00  0.00000000000E+00  0.16915774963E+03  0.16915774963E+03  0.00000000000E+00 0.  1.
         21   -1    0    0  501  502 -0.00000000000E+00 -0.00000000000E+00 -0.41086268561E+03  0.41086268561E+03  0.00000000000E+00 0.  1.
         25    1    1    2    0    0  0.31607317942E+02  0.41997862677E+02 -0.17853382291E+03  0.22419225887E+03  0.12500000000E+03 0.  0.
         25    1    1    2    0    0 -0.89493429747E+02 -0.82896166696E+02 -0.10793819394E+03  0.20532048639E+03  0.12500000000E+03 0.  0.
         25    1    1    2    0    0  0.57886111805E+02  0.40898304019E+02  0.44767080864E+02  0.15050768997E+03  0.12500000000E+03 0.  0.
</event>
<event>
 5    0  0.5728184E-005  0.2382897E+03  0.7546771E-02  0.1120937E+00
         21   -1    0    0  502  501  0.00000000000E+00  0.00000000000E+00  0.68312068775E+02  0.68312068775E+02  0.00000000000E+00 0.  1.
         21   -1    0    0  501  502 -0.00000000000E+00 -0.00000000000E+00 -0.83121429710E+03  0.83121429710E+03  0.00000000000E+00 0.  1.
         25    1    1    2    0    0 -0.66220010503E+02  0.41506203479E+02 -0.40087538261E+03  0.42712284778E+03  0.12500000000E+03 0.  0.
         25    1    1    2    0    0  0.59948216010E+02 -0.28871417693E+02 -0.77770344318E+02  0.16155672013E+03  0.12500000000E+03 0.  0.
         25    1    1    2    0    0  0.62717944929E+01 -0.12634785787E+02 -0.28425650140E+03  0.31084679797E+03  0.12500000000E+03 0.  0.
</event>
<event>
 5    0  0.5728184E-005  0.2993524E+03  0.7546771E-02  0.1085565E+00
         21   -1    0    0  502  501  0.00000000000E+00  0.00000000000E+00  0.24285512122E+04  0.24285512122E+04  0.00000000000E+00 0. -1.
         21   -1    0    0  501  502 -0.00000000000E+00 -0.00000000000E+00 -0.36899306472E+02  0.36899306472E+02  0.00000000000E+00 0. -1.
         25    1    1    2    0    0 -0.51943056029E+02 -0.14190939638E+02  0.30926525030E+03  0.33788971408E+03  0.12500000000E+03 0.  0.
         25    1    1    2    0    0 -0.48974378443E+02 -0.13384127768E+03  0.60200058954E+03  0.63114315901E+03  0.12500000000E+03 0.  0.
         25    1    1    2    0    0  0.10091743447E+03  0.14803221732E+03  0.14803860659E+04  0.14964176456E+04  0.12500000000E+03 0.  0.
</event>
<event>
 5    0  0.5728184E-005  0.2498122E+03  0.7546771E-02  0.1113424E+00
         21   -1    0    0  502  501  0.00000000000E+00  0.00000000000E+00  0.19472027974E+04  0.19472027974E+04  0.00000000000E+00 0. -1.
         21   -1    0    0  501  502 -0.00000000000E+00 -0.00000000000E+00 -0.32049128878E+02  0.32049128878E+02  0.00000000000E+00 0. -1.
         25    1    1    2    0    0 -0.20407937275E+02 -0.37988992832E+02  0.40627036910E+03  0.42724730577E+03  0.12500000000E+03 0.  0.
         25    1    1    2    0    0  0.55556186622E+00 -0.10194710829E+03  0.90726011386E+03  0.92148762104E+03  0.12500000000E+03 0.  0.
         25    1    1    2    0    0  0.19852375409E+02  0.13993610112E+03  0.60162318556E+03  0.63051699946E+03  0.12500000000E+03 0.  0.
</event>
<event>
 5    0  0.5728184E-005  0.3380247E+03  0.7546771E-02  0.1067640E+00
         21   -1    0    0  502  501  0.00000000000E+00  0.00000000000E+00  0.44952395083E+03  0.44952395083E+03  0.00000000000E+00 0.  1.
         21   -1    0    0  501  502 -0.00000000000E+00 -0.00000000000E+00 -0.25418148495E+03  0.25418148495E+03  0.00000000000E+00 0.  1.
         25    1    1    2    0    0  0.37235622944E+02  0.97220448423E+00 -0.19776730056E+01  0.13044672471E+03  0.12500000000E+03 0.  0.
         25    1    1    2    0    0 -0.19329464751E+03  0.71810552372E+02  0.25685326512E+03  0.35230409590E+03  0.12500000000E+03 0.  0.
         25    1    1    2    0    0  0.15605902456E+03 -0.72782756856E+02 -0.59533126240E+02  0.22095461516E+03  0.12500000000E+03 0.  0.
</event>
<event>
 5    0  0.5728184E-005  0.3043171E+03  0.7546771E-02  0.1083102E+00
         21   -1    0    0  502  501  0.00000000000E+00  0.00000000000E+00  0.11554313244E+04  0.11554313244E+04  0.00000000000E+00 0.  1.
         21   -1    0    0  501  502 -0.00000000000E+00 -0.00000000000E+00 -0.80150910914E+02  0.80150910914E+02  0.00000000000E+00 0.  1.
         25    1    1    2    0    0  0.43653034843E+02 -0.82959389654E+02  0.37064062186E+03  0.40222794328E+03  0.12500000000E+03 0.  0.
         25    1    1    2    0    0 -0.11833485177E+03  0.14582817127E+03  0.19037922142E+03  0.29519187087E+03  0.12500000000E+03 0.  0.
         25    1    1    2    0    0  0.74681816932E+02 -0.62868781618E+02  0.51426057025E+03  0.53816242121E+03  0.12500000000E+03 0.  0.
</event>
<event>
 5    0  0.5728184E-005  0.3239383E+03  0.7546771E-02  0.1073851E+00
         21   -1    0    0  502  501  0.00000000000E+00  0.00000000000E+00  0.88107378752E+02  0.88107378752E+02  0.00000000000E+00 0. -1.
         21   -1    0    0  501  502 -0.00000000000E+00 -0.00000000000E+00 -0.11910017763E+04  0.11910017763E+04  0.00000000000E+00 0. -1.
         25    1    1    2    0    0 -0.95287674427E+02 -0.10632708915E+03 -0.22335445745E+03  0.29308258981E+03  0.12500000000E+03 0.  0.
         25    1    1    2    0    0  0.11413325475E+03  0.14595065260E+02 -0.11372171812E+03  0.20444325604E+03  0.12500000000E+03 0.  0.
         25    1    1    2    0    0 -0.18845580324E+02  0.91732023893E+02 -0.76581822202E+03  0.78158330924E+03  0.12500000000E+03 0.  0.
</event>
<event>
 5    0  0.5728184E-005  0.3992012E+03  0.7546771E-02  0.1044057E+00
         21   -1    0    0  502  501  0.00000000000E+00  0.00000000000E+00  0.24684893036E+03  0.24684893036E+03  0.00000000000E+00 0.  1.
         21   -1    0    0  501  502 -0.00000000000E+00 -0.00000000000E+00 -0.64558340752E+03  0.64558340752E+03  0.00000000000E+00 0.  1.
         25    1    1    2    0    0  0.45372326236E+02  0.29035741152E+02 -0.32037727113E+03  0.34809239881E+03  0.12500000000E+03 0.  0.
         25    1    1    2    0    0 -0.15688085013E+03 -0.11096019798E+03 -0.21412165304E+03  0.31368272023E+03  0.12500000000E+03 0.  0.
         25    1    1    2    0    0  0.11150852389E+03  0.81924456826E+02  0.13576444701E+03  0.23065721883E+03  0.12500000000E+03 0.  0.
</event>
<event>
 5    0  0.5728184E-005  0.3646340E+03  0.7546771E-02  0.1056764E+00
         21   -1    0    0  502  501  0.00000000000E+00  0.00000000000E+00  0.91160210172E+03  0.91160210172E+03  0.00000000000E+00 0.  1.
         21   -1    0    0  501  502 -0.00000000000E+00 -0.00000000000E+00 -0.14585086516E+03  0.14585086516E+03  0.00000000000E+00 0.  1.
         25    1    1    2    0    0 -0.36390239589E+02 -0.36135983374E+02  0.77844769839E+02  0.15593225139E+03  0.12500000000E+03 0.  0.
         25    1    1    2    0    0 -0.19210959434E+03 -0.11481942640E+03  0.44971144100E+03  0.51764367772E+03  0.12500000000E+03 0.  0.
         25    1    1    2    0    0  0.22849983393E+03  0.15095540977E+03  0.23819502572E+03  0.38387703777E+03  0.12500000000E+03 0.  0.
</event>
<event>
 5    0  0.5728184E-005  0.2746837E+03  0.7546771E-02  0.1098629E+00
         21   -1    0    0  502  501  0.00000000000E+00  0.00000000000E+00  0.44218911112E+03  0.44218911112E+03  0.00000000000E+00 0. -1.
         21   -1    0    0  501  502 -0.00000000000E+00 -0.00000000000E+00 -0.17063092975E+03  0.17063092975E+03  0.00000000000E+00 0. -1.
         25    1    1    2    0    0  0.34973261996E+02 -0.77734877282E+02  0.86348255519E+01  0.15154339449E+03  0.12500000000E+03 0.  0.
         25    1    1    2    0    0 -0.36860690828E+02  0.17588043489E+03  0.13431525756E+03  0.25682333679E+03  0.12500000000E+03 0.  0.
         25    1    1    2    0    0  0.18874288321E+01 -0.98145557606E+02  0.12860809827E+03  0.20445330960E+03  0.12500000000E+03 0.  0.
</event>
<event>
 5    0  0.5728184E-005  0.2538678E+03  0.7546771E-02  0.1110885E+00
         21   -1    0    0  502  501  0.00000000000E+00  0.00000000000E+00  0.18906251579E+03  0.18906251579E+03  0.00000000000E+00 0. -1.
         21   -1    0    0  501  502 -0.00000000000E+00 -0.00000000000E+00 -0.34088660575E+03  0.34088660575E+03  0.00000000000E+00 0. -1.
         25    1    1    2    0    0  0.42662165977E+01 -0.44755937138E+02 -0.19746089022E+03  0.23798549888E+03  0.12500000000E+03 0.  0.
         25    1    1    2    0    0  0.31027457053E+02 -0.28979648143E+02 -0.10441607462E+02  0.13242564051E+03  0.12500000000E+03 0.  0.
         25    1    1    2    0    0 -0.35293673650E+02  0.73735585281E+02  0.56078407719E+02  0.15953798215E+03  0.12500000000E+03 0.  0.
</event>
<event>
 5    0  0.5728184E-005  0.3465966E+03  0.7546771E-02  0.1064021E+00
         21   -1    0    0  502  501  0.00000000000E+00  0.00000000000E+00  0.58548597683E+03  0.58548597683E+03  0.00000000000E+00 0.  1.
         21   -1    0    0  501  502 -0.00000000000E+00 -0.00000000000E+00 -0.20517859590E+03  0.20517859590E+03  0.00000000000E+00 0.  1.
         25    1    1    2    0    0 -0.23920695081E+03  0.42302552095E+01  0.33071122362E+03  0.42688730808E+03  0.12500000000E+03 0.  0.
         25    1    1    2    0    0  0.55218967704E+02  0.10898973203E+02  0.26634673068E+02  0.13965073512E+03  0.12500000000E+03 0.  0.
         25    1    1    2    0    0  0.18398798311E+03 -0.15129228412E+02  0.22961484241E+02  0.22412652953E+03  0.12500000000E+03 0.  0.
</event>
<event>
 5    0  0.5728184E-005  0.4085520E+03  0.7546771E-02  0.1040858E+00
         21   -1    0    0  502  501  0.00000000000E+00  0.00000000000E+00  0.13038727099E+03  0.13038727099E+03  0.00000000000E+00 0. -1.
         21   -1    0    0  501  502 -0.00000000000E+00 -0.00000000000E+00 -0.12801457617E+04  0.12801457617E+04  0.00000000000E+00 0.  1.
         25    1    1    2    0    0 -0.10644560095E+03 -0.28083696837E+03 -0.32160014664E+03  0.45744040386E+03  0.12500000000E+03 0.  0.
         25    1    1    2    0    0  0.10245327245E+03  0.19849164376E+03 -0.25736001792E+03  0.36298041890E+03  0.12500000000E+03 0.  0.
         25    1    1    2    0    0  0.39923285070E+01  0.82345324610E+02 -0.57079832615E+03  0.59011220993E+03  0.12500000000E+03 0.  0.
</event>
<event>
 5    0  0.5728184E-005  0.2088328E+03  0.7546771E-02  0.1142494E+00
         21   -1    0    0  502  501  0.00000000000E+00  0.00000000000E+00  0.16365100229E+03  0.16365100229E+03  0.00000000000E+00 0. -1.
         21   -1    0    0  501  502 -0.00000000000E+00 -0.00000000000E+00 -0.26648876129E+03  0.26648876129E+03  0.00000000000E+00 0. -1.
         25    1    1    2    0    0  0.70951210785E+02  0.51806083060E+01 -0.29582660429E+01  0.14385640185E+03  0.12500000000E+03 0.  0.
         25    1    1    2    0    0 -0.26290843033E+02 -0.20436846333E+02 -0.77532394113E+02  0.15081493710E+03  0.12500000000E+03 0.  0.
         25    1    1    2    0    0 -0.44660367752E+02  0.15256238027E+02 -0.22347098839E+02  0.13546842463E+03  0.12500000000E+03 0.  0.
</event>
<event>
 5    0  0.6014490E-005  0.3196088E+03  0.7546771E-02  0.1075829E+00
         21   -1    0    0  502  501  0.00000000000E+00  0.00000000000E+00  0.26925548716E+03  0.26925548716E+03  0.00000000000E+00 0.  1.
         21   -1    0    0  501  502 -0.00000000000E+00 -0.00000000000E+00 -0.37937858972E+03  0.37937858972E+03  0.00000000000E+00 0.  1.
         25    1    1    2    0    0  0.13805074353E+03 -0.17824904989E+03 -0.70762056929E+02  0.26732564463E+03  0.12500000000E+03 0.  0.
         25    1    1    2    0    0 -0.13860394129E+03  0.50349818251E+02 -0.57148995480E+02  0.20158661767E+03  0.12500000000E+03 0.  0.
         25    1    1    2    0    0  0.55319775502E+00  0.12789923164E+03  0.17787949847E+02  0.17972181459E+03  0.12500000000E+03 0.  0.
</event>
<event>
 5    0  0.5728184E-005  0.3109116E+03  0.7546771E-02  0.1079910E+00
         21   -1    0    0  502  501  0.00000000000E+00  0.00000000000E+00  0.36655220384E+03  0.36655220384E+03  0.00000000000E+00 0.  1.
         21   -1    0    0  501  502 -0.00000000000E+00 -0.00000000000E+00 -0.26371692188E+03  0.26371692188E+03  0.00000000000E+00 0.  1.
         25    1    1    2    0    0  0.86836042212E+02  0.15289658834E+03  0.15443921588E+03  0.26531931018E+03  0.12500000000E+03 0.  0.
         25    1    1    2    0    0 -0.13868230424E+03 -0.90938969978E+02 -0.59126653480E+02  0.21592507710E+03  0.12500000000E+03 0.  0.
         25    1    1    2    0    0  0.51846262023E+02 -0.61957618358E+02  0.75227195643E+01  0.14902473844E+03  0.12500000000E+03 0.  0.
</event>
<event>
 5    0  0.5728184E-005  0.3666348E+03  0.7546771E-02  0.1055987E+00
         21   -1    0    0  502  501  0.00000000000E+00  0.00000000000E+00  0.44003224744E+03  0.44003224744E+03  0.00000000000E+00 0.  1.
         21   -1    0    0  501  502 -0.00000000000E+00 -0.00000000000E+00 -0.30548000470E+03  0.30548000470E+03  0.00000000000E+00 0.  1.
         25    1    1    2    0    0  0.15536277112E+03  0.13614085340E+03  0.55892456175E+02  0.24783238140E+03  0.12500000000E+03 0.  0.
         25    1    1    2    0    0 -0.14041150880E+03 -0.23669156439E+03 -0.29384806452E+02  0.30368858277E+03  0.12500000000E+03 0.  0.
         25    1    1    2    0    0 -0.14951262322E+02  0.10055071099E+03  0.10804459302E+03  0.19399128796E+03  0.12500000000E+03 0.  0.
</event>
<event>
 5    0  0.5728184E-005  0.2518417E+03  0.7546771E-02  0.1112146E+00
         21   -1    0    0  502  501  0.00000000000E+00  0.00000000000E+00  0.10378916428E+04  0.10378916428E+04  0.00000000000E+00 0. -1.
         21   -1    0    0  501  502 -0.00000000000E+00 -0.00000000000E+00 -0.61108751014E+02  0.61108751014E+02  0.00000000000E+00 0. -1.
         25    1    1    2    0    0 -0.44249830330E+02  0.78111768775E+02  0.58136007755E+03  0.60138509765E+03  0.12500000000E+03 0.  0.
         25    1    1    2    0    0  0.78057154612E+02 -0.17345012735E+02  0.13556120618E+03  0.20098659028E+03  0.12500000000E+03 0.  0.
         25    1    1    2    0    0 -0.33807324282E+02 -0.60766756040E+02  0.25986160810E+03  0.29662870592E+03  0.12500000000E+03 0.  0.
</event>
<event>
 5    0  0.5728184E-005  0.2759261E+03  0.7546771E-02  0.1097935E+00
         21   -1    0    0  502  501  0.00000000000E+00  0.00000000000E+00  0.70934662015E+02  0.70934662015E+02  0.00000000000E+00 0.  1.
         21   -1    0    0  501  502 -0.00000000000E+00 -0.00000000000E+00 -0.10733143221E+04  0.10733143221E+04  0.00000000000E+00 0.  1.
         25    1    1    2    0    0  0.12758613849E+03  0.66500290589E+02 -0.25785508580E+03  0.32064740239E+03  0.12500000000E+03 0.  0.
         25    1    1    2    0    0 -0.14238428860E+03  0.27089419770E+02 -0.46913187150E+03  0.50667231537E+03  0.12500000000E+03 0.  0.
         25    1    1    2    0    0  0.14798150111E+02 -0.93589710358E+02 -0.27539270283E+03  0.31692926641E+03  0.12500000000E+03 0.  0.
</event>
<event>
 5    0  0.5728184E-005  0.2998322E+03  0.7546771E-02  0.1085325E+00
         21   -1    0    0  502  501  0.00000000000E+00  0.00000000000E+00  0.96962285431E+03  0.96962285431E+03  0.00000000000E+00 0.  1.
         21   -1    0    0  501  502 -0.00000000000E+00 -0.00000000000E+00 -0.92715783388E+02  0.92715783388E+02  0.00000000000E+00 0.  1.
         25    1    1    2    0    0 -0.18066505835E+03  0.65764556861E+02  0.43372563602E+03  0.49061977904E+03  0.12500000000E+03 0.  0.
         25    1    1    2    0    0  0.72362602818E+02 -0.11600866603E+03  0.19194920706E+03  0.26676554307E+03  0.12500000000E+03 0.  0.
         25    1    1    2    0    0  0.10830245553E+03  0.50244109164E+02  0.25123222785E+03  0.30495331559E+03  0.12500000000E+03 0.  0.
</event>
<event>
 5    0  0.5728184E-005  0.2672446E+03  0.7546771E-02  0.1102867E+00
         21   -1    0    0  502  501  0.00000000000E+00  0.00000000000E+00  0.52743132023E+02  0.52743132023E+02  0.00000000000E+00 0. -1.
         21   -1    0    0  501  502 -0.00000000000E+00 -0.00000000000E+00 -0.13541041235E+04  0.13541041235E+04  0.00000000000E+00 0. -1.
         25    1    1    2    0    0  0.26643487313E+02  0.57625625113E+01 -0.41239962570E+03  0.43178876065E+03  0.12500000000E+03 0.  0.
         25    1    1    2    0    0 -0.91328120050E+02 -0.81651869044E+02 -0.72581054280E+03  0.74661489221E+03  0.12500000000E+03 0.  0.
         25    1    1    2    0    0  0.64684632737E+02  0.75889306533E+02 -0.16315082295E+03  0.22844360264E+03  0.12500000000E+03 0.  0.
</event>
<event>
 5    0  0.5728184E-005  0.4319197E+03  0.7546771E-02  0.1033255E+00
         21   -1    0    0  502  501  0.00000000000E+00  0.00000000000E+00  0.35266367995E+03  0.35266367995E+03  0.00000000000E+00 0.  1.
         21   -1    0    0  501  502 -0.00000000000E+00 -0.00000000000E+00 -0.52898727403E+03  0.52898727403E+03  0.00000000000E+00 0.  1.
         25    1    1    2    0    0  0.34679093274E+03  0.13495540471E+01 -0.12899388253E+03  0.39055114141E+03  0.12500000000E+03 0.  0.
         25    1    1    2    0    0 -0.39938885676E+02 -0.24254387944E+02 -0.82857477586E+02  0.15707880670E+03  0.12500000000E+03 0.  0.
         25    1    1    2    0    0 -0.30685204706E+03  0.22904833897E+02  0.35527766033E+02  0.33402100587E+03  0.12500000000E+03 0.  0.
</event>
<event>
 5    0  0.5728184E-005  0.4636078E+03  0.7546771E-02  0.1023740E+00
         21   -1    0    0  502  501  0.00000000000E+00  0.00000000000E+00  0.16283478804E+04  0.16283478804E+04  0.00000000000E+00 0. -1.
         21   -1    0    0  501  502 -0.00000000000E+00 -0.00000000000E+00 -0.13199401029E+03  0.13199401029E+03  0.00000000000E+00 0. -1.
         25    1    1    2    0    0  0.12788110383E+03 -0.41740442474E+02  0.94552165559E+02  0.20654528139E+03  0.12500000000E+03 0.  0.
         25    1    1    2    0    0 -0.18154030097E+03  0.28314856800E+03  0.53836972936E+03  0.64699069385E+03  0.12500000000E+03 0.  0.
         25    1    1    2    0    0  0.53659197142E+02 -0.24140812553E+03  0.86343197522E+03  0.90680591547E+03  0.12500000000E+03 0.  0.
</event>
<event>
 5    0  0.5728184E-005  0.3241775E+03  0.7546771E-02  0.1073743E+00
         21   -1    0    0  502  501  0.00000000000E+00  0.00000000000E+00  0.37447397264E+03  0.37447397264E+03  0.00000000000E+00 0.  1.
         21   -1    0    0  501  502 -0.00000000000E+00 -0.00000000000E+00 -0.28063643581E+03  0.28063643581E+03  0.00000000000E+00 0.  1.
         25    1    1    2    0    0  0.91728661674E+02 -0.10675174515E+03  0.92602742671E+01  0.18846971944E+03  0.12500000000E+03 0.  0.
         25    1    1    2    0    0  0.12481235485E+02 -0.12367792871E+03  0.21728361222E+02  0.17762075603E+03  0.12500000000E+03 0.  0.
         25    1    1    2    0    0 -0.10420989716E+03  0.23042967386E+03  0.62848901349E+02  0.28901993299E+03  0.12500000000E+03 0.  0.
</event>
<event>
 5    0  0.5728184E-005  0.3218599E+03  0.7546771E-02  0.1074797E+00
         21   -1    0    0  502  501  0.00000000000E+00  0.00000000000E+00  0.29808433551E+03  0.29808433551E+03  0.00000000000E+00 0.  1.
         21   -1    0    0  501  502 -0.00000000000E+00 -0.00000000000E+00 -0.34753175211E+03  0.34753175211E+03  0.00000000000E+00 0.  1.
         25    1    1    2    0    0  0.22820247837E+02 -0.13331529594E+03 -0.64233829579E+02  0.19505054911E+03  0.12500000000E+03 0.  0.
         25    1    1    2    0    0  0.41065611635E+01 -0.85130243605E+02  0.10242924599E+03  0.18270405758E+03  0.12500000000E+03 0.  0.
         25    1    1    2    0    0 -0.26926809000E+02  0.21844553955E+03 -0.87642833016E+02  0.26786148094E+03  0.12500000000E+03 0.  0.
</event>
<event>
 5    0  0.5728184E-005  0.2868724E+03  0.7546771E-02  0.1091994E+00
         21   -1    0    0  502  501  0.00000000000E+00  0.00000000000E+00  0.14274623029E+04  0.14274623029E+04  0.00000000000E+00 0.  1.
         21   -1    0    0  501  502 -0.00000000000E+00 -0.00000000000E+00 -0.57651782674E+02  0.57651782674E+02  0.00000000000E+00 0.  1.
         25    1    1    2    0    0 -0.94044145168E+02  0.71137625599E+01  0.16780081557E+03  0.22951475021E+03  0.12500000000E+03 0.  0.
         25    1    1    2    0    0  0.17372472165E+03  0.17894860132E+01  0.68132114354E+03  0.71414773108E+03  0.12500000000E+03 0.  0.
         25    1    1    2    0    0 -0.79680576482E+02 -0.89032485731E+01  0.52068856111E+03  0.54145160428E+03  0.12500000000E+03 0.  0.
</event>
<event>
 5    0  0.5728184E-005  0.3691367E+03  0.7546771E-02  0.1055024E+00
         21   -1    0    0  502  501  0.00000000000E+00  0.00000000000E+00  0.58093395060E+03  0.58093395060E+03  0.00000000000E+00 0.  1.
         21   -1    0    0  501  502 -0.00000000000E+00 -0.00000000000E+00 -0.23455661598E+03  0.23455661598E+03  0.00000000000E+00 0.  1.
         25    1    1    2    0    0  0.75831689838E+02  0.31296175311E+02  0.17485625057E+03  0.23006434782E+03  0.12500000000E+03 0.  0.
         25    1    1    2    0    0 -0.36091151155E+02 -0.24193185819E+03  0.19396739175E+03  0.33627658892E+03  0.12500000000E+03 0.  0.
         25    1    1    2    0    0 -0.39740538683E+02  0.21063568288E+03 -0.22446307699E+02  0.24914962983E+03  0.12500000000E+03 0.  0.
</event>
<event>
 5    0  0.5728184E-005  0.3151413E+03  0.7546771E-02  0.1077907E+00
         21   -1    0    0  502  501  0.00000000000E+00  0.00000000000E+00  0.10323455706E+03  0.10323455706E+03  0.00000000000E+00 0. -1.
         21   -1    0    0  501  502 -0.00000000000E+00 -0.00000000000E+00 -0.96202305310E+03  0.96202305310E+03  0.00000000000E+00 0. -1.
         25    1    1    2    0    0 -0.33133214390E+02 -0.66940904262E+02 -0.32863678186E+02  0.14927798198E+03  0.12500000000E+03 0.  0.
         25    1    1    2    0    0  0.12159909686E+03  0.67438182593E+02 -0.20942915843E+03  0.28074867983E+03  0.12500000000E+03 0.  0.
         25    1    1    2    0    0 -0.88465882468E+02 -0.49727833033E+00 -0.61649565943E+03  0.63523094835E+03  0.12500000000E+03 0.  0.
</event>
<event>
 5    0  0.5728184E-005  0.2764781E+03  0.7546771E-02  0.1097628E+00
         21   -1    0    0  502  501  0.00000000000E+00  0.00000000000E+00  0.23419418437E+03  0.23419418437E+03  0.00000000000E+00 0.  1.
         21   -1    0    0  501  502 -0.00000000000E+00 -0.00000000000E+00 -0.32639637666E+03  0.32639637666E+03  0.00000000000E+00 0.  1.
         25    1    1    2    0    0  0.26266582989E+01 -0.20742993796E+02 -0.10887527612E+03  0.16708080942E+03  0.12500000000E+03 0.  0.
         25    1    1    2    0    0 -0.42426391025E+02 -0.13517154066E+03  0.17541767993E+02  0.18974735225E+03  0.12500000000E+03 0.  0.
         25    1    1    2    0    0  0.39799732726E+02  0.15591453446E+03 -0.86868416645E+00  0.20376239936E+03  0.12500000000E+03 0.  0.
</event>
<event>
 5    0  0.5728184E-005  0.3601473E+03  0.7546771E-02  0.1058526E+00
         21   -1    0    0  502  501  0.00000000000E+00  0.00000000000E+00  0.10480650110E+04  0.10480650110E+04  0.00000000000E+00 0. -1.
         21   -1    0    0  501  502 -0.00000000000E+00 -0.00000000000E+00 -0.12375764432E+03  0.12375764432E+03  0.00000000000E+00 0. -1.
         25    1    1    2    0    0 -0.83272886480E+02 -0.44572445624E+01  0.71886681468E+03  0.73440366141E+03  0.12500000000E+03 0.  0.
         25    1    1    2    0    0 -0.67780830001E+02  0.92937949579E+02  0.73663531700E+02  0.18515674249E+03  0.12500000000E+03 0.  0.
         25    1    1    2    0    0  0.15105371648E+03 -0.88480705017E+02  0.13177702034E+03  0.25226225146E+03  0.12500000000E+03 0.  0.
</event>
<event>
 5    0  0.5728184E-005  0.3567856E+03  0.7546771E-02  0.1059864E+00
         21   -1    0    0  502  501  0.00000000000E+00  0.00000000000E+00  0.25007981416E+03  0.25007981416E+03  0.00000000000E+00 0. -1.
         21   -1    0    0  501  502 -0.00000000000E+00 -0.00000000000E+00 -0.50902120830E+03  0.50902120830E+03  0.00000000000E+00 0. -1.
         25    1    1    2    0    0 -0.10383443907E+03  0.12262339595E+02  0.11084968418E+03  0.19709035540E+03  0.12500000000E+03 0.  0.
         25    1    1    2    0    0  0.68874596804E+01  0.11362568453E+03 -0.30672808163E+03  0.35023613369E+03  0.12500000000E+03 0.  0.
         25    1    1    2    0    0  0.96946979392E+02 -0.12588802412E+03 -0.63062996687E+02  0.21177453336E+03  0.12500000000E+03 0.  0.
</event>
<event>
 5    0  0.5728184E-005  0.2558116E+03  0.7546771E-02  0.1109686E+00
         21   -1    0    0  502  501  0.00000000000E+00  0.00000000000E+00  0.11449710010E+03  0.11449710010E+03  0.00000000000E+00 0. -1.
         21   -1    0    0  501  502 -0.00000000000E+00 -0.00000000000E+00 -0.57153922163E+03  0.57153922163E+03  0.00000000000E+00 0. -1.
         25    1    1    2    0    0 -0.19818680315E+02 -0.11176740367E+03 -0.19695521389E+03  0.25942453409E+03  0.12500000000E+03 0.  0.
         25    1    1    2    0    0 -0.49485634833E+02  0.13277981717E+03 -0.18219845644E+03  0.26248921012E+03  0.12500000000E+03 0.  0.
         25    1    1    2    0    0  0.69304315147E+02 -0.21012413503E+02 -0.77888451202E+02  0.16412257751E+03  0.12500000000E+03 0.  0.
</event>
<event>
 5    0  0.5728184E-005  0.3147360E+03  0.7546771E-02  0.1078098E+00
         21   -1    0    0  502  501  0.00000000000E+00  0.00000000000E+00  0.14325558303E+04  0.14325558303E+04  0.00000000000E+00 0. -1.
         21   -1    0    0  501  502 -0.00000000000E+00 -0.00000000000E+00 -0.69148281462E+02  0.69148281462E+02  0.00000000000E+00 0. -1.
         25    1    1    2    0    0 -0.13681977013E+02  0.10370580615E+03  0.93477202142E+03  0.94887608399E+03  0.12500000000E+03 0.  0.
         25    1    1    2    0    0  0.27551101131E+02 -0.16112532187E+03  0.20900988460E+03  0.29330967318E+03  0.12500000000E+03 0.  0.
         25    1    1    2    0    0 -0.13869124118E+02  0.57419515714E+02  0.21962564279E+03  0.25951835457E+03  0.12500000000E+03 0.  0.
</event>
<event>
 5    0  0.5728184E-005  0.2758216E+03  0.7546771E-02  0.1097993E+00
         21   -1    0    0  502  501  0.00000000000E+00  0.00000000000E+00  0.75566974718E+03  0.75566974718E+03  0.00000000000E+00 0. -1.
         21   -1    0    0  501  502 -0.00000000000E+00 -0.00000000000E+00 -0.10067564456E+03  0.10067564456E+03  0.00000000000E+00 0. -1.
         25    1    1    2    0    0  0.63480217263E+02  0.11401617284E+03  0.27225799996E+03  0.32677032331E+03  0.12500000000E+03 0.  0.
         25    1    1    2    0    0  0.61509840547E+02 -0.11065415838E+03  0.25720445216E+03  0.31274100061E+03  0.12500000000E+03 0.  0.
         25    1    1    2    0    0 -0.12499005781E+03 -0.33620144623E+01  0.12553165050E+03  0.21683406782E+03  0.12500000000E+03 0.  0.
</event>
<event>
 5    0  0.5728184E-005  0.3390039E+03  0.7546771E-02  0.1067221E+00
         21   -1    0    0  502  501  0.00000000000E+00  0.00000000000E+00  0.43114168098E+03  0.43114168098E+03  0.00000000000E+00 0. -1.
         21   -1    0    0  501  502 -0.00000000000E+00 -0.00000000000E+00 -0.26655650615E+03  0.26655650615E+03  0.00000000000E+00 0. -1.
         25    1    1    2    0    0 -0.21073267814E+03 -0.80631099831E+02 -0.42321714294E+02  0.26139197271E+03  0.12500000000E+03 0.  0.
         25    1    1    2    0    0  0.12038245795E+02 -0.21120116669E+02  0.54580563787E+02  0.13854608126E+03  0.12500000000E+03 0.  0.
         25    1    1    2    0    0  0.19869443235E+03  0.10175121650E+03  0.15232632534E+03  0.29776013316E+03  0.12500000000E+03 0.  0.
</event>
<event>
 5    0  0.5728184E-005  0.2511183E+03  0.7546771E-02  0.1112600E+00
         21   -1    0    0  502  501  0.00000000000E+00  0.00000000000E+00  0.24028377308E+02  0.24028377308E+02  0.00000000000E+00 0.  1.
         21   -1    0    0  501  502 -0.00000000000E+00 -0.00000000000E+00 -0.26244127147E+04  0.26244127147E+04  0.00000000000E+00 0.  1.
         25    1    1    2    0    0  0.75907083055E+02  0.30754333496E+02 -0.14073498850E+04  0.14152619591E+04  0.12500000000E+03 0.  0.
         25    1    1    2    0    0 -0.14169154077E+02 -0.62503785647E+02 -0.33417508623E+03  0.36249893297E+03  0.12500000000E+03 0.  0.
         25    1    1    2    0    0 -0.61737928978E+02  0.31749452151E+02 -0.85885936616E+03  0.87068019986E+03  0.12500000000E+03 0.  0.
</event>
<event>
 5    0  0.5728184E-005  0.3162409E+03  0.7546771E-02  0.1077392E+00
         21   -1    0    0  502  501  0.00000000000E+00  0.00000000000E+00  0.16933332593E+04  0.16933332593E+04  0.00000000000E+00 0. -1.
         21   -1    0    0  501  502 -0.00000000000E+00 -0.00000000000E+00 -0.59060030146E+02  0.59060030146E+02  0.00000000000E+00 0. -1.
         25    1    1    2    0    0 -0.11735004988E+03 -0.96815039025E+02  0.20378107415E+03  0.28336533340E+03  0.12500000000E+03 0.  0.
         25    1    1    2    0    0  0.29593460797E+02 -0.23385799696E+02  0.41327251234E+03  0.43340724268E+03  0.12500000000E+03 0.  0.
         25    1    1    2    0    0  0.87756589079E+02  0.12020083872E+03  0.10172196427E+04  0.10356207134E+04  0.12500000000E+03 0.  0.
</event>
<event>
 5    0  0.5728184E-005  0.3916306E+03  0.7546771E-02  0.1046717E+00
         21   -1    0    0  502  501  0.00000000000E+00  0.00000000000E+00  0.18155500548E+03  0.18155500548E+03  0.00000000000E+00 0. -1.
         21   -1    0    0  501  502 -0.00000000000E+00 -0.00000000000E+00 -0.84478258747E+03  0.84478258747E+03  0.00000000000E+00 0. -1.
         25    1    1    2    0    0  0.66887302941E+02 -0.46145125470E+01  0.43236177573E+02  0.14828881304E+03  0.12500000000E+03 0.  0.
         25    1    1    2    0    0  0.11368589565E+03 -0.15108071395E+03 -0.46111712357E+03  0.51381306586E+03  0.12500000000E+03 0.  0.
         25    1    1    2    0    0 -0.18057319859E+03  0.15569522650E+03 -0.24534663599E+03  0.36423571406E+03  0.12500000000E+03 0.  0.
</event>
<event>
 5    0  0.5728184E-005  0.3568694E+03  0.7546771E-02  0.1059830E+00
         21   -1    0    0  502  501  0.00000000000E+00  0.00000000000E+00  0.58967154153E+03  0.58967154153E+03  0.00000000000E+00 0.  1.
         21   -1    0    0  501  502 -0.00000000000E+00 -0.00000000000E+00 -0.21597742216E+03  0.21597742216E+03  0.00000000000E+00 0. -1.
         25    1    1    2    0    0  0.10403515243E+03  0.78205665847E+02  0.30216082014E+03  0.35194545081E+03  0.12500000000E+03 0.  0.
         25    1    1    2    0    0 -0.20986497616E+03  0.31987166632E+02  0.70698316886E+02  0.25630009571E+03  0.12500000000E+03 0.  0.
         25    1    1    2    0    0  0.10582982373E+03 -0.11019283248E+03  0.83498233775E+00  0.19740341718E+03  0.12500000000E+03 0.  0.
</event>
<event>
 5    0  0.5728184E-005  0.2057357E+03  0.7546771E-02  0.1144988E+00
         21   -1    0    0  502  501  0.00000000000E+00  0.00000000000E+00  0.17904658468E+04  0.17904658468E+04  0.00000000000E+00 0.  1.
         21   -1    0    0  501  502 -0.00000000000E+00 -0.00000000000E+00 -0.23640320770E+02  0.23640320770E+02  0.00000000000E+00 0.  1.
         25    1    1    2    0    0  0.26051258671E+02  0.46279989877E+02  0.40546804457E+03  0.42760944880E+03  0.12500000000E+03 0.  0.
         25    1    1    2    0    0 -0.13948323738E+01 -0.72474726707E+01  0.78586839417E+03  0.79578175675E+03  0.12500000000E+03 0.  0.
         25    1    1    2    0    0 -0.24656426297E+02 -0.39032517206E+02  0.57548908726E+03  0.59071496199E+03  0.12500000000E+03 0.  0.
</event>
<event>
 5    0  0.5728184E-005  0.2822887E+03  0.7546771E-02  0.1094445E+00
         21   -1    0    0  502  501  0.00000000000E+00  0.00000000000E+00  0.19855597619E+04  0.19855597619E+04  0.00000000000E+00 0. -1.
         21   -1    0    0  501  502 -0.00000000000E+00 -0.00000000000E+00 -0.40133227289E+02  0.40133227289E+02  0.00000000000E+00 0. -1.
         25    1    1    2    0    0  0.13579187047E+03  0.23143752890E+02  0.49127371909E+03  0.52530936833E+03  0.12500000000E+03 0.  0.
         25    1    1    2    0    0 -0.14573081752E+03 -0.83960266653E+02  0.61459150824E+03  0.64933390451E+03  0.12500000000E+03 0.  0.
         25    1    1    2    0    0  0.99389470455E+01  0.60816513764E+02  0.83956130727E+03  0.85104971634E+03  0.12500000000E+03 0.  0.
</event>
<event>
 5    0  0.5728184E-005  0.3359635E+03  0.7546771E-02  0.1068528E+00
         21   -1    0    0  502  501  0.00000000000E+00  0.00000000000E+00  0.14014976327E+04  0.14014976327E+04  0.00000000000E+00 0.  1.
         21   -1    0    0  501  502 -0.00000000000E+00 -0.00000000000E+00 -0.80536309650E+02  0.80536309650E+02  0.00000000000E+00 0.  1.
         25    1    1    2    0    0 -0.71967886312E+01  0.35939104476E+02  0.10912080519E+04  0.10989556067E+04  0.12500000000E+03 0.  0.
         25    1    1    2    0    0  0.48069751160E+02 -0.90185304033E+02  0.96169162806E+02  0.18792976857E+03  0.12500000000E+03 0.  0.
         25    1    1    2    0    0 -0.40872962529E+02  0.54246199557E+02  0.13358410840E+03  0.19514856712E+03  0.12500000000E+03 0.  0.
</event>
<event>
 5    0  0.5728184E-005  0.4973635E+03  0.7546771E-02  0.1014469E+00
         21   -1    0    0  502  501  0.00000000000E+00  0.00000000000E+00  0.30544726383E+03  0.30544726383E+03  0.00000000000E+00 0. -1.
         21   -1    0    0  501  502 -0.00000000000E+00 -0.00000000000E+00 -0.80986293974E+03  0.80986293974E+03  0.00000000000E+00 0. -1.
         25    1    1    2    0    0  0.34332020947E+03  0.27715874127E+03 -0.24757480430E+03  0.52115642356E+03  0.12500000000E+03 0.  0.
         25    1    1    2    0    0 -0.12884382753E+03 -0.33786200859E+02 -0.12953725548E+03  0.22393557069E+03  0.12500000000E+03 0.  0.
         25    1    1    2    0    0 -0.21447638193E+03 -0.24337254041E+03 -0.12730361613E+03  0.37021820932E+03  0.12500000000E+03 0.  0.
</event>
<event>
 5    0  0.5728184E-005  0.2951973E+03  0.7546771E-02  0.1087666E+00
         21   -1    0    0  502  501  0.00000000000E+00  0.00000000000E+00  0.13347276007E+03  0.13347276007E+03  0.00000000000E+00 0. -1.
         21   -1    0    0  501  502 -0.00000000000E+00 -0.00000000000E+00 -0.65287812160E+03  0.65287812160E+03  0.00000000000E+00 0. -1.
         25    1    1    2    0    0 -0.10917153255E+01  0.21339126493E+02 -0.29140060914E+02  0.13011799765E+03  0.12500000000E+03 0.  0.
         25    1    1    2    0    0  0.15214472882E+03 -0.59454191396E+02 -0.12717092857E+03  0.24182693079E+03  0.12500000000E+03 0.  0.
         25    1    1    2    0    0 -0.15105301350E+03  0.38115064903E+02 -0.36309437205E+03  0.41440595323E+03  0.12500000000E+03 0.  0.
</event>
<event>
 5    0  0.5728184E-005  0.3109563E+03  0.7546771E-02  0.1079888E+00
         21   -1    0    0  502  501  0.00000000000E+00  0.00000000000E+00  0.31457853334E+03  0.31457853334E+03  0.00000000000E+00 0. -1.
         21   -1    0    0  501  502 -0.00000000000E+00 -0.00000000000E+00 -0.30737578929E+03  0.30737578929E+03  0.00000000000E+00 0. -1.
         25    1    1    2    0    0  0.57148198137E+02 -0.55622448663E+02 -0.18135378999E+03  0.23425193807E+03  0.12500000000E+03 0.  0.
         25    1    1    2    0    0  0.62930753786E+01  0.50283135467E+02 -0.20001638105E+02  0.13635637879E+03  0.12500000000E+03 0.  0.
         25    1    1    2    0    0 -0.63441273516E+02  0.53393131961E+01  0.20855817214E+03  0.25134600577E+03  0.12500000000E+03 0.  0.
</event>
<event>
 5    0  0.5728184E-005  0.3890412E+03  0.7546771E-02  0.1047642E+00
         21   -1    0    0  502  501  0.00000000000E+00  0.00000000000E+00  0.11844385347E+04  0.11844385347E+04  0.00000000000E+00 0.  1.
         21   -1    0    0  501  502 -0.00000000000E+00 -0.00000000000E+00 -0.12778465271E+03  0.12778465271E+03  0.00000000000E+00 0.  1.
         25    1    1    2    0    0  0.23828193155E+03  0.82404411232E+02  0.21174832322E+03  0.35218051945E+03  0.12500000000E+03 0.  0.
         25    1    1    2    0    0 -0.26104963777E+03  0.19764559162E+02  0.58980306049E+03  0.65729004354E+03  0.12500000000E+03 0.  0.
         25    1    1    2    0    0  0.22767706217E+02 -0.10216897039E+03  0.25510249830E+03  0.30275262442E+03  0.12500000000E+03 0.  0.
</event>
<event>
 5    0  0.5728184E-005  0.3889450E+03  0.7546771E-02  0.1047676E+00
         21   -1    0    0  502  501  0.00000000000E+00  0.00000000000E+00  0.95428411883E+02  0.95428411883E+02  0.00000000000E+00 0. -1.
         21   -1    0    0  501  502 -0.00000000000E+00 -0.00000000000E+00 -0.15852535358E+04  0.15852535358E+04  0.00000000000E+00 0. -1.
         25    1    1    2    0    0  0.20085886809E+02  0.10222387284E+02 -0.82659425740E+03  0.83629600406E+03  0.12500000000E+03 0.  0.
         25    1    1    2    0    0 -0.55971955867E+02  0.94307337374E+02 -0.60962382318E+01  0.16639981324E+03  0.12500000000E+03 0.  0.
         25    1    1    2    0    0  0.35886069058E+02 -0.10452972466E+03 -0.65713462825E+03  0.67798613034E+03  0.12500000000E+03 0.  0.
</event>
<event>
 5    0  0.5728184E-005  0.4674377E+03  0.7546771E-02  0.1022646E+00
         21   -1    0    0  502  501  0.00000000000E+00  0.00000000000E+00  0.23946956791E+03  0.23946956791E+03  0.00000000000E+00 0. -1.
         21   -1    0    0  501  502 -0.00000000000E+00 -0.00000000000E+00 -0.91242477663E+03  0.91242477663E+03  0.00000000000E+00 0. -1.
         25    1    1    2    0    0  0.15697612395E+03  0.92530209570E+02  0.84826524849E+02  0.23669364691E+03  0.12500000000E+03 0.  0.
         25    1    1    2    0    0 -0.34529053221E+01 -0.12756626669E+03 -0.67420613946E+03  0.69746970790E+03  0.12500000000E+03 0.  0.
         25    1    1    2    0    0 -0.15352321862E+03  0.35036057124E+02 -0.83575594108E+02  0.21773098972E+03  0.12500000000E+03 0.  0.
</event>
<event>
 5    0  0.5728184E-005  0.3447181E+03  0.7546771E-02  0.1064804E+00
         21   -1    0    0  502  501  0.00000000000E+00  0.00000000000E+00  0.81691431020E+03  0.81691431020E+03  0.00000000000E+00 0.  1.
         21   -1    0    0  501  502 -0.00000000000E+00 -0.00000000000E+00 -0.14546269512E+03  0.14546269512E+03  0.00000000000E+00 0.  1.
         25    1    1    2    0    0 -0.61470317837E+02 -0.22060147084E+03  0.14994159717E+03  0.30091708405E+03  0.12500000000E+03 0.  0.
         25    1    1    2    0    0  0.10203564185E+03  0.19893550588E+03  0.42774001009E+03  0.49857108213E+03  0.12500000000E+03 0.  0.
         25    1    1    2    0    0 -0.40565324009E+02  0.21665964966E+02  0.93770007825E+02  0.16288883914E+03  0.12500000000E+03 0.  0.
</event>
<event>
 5    0  0.5728184E-005  0.3156064E+03  0.7546771E-02  0.1077689E+00
         21   -1    0    0  502  501  0.00000000000E+00  0.00000000000E+00  0.12458080843E+04  0.12458080843E+04  0.00000000000E+00 0.  1.
         21   -1    0    0  501  502 -0.00000000000E+00 -0.00000000000E+00 -0.79954041132E+02  0.79954041132E+02  0.00000000000E+00 0.  1.
         25    1    1    2    0    0 -0.43466945735E+02 -0.42233746009E+01  0.34442397964E+03  0.36899876696E+03  0.12500000000E+03 0.  0.
         25    1    1    2    0    0  0.84879889771E+02 -0.16973584285E+03  0.61801210194E+03  0.65846701526E+03  0.12500000000E+03 0.  0.
         25    1    1    2    0    0 -0.41412944036E+02  0.17395921745E+03  0.20341796153E+03  0.29829634316E+03  0.12500000000E+03 0.  0.
</event>
<event>
 5    0  0.5728184E-005  0.2190808E+03  0.7546771E-02  0.1134570E+00
         21   -1    0    0  502  501  0.00000000000E+00  0.00000000000E+00  0.53391116119E+03  0.53391116119E+03  0.00000000000E+00 0. -1.
         21   -1    0    0  501  502 -0.00000000000E+00 -0.00000000000E+00 -0.89895847693E+02  0.89895847693E+02  0.00000000000E+00 0. -1.
         25    1    1    2    0    0  0.41478193298E+02 -0.20179563008E+02  0.27597175475E+03  0.30645238570E+03  0.12500000000E+03 0.  0.
         25    1    1    2    0    0 -0.47443766371E+02  0.41796277865E+02  0.68151422989E+02  0.15578015363E+03  0.12500000000E+03 0.  0.
         25    1    1    2    0    0  0.59655730730E+01 -0.21616714857E+02  0.99892135758E+02  0.16157446955E+03  0.12500000000E+03 0.  0.
</event>
<event>
 5    0  0.5728184E-005  0.3839193E+03  0.7546771E-02  0.1049495E+00
         21   -1    0    0  502  501  0.00000000000E+00  0.00000000000E+00  0.90479194823E+03  0.90479194823E+03  0.00000000000E+00 0. -1.
         21   -1    0    0  501  502 -0.00000000000E+00 -0.00000000000E+00 -0.16290379387E+03  0.16290379387E+03  0.00000000000E+00 0. -1.
         25    1    1    2    0    0  0.18405626573E+03  0.19998834071E+03  0.42273389137E+03  0.51788124921E+03  0.12500000000E+03 0.  0.
         25    1    1    2    0    0 -0.15221554027E+03 -0.15454898805E+01  0.21392661430E+03  0.29079469655E+03  0.12500000000E+03 0.  0.
         25    1    1    2    0    0 -0.31840725467E+02 -0.19844285083E+03  0.10522764870E+03  0.25901979633E+03  0.12500000000E+03 0.  0.
</event>
<event>
 5    0  0.5728184E-005  0.2723020E+03  0.7546771E-02  0.1099969E+00
         21   -1    0    0  502  501  0.00000000000E+00  0.00000000000E+00  0.12060358035E+03  0.12060358035E+03  0.00000000000E+00 0.  1.
         21   -1    0    0  501  502 -0.00000000000E+00 -0.00000000000E+00 -0.61481092797E+03  0.61481092797E+03  0.00000000000E+00 0.  1.
         25    1    1    2    0    0  0.74867198379E+02 -0.44222568362E+02 -0.13813498618E+03  0.20558941450E+03  0.12500000000E+03 0.  0.
         25    1    1    2    0    0  0.74484685996E+02 -0.69055269985E+02 -0.19472645524E+03  0.25270534448E+03  0.12500000000E+03 0.  0.
         25    1    1    2    0    0 -0.14935188438E+03  0.11327783835E+03 -0.16134590620E+03  0.27711974934E+03  0.12500000000E+03 0.  0.
</event>
<event>
 5    0  0.5728184E-005  0.4221958E+03  0.7546771E-02  0.1036354E+00
         21   -1    0    0  502  501  0.00000000000E+00  0.00000000000E+00  0.10462758720E+03  0.10462758720E+03  0.00000000000E+00 0.  1.
         21   -1    0    0  501  502 -0.00000000000E+00 -0.00000000000E+00 -0.17036551588E+04  0.17036551588E+04  0.00000000000E+00 0.  1.
         25    1    1    2    0    0 -0.71625772572E+02 -0.10274357768E+03 -0.62427166126E+03  0.64886562639E+03  0.12500000000E+03 0.  0.
         25    1    1    2    0    0 -0.10324168180E+03 -0.19529073256E+03 -0.48186545941E+03  0.54462522532E+03  0.12500000000E+03 0.  0.
         25    1    1    2    0    0  0.17486745437E+03  0.29803431025E+03 -0.49289045097E+03  0.61479189434E+03  0.12500000000E+03 0.  0.
</event>
<event>
 5    0  0.5728184E-005  0.3671781E+03  0.7546771E-02  0.1055777E+00
         21   -1    0    0  502  501  0.00000000000E+00  0.00000000000E+00  0.11373630935E+04  0.11373630935E+04  0.00000000000E+00 0.  1.
         21   -1    0    0  501  502 -0.00000000000E+00 -0.00000000000E+00 -0.11853714453E+03  0.11853714453E+03  0.00000000000E+00 0.  1.
         25    1    1    2    0    0  0.10304197163E+03  0.11328271911E+03  0.28739938068E+03  0.34881804194E+03  0.12500000000E+03 0.  0.
         25    1    1    2    0    0 -0.24096876484E+03  0.34495935960E+02  0.25210919368E+03  0.37207520848E+03  0.12500000000E+03 0.  0.
         25    1    1    2    0    0  0.13792679322E+03 -0.14777865507E+03  0.47931737459E+03  0.53500698759E+03  0.12500000000E+03 0.  0.
</event>
<event>
 5    0  0.5728184E-005  0.2949072E+03  0.7546771E-02  0.1087814E+00
         21   -1    0    0  502  501  0.00000000000E+00  0.00000000000E+00  0.26934565599E+03  0.26934565599E+03  0.00000000000E+00 0.  1.
         21   -1    0    0  501  502 -0.00000000000E+00 -0.00000000000E+00 -0.32289467042E+03  0.32289467042E+03  0.00000000000E+00 0.  1.
         25    1    1    2    0    0  0.99195408102E+02 -0.41749263613E+02 -0.97812120423E+01  0.16523741135E+03  0.12500000000E+03 0.  0.
         25    1    1    2    0    0 -0.21332098609E+03  0.57244784128E+02 -0.40524991094E+02  0.25700210762E+03  0.12500000000E+03 0.  0.
         25    1    1    2    0    0  0.11412557799E+03 -0.15495520515E+02 -0.32428112912E+01  0.17000080745E+03  0.12500000000E+03 0.  0.
</event>
<event>
 5    0  0.5728184E-005  0.5018364E+03  0.7546771E-02  0.1013301E+00
         21   -1    0    0  502  501  0.00000000000E+00  0.00000000000E+00  0.37677857380E+03  0.37677857380E+03  0.00000000000E+00 0.  1.
         21   -1    0    0  501  502 -0.00000000000E+00 -0.00000000000E+00 -0.66840257143E+03  0.66840257143E+03  0.00000000000E+00 0.  1.
         25    1    1    2    0    0 -0.70619963093E+02 -0.49489409695E+02 -0.12185620638E+03  0.19470571613E+03  0.12500000000E+03 0.  0.
         25    1    1    2    0    0 -0.22157609956E+03 -0.22408914370E+03 -0.25291409786E+03  0.42296861955E+03  0.12500000000E+03 0.  0.
         25    1    1    2    0    0  0.29219606266E+03  0.27357855340E+03  0.83146306614E+02  0.42750680955E+03  0.12500000000E+03 0.  0.
</event>
<event>
 5    0  0.5728184E-005  0.7163486E+03  0.7546771E-02  0.9689675E-01
         21   -1    0    0  502  501  0.00000000000E+00  0.00000000000E+00  0.34294565487E+03  0.34294565487E+03  0.00000000000E+00 0.  1.
         21   -1    0    0  501  502 -0.00000000000E+00 -0.00000000000E+00 -0.14963167571E+04  0.14963167571E+04  0.00000000000E+00 0.  1.
         25    1    1    2    0    0 -0.51513992263E+02  0.25212889842E+03 -0.56535285143E+03  0.63361780233E+03  0.12500000000E+03 0.  0.
         25    1    1    2    0    0  0.11825956262E+03 -0.41092739734E+03  0.12405001050E+03  0.46245005692E+03  0.12500000000E+03 0.  0.
         25    1    1    2    0    0 -0.66745570355E+02  0.15879849893E+03 -0.71206826126E+03  0.74319455267E+03  0.12500000000E+03 0.  0.
</event>
<event>
 5    0  0.5728184E-005  0.3564402E+03  0.7546771E-02  0.1060002E+00
         21   -1    0    0  502  501  0.00000000000E+00  0.00000000000E+00  0.24599817657E+03  0.24599817657E+03  0.00000000000E+00 0. -1.
         21   -1    0    0  501  502 -0.00000000000E+00 -0.00000000000E+00 -0.51646567681E+03  0.51646567681E+03  0.00000000000E+00 0. -1.
         25    1    1    2    0    0  0.95548238549E+01  0.94833697879E+02 -0.26301383314E+03  0.30640822661E+03  0.12500000000E+03 0.  0.
         25    1    1    2    0    0 -0.14040438680E+03 -0.16471123706E+03 -0.55906578015E+02  0.25611272696E+03  0.12500000000E+03 0.  0.
         25    1    1    2    0    0  0.13084956294E+03  0.69877539183E+02  0.48452910919E+02  0.19994289980E+03  0.12500000000E+03 0.  0.
</event>
<event>
 5    0  0.5728184E-005  0.2514390E+03  0.7546771E-02  0.1112399E+00
         21   -1    0    0  502  501  0.00000000000E+00  0.00000000000E+00  0.26965217596E+03  0.26965217596E+03  0.00000000000E+00 0. -1.
         21   -1    0    0  501  502 -0.00000000000E+00 -0.00000000000E+00 -0.23445605774E+03  0.23445605774E+03  0.00000000000E+00 0. -1.
         25    1    1    2    0    0 -0.10525848748E+03  0.32036364602E+02  0.15952653980E+02  0.16728767143E+03  0.12500000000E+03 0.  0.
         25    1    1    2    0    0  0.15120911148E+03 -0.11157129535E+02 -0.16973141233E+02  0.19723530226E+03  0.12500000000E+03 0.  0.
         25    1    1    2    0    0 -0.45950624006E+02 -0.20879235066E+02  0.36216605472E+02  0.13958526002E+03  0.12500000000E+03 0.  0.
</event>
<event>
 5    0  0.5728184E-005  0.3319926E+03  0.7546771E-02  0.1070259E+00
         21   -1    0    0  502  501  0.00000000000E+00  0.00000000000E+00  0.61095915207E+02  0.61095915207E+02  0.00000000000E+00 0.  1.
         21   -1    0    0  501  502 -0.00000000000E+00 -0.00000000000E+00 -0.18040338266E+04  0.18040338266E+04  0.00000000000E+00 0.  1.
         25    1    1    2    0    0 -0.34658076106E+02 -0.40542382897E+01 -0.10363293528E+03  0.16607951217E+03  0.12500000000E+03 0.  0.
         25    1    1    2    0    0 -0.96094452601E+02  0.12793512070E+03 -0.51524587383E+03  0.55380939811E+03  0.12500000000E+03 0.  0.
         25    1    1    2    0    0  0.13075252871E+03 -0.12388088241E+03 -0.11240591022E+04  0.11452408315E+04  0.12500000000E+03 0.  0.
</event>
<event>
 5    0  0.5728184E-005  0.3365564E+03  0.7546771E-02  0.1068272E+00
         21   -1    0    0  502  501  0.00000000000E+00  0.00000000000E+00  0.48854991674E+03  0.48854991674E+03  0.00000000000E+00 0.  1.
         21   -1    0    0  501  502 -0.00000000000E+00 -0.00000000000E+00 -0.23184982947E+03  0.23184982947E+03  0.00000000000E+00 0.  1.
         25    1    1    2    0    0 -0.91541593171E+02 -0.12381192899E+03  0.34641673933E+03  0.39917266230E+03  0.12500000000E+03 0.  0.
         25    1    1    2    0    0  0.95480797029E+02  0.71891941416E+02 -0.46514400977E+02  0.17909110346E+03  0.12500000000E+03 0.  0.
         25    1    1    2    0    0 -0.39392038585E+01  0.51919987574E+02 -0.43202251092E+02  0.14213598044E+03  0.12500000000E+03 0.  0.
</event>
<event>
 5    0  0.5728184E-005  0.2903200E+03  0.7546771E-02  0.1090182E+00
         21   -1    0    0  502  501  0.00000000000E+00  0.00000000000E+00  0.19963307136E+03  0.19963307136E+03  0.00000000000E+00 0.  1.
         21   -1    0    0  501  502 -0.00000000000E+00 -0.00000000000E+00 -0.42220303304E+03  0.42220303304E+03  0.00000000000E+00 0.  1.
         25    1    1    2    0    0  0.11879476408E+03 -0.52446007425E+02  0.51892361103E+02  0.18756491358E+03  0.12500000000E+03 0.  0.
         25    1    1    2    0    0 -0.15037197284E+03 -0.20710517882E+01 -0.14323247938E+03  0.24239753015E+03  0.12500000000E+03 0.  0.
         25    1    1    2    0    0  0.31577208759E+02  0.54517059214E+02 -0.13122984340E+03  0.19187366067E+03  0.12500000000E+03 0.  0.
</event>
<event>
 5    0  0.5728184E-005  0.3955879E+03  0.7546771E-02  0.1045318E+00
         21   -1    0    0  502  501  0.00000000000E+00  0.00000000000E+00  0.94583594862E+02  0.94583594862E+02  0.00000000000E+00 0.  1.
         21   -1    0    0  501  502 -0.00000000000E+00 -0.00000000000E+00 -0.16545126541E+04  0.16545126541E+04  0.00000000000E+00 0.  1.
         25    1    1    2    0    0  0.85281316773E+02 -0.18402260791E+03 -0.15649666859E+03  0.28504987370E+03  0.12500000000E+03 0.  0.
         25    1    1    2    0    0 -0.14622297056E+03  0.21673790563E+02 -0.51291861925E+03  0.54823482222E+03  0.12500000000E+03 0.  0.
         25    1    1    2    0    0  0.60941653787E+02  0.16234881735E+03 -0.89051377144E+03  0.91581155309E+03  0.12500000000E+03 0.  0.
</event>
<event>
 5    0  0.5728184E-005  0.2282855E+03  0.7546771E-02  0.1127852E+00
         21   -1    0    0  502  501  0.00000000000E+00  0.00000000000E+00  0.53255934160E+02  0.53255934160E+02  0.00000000000E+00 0.  1.
         21   -1    0    0  501  502 -0.00000000000E+00 -0.00000000000E+00 -0.97856255417E+03  0.97856255417E+03  0.00000000000E+00 0.  1.
         25    1    1    2    0    0  0.66345995642E+02 -0.18391812009E+02 -0.14071400890E+03  0.20041327847E+03  0.12500000000E+03 0.  0.
         25    1    1    2    0    0 -0.73881166925E+02  0.14037361058E+02 -0.49046262781E+03  0.51169723822E+03  0.12500000000E+03 0.  0.
         25    1    1    2    0    0  0.75351712829E+01  0.43544509513E+01 -0.29412998330E+03  0.31970797163E+03  0.12500000000E+03 0.  0.
</event>
<event>
 5    0  0.5728184E-005  0.3125045E+03  0.7546771E-02  0.1079152E+00
         21   -1    0    0  502  501  0.00000000000E+00  0.00000000000E+00  0.10431628492E+04  0.10431628492E+04  0.00000000000E+00 0.  1.
         21   -1    0    0  501  502 -0.00000000000E+00 -0.00000000000E+00 -0.93618227789E+02  0.93618227789E+02  0.00000000000E+00 0.  1.
         25    1    1    2    0    0  0.81527200046E+02 -0.10548844048E+03  0.34377915978E+03  0.38933739368E+03  0.12500000000E+03 0.  0.
         25    1    1    2    0    0  0.74086154082E+02 -0.74042184615E+02  0.16965988819E+03  0.23533057810E+03  0.12500000000E+03 0.  0.
         25    1    1    2    0    0 -0.15561335413E+03  0.17953062510E+03  0.43610557343E+03  0.51211310519E+03  0.12500000000E+03 0.  0.
</event>
<event>
 5    0  0.5728184E-005  0.2653817E+03  0.7546771E-02  0.1103952E+00
         21   -1    0    0  502  501  0.00000000000E+00  0.00000000000E+00  0.56448681514E+03  0.56448681514E+03  0.00000000000E+00 0. -1.
         21   -1    0    0  501  502 -0.00000000000E+00 -0.00000000000E+00 -0.12476371413E+03  0.12476371413E+03  0.00000000000E+00 0. -1.
         25    1    1    2    0    0 -0.78843750674E+02  0.38300483605E+02  0.10220962531E+03  0.18372553326E+03  0.12500000000E+03 0.  0.
         25    1    1    2    0    0  0.35718856707E+02  0.33171695681E+02  0.32861815656E+03  0.35495223754E+03  0.12500000000E+03 0.  0.
         25    1    1    2    0    0  0.43124893967E+02 -0.71472179286E+02  0.88953191443E+01  0.15057275847E+03  0.12500000000E+03 0.  0.
</event>
<event>
 5    0  0.7107209E-005  0.2972840E+03  0.7546771E-02  0.1086606E+00
         21   -1    0    0  502  501  0.00000000000E+00  0.00000000000E+00  0.24292565884E+03  0.24292565884E+03  0.00000000000E+00 0. -1.
         21   -1    0    0  501  502 -0.00000000000E+00 -0.00000000000E+00 -0.36380588760E+03  0.36380588760E+03  0.00000000000E+00 0. -1.
         25    1    1    2    0    0  0.67971481064E+02  0.14948685867E+03  0.64448966275E+02  0.21620618031E+03  0.12500000000E+03 0.  0.
         25    1    1    2    0    0  0.17961972589E+02 -0.12400332137E+03 -0.45712345622E+02  0.18279517147E+03  0.12500000000E+03 0.  0.
         25    1    1    2    0    0 -0.85933453652E+02 -0.25483537296E+02 -0.13961684942E+03  0.20773019466E+03  0.12500000000E+03 0.  0.
</event>
<event>
 5    0  0.5728184E-005  0.2422394E+03  0.7546771E-02  0.1118310E+00
         21   -1    0    0  502  501  0.00000000000E+00  0.00000000000E+00  0.49719765015E+03  0.49719765015E+03  0.00000000000E+00 0.  1.
         21   -1    0    0  501  502 -0.00000000000E+00 -0.00000000000E+00 -0.11802135349E+03  0.11802135349E+03  0.00000000000E+00 0.  1.
         25    1    1    2    0    0  0.10554090586E+02 -0.53618812659E+02  0.28873202012E+02  0.13944542909E+03  0.12500000000E+03 0.  0.
         25    1    1    2    0    0  0.38306863687E+02 -0.57041391862E+02  0.11539444106E+03  0.18347210474E+03  0.12500000000E+03 0.  0.
         25    1    1    2    0    0 -0.48860954273E+02  0.11066020452E+03  0.23490865359E+03  0.29230146981E+03  0.12500000000E+03 0.  0.
</event>
<event>
 5    0  0.5728184E-005  0.3168205E+03  0.7546771E-02  0.1077122E+00
         21   -1    0    0  502  501  0.00000000000E+00  0.00000000000E+00  0.51274775195E+02  0.51274775195E+02  0.00000000000E+00 0.  1.
         21   -1    0    0  501  502 -0.00000000000E+00 -0.00000000000E+00 -0.19575953071E+04  0.19575953071E+04  0.00000000000E+00 0.  1.
         25    1    1    2    0    0 -0.77992771524E+02  0.14957385722E+03 -0.12537173963E+04  0.12711756452E+04  0.12500000000E+03 0.  0.
         25    1    1    2    0    0  0.76848722232E+02 -0.75546773614E+02 -0.50202580125E+03  0.52845808371E+03  0.12500000000E+03 0.  0.
         25    1    1    2    0    0  0.11440492920E+01 -0.74027083606E+02 -0.15057733435E+03  0.20923635338E+03  0.12500000000E+03 0.  0.
</event>
<event>
 5    0  0.5728184E-005  0.2447188E+03  0.7546771E-02  0.1116689E+00
         21   -1    0    0  502  501  0.00000000000E+00  0.00000000000E+00  0.53575311683E+03  0.53575311683E+03  0.00000000000E+00 0. -1.
         21   -1    0    0  501  502 -0.00000000000E+00 -0.00000000000E+00 -0.11178151059E+03  0.11178151059E+03  0.00000000000E+00 0. -1.
         25    1    1    2    0    0 -0.35404094204E+02 -0.28911793530E+01  0.27089021968E+03  0.30044686705E+03  0.12500000000E+03 0.  0.
         25    1    1    2    0    0 -0.24052969102E+02  0.80982921185E+02  0.56435145908E+02  0.16107980798E+03  0.12500000000E+03 0.  0.
         25    1    1    2    0    0  0.59457063306E+02 -0.78091741832E+02  0.96646240654E+02  0.18600795239E+03  0.12500000000E+03 0.  0.
</event>
<event>
 5    0  0.5728184E-005  0.2390163E+03  0.7546771E-02  0.1120450E+00
         21   -1    0    0  502  501  0.00000000000E+00  0.00000000000E+00  0.13586104961E+04  0.13586104961E+04  0.00000000000E+00 0. -1.
         21   -1    0    0  501  502 -0.00000000000E+00 -0.00000000000E+00 -0.42049420673E+02  0.42049420673E+02  0.00000000000E+00 0. -1.
         25    1    1    2    0    0  0.12085882973E+02 -0.59551920773E+01  0.33377427152E+03  0.35666762849E+03  0.12500000000E+03 0.  0.
         25    1    1    2    0    0  0.28692295215E+02 -0.88969731534E+02  0.70729743683E+03  0.72431590144E+03  0.12500000000E+03 0.  0.
         25    1    1    2    0    0 -0.40778178188E+02  0.94924923611E+02  0.27548936711E+03  0.31967638688E+03  0.12500000000E+03 0.  0.
</event>
<event>
 5    0  0.5728184E-005  0.2510442E+03  0.7546771E-02  0.1112647E+00
         21   -1    0    0  502  501  0.00000000000E+00  0.00000000000E+00  0.14669502500E+03  0.14669502500E+03  0.00000000000E+00 0. -1.
         21   -1    0    0  501  502 -0.00000000000E+00 -0.00000000000E+00 -0.42962057984E+03  0.42962057984E+03  0.00000000000E+00 0. -1.
         25    1    1    2    0    0  0.13389310656E+02  0.59921141211E+01 -0.13097685327E+03  0.18164557568E+03  0.12500000000E+03 0.  0.
         25    1    1    2    0    0 -0.33559817789E+02  0.84718357726E+02  0.27434235506E+02  0.15710219217E+03  0.12500000000E+03 0.  0.
         25    1    1    2    0    0  0.20170507133E+02 -0.90710471847E+02 -0.17938293708E+03  0.23756783700E+03  0.12500000000E+03 0.  0.
</event>
<event>
 5    0  0.5728184E-005  0.3890104E+03  0.7546771E-02  0.1047653E+00
         21   -1    0    0  502  501  0.00000000000E+00  0.00000000000E+00  0.14916231741E+04  0.14916231741E+04  0.00000000000E+00 0. -1.
         21   -1    0    0  501  502 -0.00000000000E+00 -0.00000000000E+00 -0.10145263968E+03  0.10145263968E+03  0.00000000000E+00 0. -1.
         25    1    1    2    0    0  0.18355150346E+03 -0.15885850029E+03  0.77685981796E+03  0.82344602392E+03  0.12500000000E+03 0.  0.
         25    1    1    2    0    0 -0.16463913510E+03  0.13712213664E+02  0.51153700346E+03  0.55189598252E+03  0.12500000000E+03 0.  0.
         25    1    1    2    0    0 -0.18912368361E+02  0.14514628662E+03  0.10177371296E+03  0.21773380731E+03  0.12500000000E+03 0.  0.
</event>
<event>
 5    0  0.5728184E-005  0.3588518E+03  0.7546771E-02  0.1059039E+00
         21   -1    0    0  502  501  0.00000000000E+00  0.00000000000E+00  0.93112520636E+03  0.93112520636E+03  0.00000000000E+00 0.  1.
         21   -1    0    0  501  502 -0.00000000000E+00 -0.00000000000E+00 -0.13830000336E+03  0.13830000336E+03  0.00000000000E+00 0.  1.
         25    1    1    2    0    0 -0.58247620250E+02 -0.10282265847E+03  0.13033113906E+03  0.21581587098E+03  0.12500000000E+03 0.  0.
         25    1    1    2    0    0 -0.80802195043E+02 -0.75184260677E+02  0.54505557919E+03  0.56999320363E+03  0.12500000000E+03 0.  0.
         25    1    1    2    0    0  0.13904981529E+03  0.17800691915E+03  0.11743848476E+03  0.28361613512E+03  0.12500000000E+03 0.  0.
</event>
<event>
 5    0  0.5728184E-005  0.3174701E+03  0.7546771E-02  0.1076820E+00
         21   -1    0    0  502  501  0.00000000000E+00  0.00000000000E+00  0.62909417049E+02  0.62909417049E+02  0.00000000000E+00 0.  1.
         21   -1    0    0  501  502 -0.00000000000E+00 -0.00000000000E+00 -0.16021015161E+04  0.16021015161E+04  0.00000000000E+00 0.  1.
         25    1    1    2    0    0  0.13324341078E+03 -0.18260019876E+03 -0.40887851575E+03  0.48363548230E+03  0.12500000000E+03 0.  0.
         25    1    1    2    0    0 -0.73839985715E+02  0.11401530625E+03 -0.70911120980E+03  0.73274520907E+03  0.12500000000E+03 0.  0.
         25    1    1    2    0    0 -0.59403425063E+02  0.68584892508E+02 -0.42120237345E+03  0.44863024173E+03  0.12500000000E+03 0.  0.
</event>
<event>
 5    0  0.6400334E-005  0.7149449E+03  0.7546771E-02  0.9692010E-01
         21   -1    0    0  502  501  0.00000000000E+00  0.00000000000E+00  0.33869324772E+03  0.33869324772E+03  0.00000000000E+00 0.  1.
         21   -1    0    0  501  502 -0.00000000000E+00 -0.00000000000E+00 -0.15091715623E+04  0.15091715623E+04  0.00000000000E+00 0.  1.
         25    1    1    2    0    0 -0.36840711500E+03 -0.12488473794E+03 -0.98745322306E+03  0.10686481497E+04  0.12500000000E+03 0.  0.
         25    1    1    2    0    0  0.95755675394E+02 -0.22802282627E+03  0.10392757192E+02  0.27730230448E+03  0.12500000000E+03 0.  0.
         25    1    1    2    0    0  0.27265143960E+03  0.35290756422E+03 -0.19341784874E+03  0.50191435585E+03  0.12500000000E+03 0.  0.
</event>
<event>
 5    0  0.5728184E-005  0.4842244E+03  0.7546771E-02  0.1017981E+00
         21   -1    0    0  502  501  0.00000000000E+00  0.00000000000E+00  0.82301432386E+03  0.82301432386E+03  0.00000000000E+00 0. -1.
         21   -1    0    0  501  502 -0.00000000000E+00 -0.00000000000E+00 -0.28489576358E+03  0.28489576358E+03  0.00000000000E+00 0. -1.
         25    1    1    2    0    0  0.28764168255E+02 -0.26844405175E+02  0.16266939525E+03  0.20888832331E+03  0.12500000000E+03 0.  0.
         25    1    1    2    0    0  0.21576405230E+03 -0.24596415457E+03  0.37334206469E+03  0.51191970939E+03  0.12500000000E+03 0.  0.
         25    1    1    2    0    0 -0.24452822055E+03  0.27280855974E+03  0.21071003390E+01  0.38710205475E+03  0.12500000000E+03 0.  0.
</event>
<event>
 5    0  0.5728184E-005  0.3528736E+03  0.7546771E-02  0.1061442E+00
         21   -1    0    0  502  501  0.00000000000E+00  0.00000000000E+00  0.33859787680E+03  0.33859787680E+03  0.00000000000E+00 0. -1.
         21   -1    0    0  501  502 -0.00000000000E+00 -0.00000000000E+00 -0.36775124760E+03  0.36775124760E+03  0.00000000000E+00 0. -1.
         25    1    1    2    0    0 -0.21080955595E+02  0.12107609246E+03 -0.86352556980E+02  0.19541133783E+03  0.12500000000E+03 0.  0.
         25    1    1    2    0    0  0.34515333836E+02  0.16438168929E+02  0.22498629803E+03  0.26020252875E+03  0.12500000000E+03 0.  0.
         25    1    1    2    0    0 -0.13434378241E+02 -0.13751426139E+03 -0.16778711186E+03  0.25073525781E+03  0.12500000000E+03 0.  0.
</event>
<event>
 5    0  0.5728184E-005  0.2480868E+03  0.7546771E-02  0.1114520E+00
         21   -1    0    0  502  501  0.00000000000E+00  0.00000000000E+00  0.51168717087E+03  0.51168717087E+03  0.00000000000E+00 0. -1.
         21   -1    0    0  501  502 -0.00000000000E+00 -0.00000000000E+00 -0.12028258063E+03  0.12028258063E+03  0.00000000000E+00 0. -1.
         25    1    1    2    0    0 -0.37650137400E+01 -0.10956103096E+03  0.97946020344E+02  0.19296688248E+03  0.12500000000E+03 0.  0.
         25    1    1    2    0    0 -0.80536817825E+02  0.43986276042E+02  0.18788516981E+03  0.24361200410E+03  0.12500000000E+03 0.  0.
         25    1    1    2    0    0  0.84301831565E+02  0.65574754922E+02  0.10557340009E+03  0.19539086492E+03  0.12500000000E+03 0.  0.
</event>
<event>
 5    0  0.5728184E-005  0.2708683E+03  0.7546771E-02  0.1100784E+00
         21   -1    0    0  502  501  0.00000000000E+00  0.00000000000E+00  0.61675246317E+03  0.61675246317E+03  0.00000000000E+00 0.  1.
         21   -1    0    0  501  502 -0.00000000000E+00 -0.00000000000E+00 -0.11896127705E+03  0.11896127705E+03  0.00000000000E+00 0.  1.
         25    1    1    2    0    0  0.44080485912E+02 -0.32050284612E+02 -0.36893972998E+02  0.14126738911E+03  0.12500000000E+03 0.  0.
         25    1    1    2    0    0 -0.17553022045E+02 -0.54918988727E+01  0.27295637261E+03  0.30077973815E+03  0.12500000000E+03 0.  0.
         25    1    1    2    0    0 -0.26527463867E+02  0.37542183484E+02  0.26172878651E+03  0.29366661296E+03  0.12500000000E+03 0.  0.
</event>
<event>
 5    0  0.5728184E-005  0.3793180E+03  0.7546771E-02  0.1051186E+00
         21   -1    0    0  502  501  0.00000000000E+00  0.00000000000E+00  0.12859321242E+03  0.12859321242E+03  0.00000000000E+00 0.  1.
         21   -1    0    0  501  502 -0.00000000000E+00 -0.00000000000E+00 -0.11188935997E+04  0.11188935997E+04  0.00000000000E+00 0.  1.
         25    1    1    2    0    0  0.42405648669E+02  0.75384338359E+02 -0.27120016735E+03  0.31089478651E+03  0.12500000000E+03 0.  0.
         25    1    1    2    0    0 -0.13924973290E+03 -0.15901035601E+03 -0.71680507503E+03  0.75770000463E+03  0.12500000000E+03 0.  0.
         25    1    1    2    0    0  0.96844084234E+02  0.83626017651E+02 -0.22951449025E+01  0.17889202098E+03  0.12500000000E+03 0.  0.
</event>
<event>
 5    0  0.5728184E-005  0.3216074E+03  0.7546771E-02  0.1074912E+00
         21   -1    0    0  502  501  0.00000000000E+00  0.00000000000E+00  0.11478096830E+03  0.11478096830E+03  0.00000000000E+00 0. -1.
         21   -1    0    0  501  502 -0.00000000000E+00 -0.00000000000E+00 -0.90111887448E+03  0.90111887448E+03  0.00000000000E+00 0. -1.
         25    1    1    2    0    0 -0.15639856373E+02  0.89981820335E+01 -0.54967355568E+03  0.56399609059E+03  0.12500000000E+03 0.  0.
         25    1    1    2    0    0 -0.12683238098E+03  0.26743948201E+02 -0.58513850974E+02  0.18934244740E+03  0.12500000000E+03 0.  0.
         25    1    1    2    0    0  0.14247223735E+03 -0.35742130234E+02 -0.17815049953E+03  0.26256130479E+03  0.12500000000E+03 0.  0.
</event>
<event>
 5    0  0.5728184E-005  0.3030881E+03  0.7546771E-02  0.1083707E+00
         21   -1    0    0  502  501  0.00000000000E+00  0.00000000000E+00  0.48831417968E+03  0.48831417968E+03  0.00000000000E+00 0.  1.
         21   -1    0    0  501  502 -0.00000000000E+00 -0.00000000000E+00 -0.18812148303E+03  0.18812148303E+03  0.00000000000E+00 0.  1.
         25    1    1    2    0    0  0.11929202827E+03  0.59433122063E+02  0.18316035718E+03  0.25871915362E+03  0.12500000000E+03 0.  0.
         25    1    1    2    0    0  0.29676723093E+02 -0.84513928817E+02 -0.48355610959E+02  0.16120352716E+03  0.12500000000E+03 0.  0.
         25    1    1    2    0    0 -0.14896875137E+03  0.25080806754E+02  0.16538795043E+03  0.25651298193E+03  0.12500000000E+03 0.  0.
</event>
<event>
 5    0  0.5728184E-005  0.3592840E+03  0.7546771E-02  0.1058868E+00
         21   -1    0    0  502  501  0.00000000000E+00  0.00000000000E+00  0.17029397823E+03  0.17029397823E+03  0.00000000000E+00 0.  1.
         21   -1    0    0  501  502 -0.00000000000E+00 -0.00000000000E+00 -0.75801246049E+03  0.75801246049E+03  0.00000000000E+00 0.  1.
         25    1    1    2    0    0  0.75225934071E+02 -0.54698735373E+02  0.39154473766E+01  0.15585641962E+03  0.12500000000E+03 0.  0.
         25    1    1    2    0    0 -0.33331474018E+02  0.23624225093E+03 -0.36417821995E+03  0.45295934053E+03  0.12500000000E+03 0.  0.
         25    1    1    2    0    0 -0.41894460053E+02 -0.18154351556E+03 -0.22745570968E+03  0.31949067857E+03  0.12500000000E+03 0.  0.
</event>
<event>
 5    0  0.5728184E-005  0.2404233E+03  0.7546771E-02  0.1119511E+00
         21   -1    0    0  502  501  0.00000000000E+00  0.00000000000E+00  0.48240880349E+02  0.48240880349E+02  0.00000000000E+00 0. -1.
         21   -1    0    0  501  502 -0.00000000000E+00 -0.00000000000E+00 -0.11982236317E+04  0.11982236317E+04  0.00000000000E+00 0. -1.
         25    1    1    2    0    0 -0.12735520247E+03  0.22682101730E+02 -0.56710175497E+03  0.59494808667E+03  0.12500000000E+03 0.  0.
         25    1    1    2    0    0  0.36759432019E+02 -0.38560240858E+02 -0.27302855121E+03  0.30497169999E+03  0.12500000000E+03 0.  0.
         25    1    1    2    0    0  0.90595770447E+02  0.15878139128E+02 -0.30985244520E+03  0.34654472543E+03  0.12500000000E+03 0.  0.
</event>
<event>
 5    0  0.5782132E-005  0.3994827E+03  0.7546771E-02  0.1043959E+00
         21   -1    0    0  502  501  0.00000000000E+00  0.00000000000E+00  0.75615343492E+03  0.75615343492E+03  0.00000000000E+00 0. -1.
         21   -1    0    0  501  502 -0.00000000000E+00 -0.00000000000E+00 -0.21105033869E+03  0.21105033869E+03  0.00000000000E+00 0. -1.
         25    1    1    2    0    0  0.12462171513E+03 -0.16916980144E+03  0.21515892039E+02  0.24543212343E+03  0.12500000000E+03 0.  0.
         25    1    1    2    0    0  0.79340606891E+02  0.92960933526E+02  0.41096789889E+03  0.44660528544E+03  0.12500000000E+03 0.  0.
         25    1    1    2    0    0 -0.20396232202E+03  0.76208867915E+02  0.11261930530E+03  0.27516636473E+03  0.12500000000E+03 0.  0.
</event>
<event>
 5    0  0.5728184E-005  0.2446394E+03  0.7546771E-02  0.1116740E+00
         21   -1    0    0  502  501  0.00000000000E+00  0.00000000000E+00  0.23934298028E+03  0.23934298028E+03  0.00000000000E+00 0. -1.
         21   -1    0    0  501  502 -0.00000000000E+00 -0.00000000000E+00 -0.25005297895E+03  0.25005297895E+03  0.00000000000E+00 0. -1.
         25    1    1    2    0    0 -0.30706354472E+02  0.59003630278E+02 -0.43967350496E+02  0.14826475138E+03  0.12500000000E+03 0.  0.
         25    1    1    2    0    0 -0.46776616115E+02 -0.99449931033E+02  0.75641168562E+02  0.18282485329E+03  0.12500000000E+03 0.  0.
         25    1    1    2    0    0  0.77482970587E+02  0.40446300755E+02 -0.42383816732E+02  0.15830635457E+03  0.12500000000E+03 0.  0.
</event>
<event>
 5    0  0.5728184E-005  0.3854740E+03  0.7546771E-02  0.1048929E+00
         21   -1    0    0  502  501  0.00000000000E+00  0.00000000000E+00  0.14798873806E+03  0.14798873806E+03  0.00000000000E+00 0.  1.
         21   -1    0    0  501  502 -0.00000000000E+00 -0.00000000000E+00 -0.10040642269E+04  0.10040642269E+04  0.00000000000E+00 0.  1.
         25    1    1    2    0    0 -0.33623531533E+02 -0.15237773121E+03 -0.46084481153E+03  0.50234694699E+03  0.12500000000E+03 0.  0.
         25    1    1    2    0    0  0.70345383984E+02  0.17914667346E+03  0.33523069013E+01  0.22951741028E+03  0.12500000000E+03 0.  0.
         25    1    1    2    0    0 -0.36721852451E+02 -0.26768942254E+02 -0.39858298418E+03  0.42018860764E+03  0.12500000000E+03 0.  0.
</event>
<event>
 5    0  0.5728184E-005  0.2619371E+03  0.7546771E-02  0.1105985E+00
         21   -1    0    0  502  501  0.00000000000E+00  0.00000000000E+00  0.44278929608E+03  0.44278929608E+03  0.00000000000E+00 0. -1.
         21   -1    0    0  501  502 -0.00000000000E+00 -0.00000000000E+00 -0.15495185124E+03  0.15495185124E+03  0.00000000000E+00 0. -1.
         25    1    1    2    0    0 -0.11147361095E+02 -0.56998581431E+02  0.10173520997E+03  0.17131303188E+03  0.12500000000E+03 0.  0.
         25    1    1    2    0    0 -0.32962526933E+02 -0.52825214183E+02  0.21045631649E+03  0.25257452878E+03  0.12500000000E+03 0.  0.
         25    1    1    2    0    0  0.44109888028E+02  0.10982379561E+03 -0.24354081625E+02  0.17385358667E+03  0.12500000000E+03 0.  0.
</event>
<event>
 5    0  0.5728184E-005  0.2464430E+03  0.7546771E-02  0.1115574E+00
         21   -1    0    0  502  501  0.00000000000E+00  0.00000000000E+00  0.30560578611E+02  0.30560578611E+02  0.00000000000E+00 0.  1.
         21   -1    0    0  501  502 -0.00000000000E+00 -0.00000000000E+00 -0.19873364444E+04  0.19873364444E+04  0.00000000000E+00 0.  1.
         25    1    1    2    0    0  0.63340158040E+02 -0.19279095865E+02 -0.74968348816E+03  0.76291152277E+03  0.12500000000E+03 0.  0.
         25    1    1    2    0    0  0.41827361499E+02 -0.31391928412E+02 -0.26649146725E+03  0.29896100658E+03  0.12500000000E+03 0.  0.
         25    1    1    2    0    0 -0.10516751954E+03  0.50671024277E+02 -0.94060091038E+03  0.95602449365E+03  0.12500000000E+03 0.  0.
</event>
<event>
 5    0  0.5728184E-005  0.2678748E+03  0.7546771E-02  0.1102502E+00
         21   -1    0    0  502  501  0.00000000000E+00  0.00000000000E+00  0.37039281426E+03  0.37039281426E+03  0.00000000000E+00 0. -1.
         21   -1    0    0  501  502 -0.00000000000E+00 -0.00000000000E+00 -0.19373184952E+03  0.19373184952E+03  0.00000000000E+00 0. -1.
         25    1    1    2    0    0  0.65245339254E+01  0.96623906575E+02  0.39979118854E+02  0.16310143718E+03  0.12500000000E+03 0.  0.
         25    1    1    2    0    0  0.34133274300E+02  0.60975098088E+02 -0.17591278530E+02  0.14428269502E+03  0.12500000000E+03 0.  0.
         25    1    1    2    0    0 -0.40657808226E+02 -0.15759900466E+03  0.15427312441E+03  0.25674053158E+03  0.12500000000E+03 0.  0.
</event>
<event>
 5    0  0.5728184E-005  0.2642007E+03  0.7546771E-02  0.1104645E+00
         21   -1    0    0  502  501  0.00000000000E+00  0.00000000000E+00  0.39460106548E+02  0.39460106548E+02  0.00000000000E+00 0.  1.
         21   -1    0    0  501  502 -0.00000000000E+00 -0.00000000000E+00 -0.17689262250E+04  0.17689262250E+04  0.00000000000E+00 0.  1.
         25    1    1    2    0    0  0.45918646031E+02  0.61008508149E+02 -0.23481062109E+03  0.27675185256E+03  0.12500000000E+03 0.  0.
         25    1    1    2    0    0  0.51098922331E+02 -0.46875896741E+01 -0.10034773782E+04  0.10125339115E+04  0.12500000000E+03 0.  0.
         25    1    1    2    0    0 -0.97017568363E+02 -0.56320918475E+02 -0.49117811917E+03  0.51910056750E+03  0.12500000000E+03 0.  0.
</event>
<event>
 5    0  0.5728184E-005  0.3095659E+03  0.7546771E-02  0.1080554E+00
         21   -1    0    0  502  501  0.00000000000E+00  0.00000000000E+00  0.19758231769E+03  0.19758231769E+03  0.00000000000E+00 0. -1.
         21   -1    0    0  501  502 -0.00000000000E+00 -0.00000000000E+00 -0.48501819917E+03  0.48501819917E+03  0.00000000000E+00 0. -1.
         25    1    1    2    0    0  0.13590718154E+03 -0.38490175136E+02  0.27207687057E+02  0.19057154513E+03  0.12500000000E+03 0.  0.
         25    1    1    2    0    0 -0.69377400128E+02  0.83013689737E+02 -0.25855728286E+02  0.16732607393E+03  0.12500000000E+03 0.  0.
         25    1    1    2    0    0 -0.66529781413E+02 -0.44523514601E+02 -0.28878784025E+03  0.32470289781E+03  0.12500000000E+03 0.  0.
</event>
<event>
 5    0  0.5728184E-005  0.7104402E+03  0.7546771E-02  0.9699543E-01
         21   -1    0    0  502  501  0.00000000000E+00  0.00000000000E+00  0.10995023599E+04  0.10995023599E+04  0.00000000000E+00 0. -1.
         21   -1    0    0  501  502 -0.00000000000E+00 -0.00000000000E+00 -0.45904887512E+03  0.45904887512E+03  0.00000000000E+00 0.  1.
         25    1    1    2    0    0  0.42490934610E+03 -0.37561243301E+03  0.44140187241E+03  0.72944723264E+03  0.12500000000E+03 0.  0.
         25    1    1    2    0    0  0.27068328419E+02 -0.71118520565E+02  0.91425315780E+02  0.17255180885E+03  0.12500000000E+03 0.  0.
         25    1    1    2    0    0 -0.45197767452E+03  0.44673095357E+03  0.10762629662E+03  0.65655219356E+03  0.12500000000E+03 0.  0.
</event>
<event>
 5    0  0.5728184E-005  0.5050609E+03  0.7546771E-02  0.1012466E+00
         21   -1    0    0  502  501  0.00000000000E+00  0.00000000000E+00  0.37949269181E+03  0.37949269181E+03  0.00000000000E+00 0. -1.
         21   -1    0    0  501  502 -0.00000000000E+00 -0.00000000000E+00 -0.67217760353E+03  0.67217760353E+03  0.00000000000E+00 0. -1.
         25    1    1    2    0    0  0.38099203029E+02  0.28544920098E+03 -0.17452503504E+03  0.35918906368E+03  0.12500000000E+03 0.  0.
         25    1    1    2    0    0 -0.29638105862E+03 -0.14386251728E+03 -0.28875621070E+01  0.35237975793E+03  0.12500000000E+03 0.  0.
         25    1    1    2    0    0  0.25828185559E+03 -0.14158668369E+03 -0.11527231457E+03  0.34010147373E+03  0.12500000000E+03 0.  0.
</event>
<event>
 5    0  0.6370954E-005  0.3378411E+03  0.7546771E-02  0.1067719E+00
         21   -1    0    0  502  501  0.00000000000E+00  0.00000000000E+00  0.15095641491E+03  0.15095641491E+03  0.00000000000E+00 0.  1.
         21   -1    0    0  501  502 -0.00000000000E+00 -0.00000000000E+00 -0.75608971731E+03  0.75608971731E+03  0.00000000000E+00 0.  1.
         25    1    1    2    0    0  0.15373612557E+03 -0.62055146952E+01 -0.19040924719E+03  0.27487085355E+03  0.12500000000E+03 0.  0.
         25    1    1    2    0    0  0.31851251086E+02  0.37136212453E+01 -0.38547180514E+03  0.40649945355E+03  0.12500000000E+03 0.  0.
         25    1    1    2    0    0 -0.18558737666E+03  0.24918934499E+01 -0.29252250064E+02  0.22567582511E+03  0.12500000000E+03 0.  0.
</event>
<event>
 5    0  0.5728184E-005  0.2113003E+03  0.7546771E-02  0.1140540E+00
         21   -1    0    0  502  501  0.00000000000E+00  0.00000000000E+00  0.13909007166E+03  0.13909007166E+03  0.00000000000E+00 0.  1.
         21   -1    0    0  501  502 -0.00000000000E+00 -0.00000000000E+00 -0.32099917289E+03  0.32099917289E+03  0.00000000000E+00 0.  1.
         25    1    1    2    0    0 -0.12793377977E+02  0.53732525928E+01 -0.15953737890E+02  0.12677564481E+03  0.12500000000E+03 0.  0.
         25    1    1    2    0    0 -0.27558274364E+00  0.58059790847E+02 -0.37748169150E+02  0.14290185280E+03  0.12500000000E+03 0.  0.
         25    1    1    2    0    0  0.13068960721E+02 -0.63433043440E+02 -0.12820719418E+03  0.19041174695E+03  0.12500000000E+03 0.  0.
</event>
<event>
 5    0  0.5728184E-005  0.2629287E+03  0.7546771E-02  0.1105396E+00
         21   -1    0    0  502  501  0.00000000000E+00  0.00000000000E+00  0.53772511803E+02  0.53772511803E+02  0.00000000000E+00 0.  1.
         21   -1    0    0  501  502 -0.00000000000E+00 -0.00000000000E+00 -0.12856292146E+04  0.12856292146E+04  0.00000000000E+00 0.  1.
         25    1    1    2    0    0 -0.20430464451E+02  0.25516897552E+01 -0.25459213192E+03  0.28436959864E+03  0.12500000000E+03 0.  0.
         25    1    1    2    0    0  0.50904307818E+02 -0.66109641883E+02 -0.85013088058E+03  0.86331294871E+03  0.12500000000E+03 0.  0.
         25    1    1    2    0    0 -0.30473843367E+02  0.63557952128E+02 -0.12713369033E+03  0.19171917908E+03  0.12500000000E+03 0.  0.
</event>
<event>
 5    0  0.5881997E-005  0.3514873E+03  0.7546771E-02  0.1062006E+00
         21   -1    0    0  502  501  0.00000000000E+00  0.00000000000E+00  0.24530475911E+03  0.24530475911E+03  0.00000000000E+00 0. -1.
         21   -1    0    0  501  502 -0.00000000000E+00 -0.00000000000E+00 -0.50363204295E+03  0.50363204295E+03  0.00000000000E+00 0. -1.
         25    1    1    2    0    0  0.19204768747E+02  0.53789787257E+02  0.54827202278E+02  0.14796346328E+03  0.12500000000E+03 0.  0.
         25    1    1    2    0    0  0.18171574442E+03  0.52764438672E+02 -0.51719811798E+02  0.23260403412E+03  0.12500000000E+03 0.  0.
         25    1    1    2    0    0 -0.20092051317E+03 -0.10655422593E+03 -0.26143467432E+03  0.36836930465E+03  0.12500000000E+03 0.  0.
</event>
<event>
 5    0  0.5728184E-005  0.2680262E+03  0.7546771E-02  0.1102415E+00
         21   -1    0    0  502  501  0.00000000000E+00  0.00000000000E+00  0.12259297200E+04  0.12259297200E+04  0.00000000000E+00 0.  1.
         21   -1    0    0  501  502 -0.00000000000E+00 -0.00000000000E+00 -0.58598829605E+02  0.58598829605E+02  0.00000000000E+00 0.  1.
         25    1    1    2    0    0 -0.34264441598E+02  0.13638715785E+01  0.26093881894E+03  0.29135884976E+03  0.12500000000E+03 0.  0.
         25    1    1    2    0    0 -0.31658636370E+02  0.60968696096E+02  0.10521898522E+03  0.17724414239E+03  0.12500000000E+03 0.  0.
         25    1    1    2    0    0  0.65923077968E+02 -0.62332567675E+02  0.80117308622E+03  0.81592555744E+03  0.12500000000E+03 0.  0.
</event>
<event>
 5    0  0.5728184E-005  0.3041596E+03  0.7546771E-02  0.1083180E+00
         21   -1    0    0  502  501  0.00000000000E+00  0.00000000000E+00  0.14712368601E+03  0.14712368601E+03  0.00000000000E+00 0.  1.
         21   -1    0    0  501  502 -0.00000000000E+00 -0.00000000000E+00 -0.62881131707E+03  0.62881131707E+03  0.00000000000E+00 0.  1.
         25    1    1    2    0    0  0.13869276416E+02 -0.52990159288E+02 -0.53682710800E+02  0.14665315288E+03  0.12500000000E+03 0.  0.
         25    1    1    2    0    0  0.17251896862E+03  0.26580681966E+02 -0.11596363873E+03  0.24401207489E+03  0.12500000000E+03 0.  0.
         25    1    1    2    0    0 -0.18638824504E+03  0.26409477323E+02 -0.31204128154E+03  0.38526977531E+03  0.12500000000E+03 0.  0.
</event>
<event>
 5    0  0.5728184E-005  0.2773810E+03  0.7546771E-02  0.1097128E+00
         21   -1    0    0  502  501  0.00000000000E+00  0.00000000000E+00  0.72813216145E+02  0.72813216145E+02  0.00000000000E+00 0.  1.
         21   -1    0    0  501  502 -0.00000000000E+00 -0.00000000000E+00 -0.10566794645E+04  0.10566794645E+04  0.00000000000E+00 0.  1.
         25    1    1    2    0    0  0.70100248845E+01  0.10264242621E+03 -0.17909225792E+03  0.24142005914E+03  0.12500000000E+03 0.  0.
         25    1    1    2    0    0  0.68231562551E+02  0.31199828205E+02 -0.17424909187E+03  0.22719313684E+03  0.12500000000E+03 0.  0.
         25    1    1    2    0    0 -0.75241587436E+02 -0.13384225441E+03 -0.63052489856E+03  0.66087948466E+03  0.12500000000E+03 0.  0.
</event>
<event>
 5    0  0.6016317E-005  0.3939411E+03  0.7546771E-02  0.1045898E+00
         21   -1    0    0  502  501  0.00000000000E+00  0.00000000000E+00  0.25891832085E+03  0.25891832085E+03  0.00000000000E+00 0. -1.
         21   -1    0    0  501  502 -0.00000000000E+00 -0.00000000000E+00 -0.59937666955E+03  0.59937666955E+03  0.00000000000E+00 0. -1.
         25    1    1    2    0    0  0.33513111721E+02  0.37404951023E+01 -0.35242810605E+03  0.37545664183E+03  0.12500000000E+03 0.  0.
         25    1    1    2    0    0  0.13027963537E+03  0.14173103466E+03  0.20719598359E+02  0.23046642127E+03  0.12500000000E+03 0.  0.
         25    1    1    2    0    0 -0.16379274709E+03 -0.14547152976E+03 -0.87498410037E+01  0.25237192730E+03  0.12500000000E+03 0.  0.
</event>
<event>
 5    0  0.5728184E-005  0.4118448E+03  0.7546771E-02  0.1039754E+00
         21   -1    0    0  502  501  0.00000000000E+00  0.00000000000E+00  0.20939148493E+03  0.20939148493E+03  0.00000000000E+00 0. -1.
         21   -1    0    0  501  502 -0.00000000000E+00 -0.00000000000E+00 -0.81004297856E+03  0.81004297856E+03  0.00000000000E+00 0. -1.
         25    1    1    2    0    0 -0.15417632021E+02 -0.73007919946E+02 -0.11642300656E+03  0.18640594467E+03  0.12500000000E+03 0.  0.
         25    1    1    2    0    0 -0.17995355072E+03  0.23348099094E+03 -0.44507746118E+03  0.54828423285E+03  0.12500000000E+03 0.  0.
         25    1    1    2    0    0  0.19537118274E+03 -0.16047307099E+03 -0.39151025889E+02  0.28474428596E+03  0.12500000000E+03 0.  0.
</event>
<event>
 5    0  0.5728184E-005  0.2907240E+03  0.7546771E-02  0.1089972E+00
         21   -1    0    0  502  501  0.00000000000E+00  0.00000000000E+00  0.88048394136E+02  0.88048394136E+02  0.00000000000E+00 0.  1.
         21   -1    0    0  501  502 -0.00000000000E+00 -0.00000000000E+00 -0.95993173883E+03  0.95993173883E+03  0.00000000000E+00 0.  1.
         25    1    1    2    0    0  0.10272185794E+03 -0.65128357996E+02 -0.50877634608E+03  0.53783998870E+03  0.12500000000E+03 0.  0.
         25    1    1    2    0    0 -0.81726919224E+02  0.62768876360E+02 -0.45654949561E+02  0.16831100851E+03  0.12500000000E+03 0.  0.
         25    1    1    2    0    0 -0.20994938720E+02  0.23594816364E+01 -0.31745204906E+03  0.34182913576E+03  0.12500000000E+03 0.  0.
</event>
<event>
 5    0  0.5728184E-005  0.3618671E+03  0.7546771E-02  0.1057847E+00
         21   -1    0    0  502  501  0.00000000000E+00  0.00000000000E+00  0.70833199854E+03  0.70833199854E+03  0.00000000000E+00 0. -1.
         21   -1    0    0  501  502 -0.00000000000E+00 -0.00000000000E+00 -0.18486780179E+03  0.18486780179E+03  0.00000000000E+00 0. -1.
         25    1    1    2    0    0  0.21659287170E+03  0.24941257630E+02 -0.15762549961E+02  0.25180944459E+03  0.12500000000E+03 0.  0.
         25    1    1    2    0    0 -0.14459823109E+03  0.23065732685E+02  0.26083899779E+03  0.32419540284E+03  0.12500000000E+03 0.  0.
         25    1    1    2    0    0 -0.71994640618E+02 -0.48006990315E+02  0.27838774892E+03  0.31719495290E+03  0.12500000000E+03 0.  0.
</event>
<event>
 5    0  0.5728184E-005  0.2544356E+03  0.7546771E-02  0.1110533E+00
         21   -1    0    0  502  501  0.00000000000E+00  0.00000000000E+00  0.86895796989E+02  0.86895796989E+02  0.00000000000E+00 0.  1.
         21   -1    0    0  501  502 -0.00000000000E+00 -0.00000000000E+00 -0.74500103049E+03  0.74500103049E+03  0.00000000000E+00 0.  1.
         25    1    1    2    0    0 -0.14371611664E+03 -0.14634324819E+02 -0.27214356817E+03  0.33249903359E+03  0.12500000000E+03 0.  0.
         25    1    1    2    0    0  0.25068187477E+02 -0.18587094468E+02 -0.23451399420E+03  0.26757374232E+03  0.12500000000E+03 0.  0.
         25    1    1    2    0    0  0.11864792916E+03  0.33221419287E+02 -0.15144767113E+03  0.23182405157E+03  0.12500000000E+03 0.  0.
</event>
<event>
 5    0  0.6041842E-005  0.2901627E+03  0.7546771E-02  0.1090264E+00
         21   -1    0    0  502  501  0.00000000000E+00  0.00000000000E+00  0.69045590727E+03  0.69045590727E+03  0.00000000000E+00 0. -1.
         21   -1    0    0  501  502 -0.00000000000E+00 -0.00000000000E+00 -0.12194026719E+03  0.12194026719E+03  0.00000000000E+00 0. -1.
         25    1    1    2    0    0 -0.42795128832E+02  0.21126816719E+02  0.14290624083E+02  0.13456220633E+03  0.12500000000E+03 0.  0.
         25    1    1    2    0    0  0.83295375432E+01  0.43529633584E+02  0.50908155169E+03  0.52607341357E+03  0.12500000000E+03 0.  0.
         25    1    1    2    0    0  0.34465591289E+02 -0.64656450303E+02  0.45143464307E+02  0.15176055455E+03  0.12500000000E+03 0.  0.
</event>
<event>
 5    0  0.5728184E-005  0.3360533E+03  0.7546771E-02  0.1068489E+00
         21   -1    0    0  502  501  0.00000000000E+00  0.00000000000E+00  0.10840787625E+04  0.10840787625E+04  0.00000000000E+00 0. -1.
         21   -1    0    0  501  502 -0.00000000000E+00 -0.00000000000E+00 -0.10417306444E+03  0.10417306444E+03  0.00000000000E+00 0. -1.
         25    1    1    2    0    0 -0.13579669390E+03 -0.14982206076E+03  0.45337748818E+03  0.51192141854E+03  0.12500000000E+03 0.  0.
         25    1    1    2    0    0  0.12405426929E+03  0.10758309903E+02  0.43165991770E+03  0.46632658890E+03  0.12500000000E+03 0.  0.
         25    1    1    2    0    0  0.11742424609E+02  0.13906375086E+03  0.94868292133E+02  0.21000381947E+03  0.12500000000E+03 0.  0.
</event>
<event>
 5    0  0.5942337E-005  0.3117233E+03  0.7546771E-02  0.1079523E+00
         21   -1    0    0  502  501  0.00000000000E+00  0.00000000000E+00  0.98650399470E+03  0.98650399470E+03  0.00000000000E+00 0.  1.
         21   -1    0    0  501  502 -0.00000000000E+00 -0.00000000000E+00 -0.98500767924E+02  0.98500767924E+02  0.00000000000E+00 0.  1.
         25    1    1    2    0    0 -0.42819804862E+02 -0.37274245694E+02  0.48802207156E+03  0.50696493706E+03  0.12500000000E+03 0.  0.
         25    1    1    2    0    0 -0.11839611132E+03  0.87912546584E+02  0.11851900822E+03  0.22675539758E+03  0.12500000000E+03 0.  0.
         25    1    1    2    0    0  0.16121591619E+03 -0.50638300890E+02  0.28146214699E+03  0.35128442797E+03  0.12500000000E+03 0.  0.
</event>
<event>
 5    0  0.5728184E-005  0.2295650E+03  0.7546771E-02  0.1126946E+00
         21   -1    0    0  502  501  0.00000000000E+00  0.00000000000E+00  0.41776494148E+03  0.41776494148E+03  0.00000000000E+00 0.  1.
         21   -1    0    0  501  502 -0.00000000000E+00 -0.00000000000E+00 -0.12614775388E+03  0.12614775388E+03  0.00000000000E+00 0.  1.
         25    1    1    2    0    0  0.20747032796E+02 -0.11378792378E+03  0.11509548098E+03  0.20554829289E+03  0.12500000000E+03 0.  0.
         25    1    1    2    0    0  0.44001143236E-01  0.92359672991E+02  0.65970021451E+02  0.16884121198E+03  0.12500000000E+03 0.  0.
         25    1    1    2    0    0 -0.20791033939E+02  0.21428250789E+02  0.11055168517E+03  0.16952319050E+03  0.12500000000E+03 0.  0.
</event>
<event>
 5    0  0.5728184E-005  0.2642406E+03  0.7546771E-02  0.1104622E+00
         21   -1    0    0  502  501  0.00000000000E+00  0.00000000000E+00  0.13026731680E+04  0.13026731680E+04  0.00000000000E+00 0.  1.
         21   -1    0    0  501  502 -0.00000000000E+00 -0.00000000000E+00 -0.53599840508E+02  0.53599840508E+02  0.00000000000E+00 0.  1.
         25    1    1    2    0    0  0.16796080350E+02  0.13444042441E+03  0.74996210782E+03  0.77228524471E+03  0.12500000000E+03 0.  0.
         25    1    1    2    0    0 -0.24649652144E+02 -0.12286666556E+03  0.30678905024E+03  0.35418687751E+03  0.12500000000E+03 0.  0.
         25    1    1    2    0    0  0.78535717935E+01 -0.11573758855E+02  0.19232216945E+03  0.22980088631E+03  0.12500000000E+03 0.  0.
</event>
<event>
 5    0  0.5728184E-005  0.2489839E+03  0.7546771E-02  0.1113949E+00
         21   -1    0    0  502  501  0.00000000000E+00  0.00000000000E+00  0.72024563372E+03  0.72024563372E+03  0.00000000000E+00 0.  1.
         21   -1    0    0  501  502 -0.00000000000E+00 -0.00000000000E+00 -0.86072027271E+02  0.86072027271E+02  0.00000000000E+00 0.  1.
         25    1    1    2    0    0 -0.36828113310E+02 -0.29550911884E+02  0.40145861827E+03  0.42311179198E+03  0.12500000000E+03 0.  0.
         25    1    1    2    0    0  0.87834931391E+02  0.31225796627E+02  0.18029002521E+03  0.23836845164E+03  0.12500000000E+03 0.  0.
         25    1    1    2    0    0 -0.51006818081E+02 -0.16748847432E+01  0.52424962962E+02  0.14483741737E+03  0.12500000000E+03 0.  0.
</event>
<event>
 5    0  0.5728184E-005  0.2984575E+03  0.7546771E-02  0.1086014E+00
         21   -1    0    0  502  501  0.00000000000E+00  0.00000000000E+00  0.84442329297E+03  0.84442329297E+03  0.00000000000E+00 0. -1.
         21   -1    0    0  501  502 -0.00000000000E+00 -0.00000000000E+00 -0.10548842921E+03  0.10548842921E+03  0.00000000000E+00 0. -1.
         25    1    1    2    0    0  0.23312963588E+02  0.73513719019E+02  0.60018153663E+03  0.61789209257E+03  0.12500000000E+03 0.  0.
         25    1    1    2    0    0 -0.16096703993E+02 -0.11144969204E+03  0.56466601808E+02  0.17746440447E+03  0.12500000000E+03 0.  0.
         25    1    1    2    0    0 -0.72162595955E+01  0.37935973024E+02  0.82286725319E+02  0.15455522513E+03  0.12500000000E+03 0.  0.
</event>
<event>
 5    0  0.5728184E-005  0.2282243E+03  0.7546771E-02  0.1127896E+00
         21   -1    0    0  502  501  0.00000000000E+00  0.00000000000E+00  0.52696028006E+03  0.52696028006E+03  0.00000000000E+00 0.  1.
         21   -1    0    0  501  502 -0.00000000000E+00 -0.00000000000E+00 -0.98842988923E+02  0.98842988923E+02  0.00000000000E+00 0.  1.
         25    1    1    2    0    0  0.19485836692E+02 -0.92852943439E+02  0.58055876023E+02  0.16732259763E+03  0.12500000000E+03 0.  0.
         25    1    1    2    0    0 -0.17000958217E+02  0.63195702092E+02  0.21400230073E+03  0.25632930785E+03  0.12500000000E+03 0.  0.
         25    1    1    2    0    0 -0.24848784746E+01  0.29657241347E+02  0.15605911439E+03  0.20215136351E+03  0.12500000000E+03 0.  0.
</event>
<event>
 5    0  0.5728184E-005  0.3885853E+03  0.7546771E-02  0.1047805E+00
         21   -1    0    0  502  501  0.00000000000E+00  0.00000000000E+00  0.67180997650E+03  0.67180997650E+03  0.00000000000E+00 0. -1.
         21   -1    0    0  501  502 -0.00000000000E+00 -0.00000000000E+00 -0.22476377373E+03  0.22476377373E+03  0.00000000000E+00 0. -1.
         25    1    1    2    0    0 -0.13865076163E+03 -0.67879205833E+02  0.51636393340E+03  0.55325250294E+03  0.12500000000E+03 0.  0.
         25    1    1    2    0    0  0.34863057877E+02  0.98375922343E+02  0.30342017676E+01  0.16287253078E+03  0.12500000000E+03 0.  0.
         25    1    1    2    0    0  0.10378770376E+03 -0.30496716511E+02 -0.72351932397E+02  0.18044871651E+03  0.12500000000E+03 0.  0.
</event>
<event>
 5    0  0.5728184E-005  0.3073948E+03  0.7546771E-02  0.1081601E+00
         21   -1    0    0  502  501  0.00000000000E+00  0.00000000000E+00  0.61535586125E+02  0.61535586125E+02  0.00000000000E+00 0.  1.
         21   -1    0    0  501  502 -0.00000000000E+00 -0.00000000000E+00 -0.15355596900E+04  0.15355596900E+04  0.00000000000E+00 0.  1.
         25    1    1    2    0    0  0.14304781073E+03  0.13615627459E+03 -0.94238161825E+03  0.97093219212E+03  0.12500000000E+03 0.  0.
         25    1    1    2    0    0 -0.51730938472E+02 -0.10871905335E+03 -0.27390744228E+03  0.32426256259E+03  0.12500000000E+03 0.  0.
         25    1    1    2    0    0 -0.91316872255E+02 -0.27437221236E+02 -0.25773504330E+03  0.30190052138E+03  0.12500000000E+03 0.  0.
</event>
<event>
 5    0  0.5728184E-005  0.3204572E+03  0.7546771E-02  0.1075439E+00
         21   -1    0    0  502  501  0.00000000000E+00  0.00000000000E+00  0.27259700040E+03  0.27259700040E+03  0.00000000000E+00 0.  1.
         21   -1    0    0  501  502 -0.00000000000E+00 -0.00000000000E+00 -0.37672038682E+03  0.37672038682E+03  0.00000000000E+00 0.  1.
         25    1    1    2    0    0 -0.32224647380E+02 -0.13871575272E+03  0.68166502461E+02  0.20137566886E+03  0.12500000000E+03 0.  0.
         25    1    1    2    0    0  0.12199302476E+03 -0.37112138758E+02 -0.91989969625E+02  0.20086503788E+03  0.12500000000E+03 0.  0.
         25    1    1    2    0    0 -0.89768377378E+02  0.17582789148E+03 -0.80299919261E+02  0.24707668047E+03  0.12500000000E+03 0.  0.
</event>
<event>
 5    0  0.5728184E-005  0.2790939E+03  0.7546771E-02  0.1096185E+00
         21   -1    0    0  502  501  0.00000000000E+00  0.00000000000E+00  0.15934041809E+04  0.15934041809E+04  0.00000000000E+00 0. -1.
         21   -1    0    0  501  502 -0.00000000000E+00 -0.00000000000E+00 -0.48884901630E+02  0.48884901630E+02  0.00000000000E+00 0. -1.
         25    1    1    2    0    0  0.15617533726E+03  0.10052866498E+02  0.43070368800E+03  0.47499732941E+03  0.12500000000E+03 0.  0.
         25    1    1    2    0    0 -0.17771504383E+03  0.91574614885E+01  0.61789030189E+03  0.65504192314E+03  0.12500000000E+03 0.  0.
         25    1    1    2    0    0  0.21539706571E+02 -0.19210327987E+02  0.49592528939E+03  0.51224982998E+03  0.12500000000E+03 0.  0.
</event>
<event>
 5    0  0.5728184E-005  0.2608952E+03  0.7546771E-02  0.1106607E+00
         21   -1    0    0  502  501  0.00000000000E+00  0.00000000000E+00  0.15564446463E+03  0.15564446463E+03  0.00000000000E+00 0. -1.
         21   -1    0    0  501  502 -0.00000000000E+00 -0.00000000000E+00 -0.43731909223E+03  0.43731909223E+03  0.00000000000E+00 0. -1.
         25    1    1    2    0    0 -0.65396220711E+02  0.75375767388E+01 -0.29546633226E+02  0.14433116185E+03  0.12500000000E+03 0.  0.
         25    1    1    2    0    0  0.51655380962E+02 -0.31761169790E+02 -0.28443775544E+03  0.31655471408E+03  0.12500000000E+03 0.  0.
         25    1    1    2    0    0  0.13740839750E+02  0.24223593051E+02  0.32309761061E+02  0.13207768092E+03  0.12500000000E+03 0.  0.
</event>
<event>
 5    0  0.5728184E-005  0.3045137E+03  0.7546771E-02  0.1083006E+00
         21   -1    0    0  502  501  0.00000000000E+00  0.00000000000E+00  0.53061778848E+02  0.53061778848E+02  0.00000000000E+00 0.  1.
         21   -1    0    0  501  502 -0.00000000000E+00 -0.00000000000E+00 -0.17475590997E+04  0.17475590997E+04  0.00000000000E+00 0.  1.
         25    1    1    2    0    0  0.32455372159E+02 -0.94871354864E+02 -0.72542625587E+03  0.74291465046E+03  0.12500000000E+03 0.  0.
         25    1    1    2    0    0 -0.16958425559E+03  0.80527590425E+02 -0.65373981273E+03  0.69155206262E+03  0.12500000000E+03 0.  0.
         25    1    1    2    0    0  0.13712888343E+03  0.14343764439E+02 -0.31533125227E+03  0.36615416549E+03  0.12500000000E+03 0.  0.
</event>
<event>
 5    0  0.5728184E-005  0.2256108E+03  0.7546771E-02  0.1129768E+00
         21   -1    0    0  502  501  0.00000000000E+00  0.00000000000E+00  0.10720830554E+03  0.10720830554E+03  0.00000000000E+00 0.  1.
         21   -1    0    0  501  502 -0.00000000000E+00 -0.00000000000E+00 -0.47477872396E+03  0.47477872396E+03  0.00000000000E+00 0.  1.
         25    1    1    2    0    0  0.37533872010E+01 -0.81704315746E+02 -0.86352726389E+02  0.17254412909E+03  0.12500000000E+03 0.  0.
         25    1    1    2    0    0 -0.45629658781E+02  0.66581224104E+02 -0.21413722242E+03  0.26075826965E+03  0.12500000000E+03 0.  0.
         25    1    1    2    0    0  0.41876271580E+02  0.15123091642E+02 -0.67080469611E+02  0.14868463076E+03  0.12500000000E+03 0.  0.
</event>
<event>
 5    0  0.5728184E-005  0.2805426E+03  0.7546771E-02  0.1095393E+00
         21   -1    0    0  502  501  0.00000000000E+00  0.00000000000E+00  0.26701682173E+03  0.26701682173E+03  0.00000000000E+00 0. -1.
         21   -1    0    0  501  502 -0.00000000000E+00 -0.00000000000E+00 -0.29475350735E+03  0.29475350735E+03  0.00000000000E+00 0. -1.
         25    1    1    2    0    0  0.25027701593E+02 -0.10785003715E+03  0.10888553166E+03  0.19934662116E+03  0.12500000000E+03 0.  0.
         25    1    1    2    0    0  0.58276757511E+02  0.12049537851E+03 -0.93518899352E+02  0.20563584620E+03  0.12500000000E+03 0.  0.
         25    1    1    2    0    0 -0.83304459103E+02 -0.12645341354E+02 -0.43103317926E+02  0.15678786171E+03  0.12500000000E+03 0.  0.
</event>
<event>
 5    0  0.5728184E-005  0.2927423E+03  0.7546771E-02  0.1088926E+00
         21   -1    0    0  502  501  0.00000000000E+00  0.00000000000E+00  0.27255510038E+03  0.27255510038E+03  0.00000000000E+00 0. -1.
         21   -1    0    0  501  502 -0.00000000000E+00 -0.00000000000E+00 -0.31442471570E+03  0.31442471570E+03  0.00000000000E+00 0. -1.
         25    1    1    2    0    0 -0.34084892671E+02  0.13117332335E+03 -0.10392445039E+03  0.21164477800E+03  0.12500000000E+03 0.  0.
         25    1    1    2    0    0  0.63418538942E+02 -0.14260000358E+02  0.12725078779E+03  0.18984999786E+03  0.12500000000E+03 0.  0.
         25    1    1    2    0    0 -0.29333646270E+02 -0.11691332299E+03 -0.65195952715E+02  0.18548504022E+03  0.12500000000E+03 0.  0.
</event>
<event>
 5    0  0.5728184E-005  0.4148633E+03  0.7546771E-02  0.1038751E+00
         21   -1    0    0  502  501  0.00000000000E+00  0.00000000000E+00  0.49687937536E+03  0.49687937536E+03  0.00000000000E+00 0.  1.
         21   -1    0    0  501  502 -0.00000000000E+00 -0.00000000000E+00 -0.34638493541E+03  0.34638493541E+03  0.00000000000E+00 0.  1.
         25    1    1    2    0    0  0.24503848416E+03 -0.17685509929E+03  0.10765702429E+02  0.32720404217E+03  0.12500000000E+03 0.  0.
         25    1    1    2    0    0 -0.22858815410E+03  0.19217649675E+02  0.17038096175E+03  0.31189186329E+03  0.12500000000E+03 0.  0.
         25    1    1    2    0    0 -0.16450330058E+02  0.15763744961E+03 -0.30652224230E+02  0.20416840532E+03  0.12500000000E+03 0.  0.
</event>
<event>
 5    0  0.5728184E-005  0.2265441E+03  0.7546771E-02  0.1129096E+00
         21   -1    0    0  502  501  0.00000000000E+00  0.00000000000E+00  0.99163017298E+02  0.99163017298E+02  0.00000000000E+00 0. -1.
         21   -1    0    0  501  502 -0.00000000000E+00 -0.00000000000E+00 -0.51755401054E+03  0.51755401054E+03  0.00000000000E+00 0. -1.
         25    1    1    2    0    0  0.53252956777E+02  0.47647153432E+02 -0.51644221685E+02  0.15296487920E+03  0.12500000000E+03 0.  0.
         25    1    1    2    0    0 -0.11610739215E+02 -0.60282791022E+02 -0.12036729477E+03  0.18407093690E+03  0.12500000000E+03 0.  0.
         25    1    1    2    0    0 -0.41642217563E+02  0.12635637590E+02 -0.24637947678E+03  0.27968121174E+03  0.12500000000E+03 0.  0.
</event>
<event>
 5    0  0.5728184E-005  0.2746833E+03  0.7546771E-02  0.1098629E+00
         21   -1    0    0  502  501  0.00000000000E+00  0.00000000000E+00  0.11984468022E+03  0.11984468022E+03  0.00000000000E+00 0.  1.
         21   -1    0    0  501  502 -0.00000000000E+00 -0.00000000000E+00 -0.62957258095E+03  0.62957258095E+03  0.00000000000E+00 0.  1.
         25    1    1    2    0    0 -0.17654622338E+03  0.14468651362E+02 -0.21544716300E+03  0.30564749452E+03  0.12500000000E+03 0.  0.
         25    1    1    2    0    0  0.13898414371E+02 -0.32174215084E+01 -0.12788051705E+03  0.17939326733E+03  0.12500000000E+03 0.  0.
         25    1    1    2    0    0  0.16264780901E+03 -0.11251229853E+02 -0.16640022069E+03  0.26437649932E+03  0.12500000000E+03 0.  0.
</event>
<event>
 5    0  0.5728184E-005  0.2638947E+03  0.7546771E-02  0.1104826E+00
         21   -1    0    0  502  501  0.00000000000E+00  0.00000000000E+00  0.74405130964E+03  0.74405130964E+03  0.00000000000E+00 0. -1.
         21   -1    0    0  501  502 -0.00000000000E+00 -0.00000000000E+00 -0.93596215020E+02  0.93596215020E+02  0.00000000000E+00 0. -1.
         25    1    1    2    0    0  0.98362521780E+02  0.74623275773E+01  0.28320602530E+03  0.32490233115E+03  0.12500000000E+03 0.  0.
         25    1    1    2    0    0  0.59518559164E+02  0.41963588112E+02  0.19725374002E+03  0.24461692412E+03  0.12500000000E+03 0.  0.
         25    1    1    2    0    0 -0.15788108094E+03 -0.49425915689E+02  0.16999532930E+03  0.26812826939E+03  0.12500000000E+03 0.  0.
</event>
<event>
 5    0  0.5728184E-005  0.2278785E+03  0.7546771E-02  0.1128142E+00
         21   -1    0    0  502  501  0.00000000000E+00  0.00000000000E+00  0.67373744603E+03  0.67373744603E+03  0.00000000000E+00 0.  1.
         21   -1    0    0  501  502 -0.00000000000E+00 -0.00000000000E+00 -0.77075433205E+02  0.77075433205E+02  0.00000000000E+00 0.  1.
         25    1    1    2    0    0  0.49869860706E+01 -0.27923515804E+02  0.54035070783E+02  0.13910205476E+03  0.12500000000E+03 0.  0.
         25    1    1    2    0    0 -0.35522774337E+02 -0.38977071751E+02  0.22891791966E+03  0.26610053281E+03  0.12500000000E+03 0.  0.
         25    1    1    2    0    0  0.30535788267E+02  0.66900587555E+02  0.31370902238E+03  0.34561029166E+03  0.12500000000E+03 0.  0.
</event>
<event>
 5    0  0.5728184E-005  0.4545354E+03  0.7546771E-02  0.1026378E+00
         21   -1    0    0  502  501  0.00000000000E+00  0.00000000000E+00  0.68417816790E+03  0.68417816790E+03  0.00000000000E+00 0. -1.
         21   -1    0    0  501  502 -0.00000000000E+00 -0.00000000000E+00 -0.30197166939E+03  0.30197166939E+03  0.00000000000E+00 0. -1.
         25    1    1    2    0    0  0.12880805396E+03  0.19577234609E+03  0.65157684786E+02  0.27347550191E+03  0.12500000000E+03 0.  0.
         25    1    1    2    0    0 -0.82330543097E+02 -0.17029414445E+03  0.46165154756E+03  0.51432048893E+03  0.12500000000E+03 0.  0.
         25    1    1    2    0    0 -0.46477510864E+02 -0.25478201633E+02 -0.14460273384E+03  0.19835384647E+03  0.12500000000E+03 0.  0.
</event>
<event>
 5    0  0.6430711E-005  0.2941689E+03  0.7546771E-02  0.1088192E+00
         21   -1    0    0  502  501  0.00000000000E+00  0.00000000000E+00  0.89621215903E+02  0.89621215903E+02  0.00000000000E+00 0. -1.
         21   -1    0    0  501  502 -0.00000000000E+00 -0.00000000000E+00 -0.96556772258E+03  0.96556772258E+03  0.00000000000E+00 0. -1.
         25    1    1    2    0    0  0.38987225659E+02 -0.19112365894E+02 -0.70643615888E+02  0.15000268918E+03  0.12500000000E+03 0.  0.
         25    1    1    2    0    0 -0.15858366924E+03 -0.24675464275E+01 -0.61402184271E+03  0.64637658703E+03  0.12500000000E+03 0.  0.
         25    1    1    2    0    0  0.11959644358E+03  0.21579912322E+02 -0.19128104808E+03  0.25880966227E+03  0.12500000000E+03 0.  0.
</event>
<event>
 5    0  0.5728184E-005  0.2867668E+03  0.7546771E-02  0.1092049E+00
         21   -1    0    0  502  501  0.00000000000E+00  0.00000000000E+00  0.80938579116E+03  0.80938579116E+03  0.00000000000E+00 0.  1.
         21   -1    0    0  501  502 -0.00000000000E+00 -0.00000000000E+00 -0.10160200700E+03  0.10160200700E+03  0.00000000000E+00 0.  1.
         25    1    1    2    0    0  0.77761723003E+02  0.89770899287E+02  0.41258460371E+03  0.44716524367E+03  0.12500000000E+03 0.  0.
         25    1    1    2    0    0 -0.11814641730E+03 -0.13463728121E+03  0.16827507111E+03  0.27573043534E+03  0.12500000000E+03 0.  0.
         25    1    1    2    0    0  0.40384694301E+02  0.44866381919E+02  0.12692410933E+03  0.18809211916E+03  0.12500000000E+03 0.  0.
</event>
<event>
 5    0  0.5728184E-005  0.2324403E+03  0.7546771E-02  0.1124934E+00
         21   -1    0    0  502  501  0.00000000000E+00  0.00000000000E+00  0.39408596416E+03  0.39408596416E+03  0.00000000000E+00 0. -1.
         21   -1    0    0  501  502 -0.00000000000E+00 -0.00000000000E+00 -0.13709825495E+03  0.13709825495E+03  0.00000000000E+00 0. -1.
         25    1    1    2    0    0 -0.94373201467E+02  0.10622670167E+02  0.18618640220E+03  0.24353545664E+03  0.12500000000E+03 0.  0.
         25    1    1    2    0    0  0.91296880716E+01 -0.14228789735E+01  0.15493586526E+02  0.12629499995E+03  0.12500000000E+03 0.  0.
         25    1    1    2    0    0  0.85243513396E+02 -0.91997911937E+01  0.55307720489E+02  0.16135376252E+03  0.12500000000E+03 0.  0.
</event>
<event>
 5    0  0.7418668E-005  0.5511323E+03  0.7546771E-02  0.1001232E+00
         21   -1    0    0  502  501  0.00000000000E+00  0.00000000000E+00  0.75580575108E+03  0.75580575108E+03  0.00000000000E+00 0. -1.
         21   -1    0    0  501  502 -0.00000000000E+00 -0.00000000000E+00 -0.40188474769E+03  0.40188474769E+03  0.00000000000E+00 0. -1.
         25    1    1    2    0    0  0.50356310235E+02 -0.31416583936E+03  0.11672995095E+03  0.36122958634E+03  0.12500000000E+03 0.  0.
         25    1    1    2    0    0 -0.76711448875E+02  0.11287762715E+03  0.44389161009E+03  0.48092698677E+03  0.12500000000E+03 0.  0.
         25    1    1    2    0    0  0.26355138641E+02  0.20128821220E+03 -0.20670055765E+03  0.31553392565E+03  0.12500000000E+03 0.  0.
</event>
<event>
 5    0  0.5728184E-005  0.2854360E+03  0.7546771E-02  0.1092756E+00
         21   -1    0    0  502  501  0.00000000000E+00  0.00000000000E+00  0.47011155090E+02  0.47011155090E+02  0.00000000000E+00 0.  1.
         21   -1    0    0  501  502 -0.00000000000E+00 -0.00000000000E+00 -0.17330712569E+04  0.17330712569E+04  0.00000000000E+00 0.  1.
         25    1    1    2    0    0  0.60262197062E+02  0.17146130625E+03 -0.92254327039E+03  0.94854709829E+03  0.12500000000E+03 0.  0.
         25    1    1    2    0    0 -0.34667001995E+01 -0.13284543822E+03 -0.49389609110E+03  0.52651522036E+03  0.12500000000E+03 0.  0.
         25    1    1    2    0    0 -0.56795496862E+02 -0.38615868029E+02 -0.26962074028E+03  0.30502009330E+03  0.12500000000E+03 0.  0.
</event>
<event>
 5    0  0.5728184E-005  0.3298882E+03  0.7546771E-02  0.1071186E+00
         21   -1    0    0  502  501  0.00000000000E+00  0.00000000000E+00  0.62559161818E+03  0.62559161818E+03  0.00000000000E+00 0. -1.
         21   -1    0    0  501  502 -0.00000000000E+00 -0.00000000000E+00 -0.17395730292E+03  0.17395730292E+03  0.00000000000E+00 0. -1.
         25    1    1    2    0    0  0.54651815359E+02  0.20255351332E+03  0.26789674761E+03  0.36250298490E+03  0.12500000000E+03 0.  0.
         25    1    1    2    0    0 -0.58001662930E+02 -0.11988381445E+03 -0.20395024602E+02  0.18378595947E+03  0.12500000000E+03 0.  0.
         25    1    1    2    0    0  0.33498475715E+01 -0.82669698878E+02  0.20413259226E+03  0.25325997673E+03  0.12500000000E+03 0.  0.
</event>
<event>
 5    0  0.5728184E-005  0.2999631E+03  0.7546771E-02  0.1085259E+00
         21   -1    0    0  502  501  0.00000000000E+00  0.00000000000E+00  0.17726650631E+03  0.17726650631E+03  0.00000000000E+00 0. -1.
         21   -1    0    0  501  502 -0.00000000000E+00 -0.00000000000E+00 -0.50758517398E+03  0.50758517398E+03  0.00000000000E+00 0. -1.
         25    1    1    2    0    0  0.11391043717E+03  0.10348319825E+03 -0.19333034426E+03  0.27692233935E+03  0.12500000000E+03 0.  0.
         25    1    1    2    0    0  0.31085970547E+02 -0.13606196422E+01 -0.14091471476E+03  0.19091921246E+03  0.12500000000E+03 0.  0.
         25    1    1    2    0    0 -0.14499640772E+03 -0.10212257861E+03  0.39263913475E+01  0.21701012848E+03  0.12500000000E+03 0.  0.
</event>
<event>
 5    0  0.5728184E-005  0.2914144E+03  0.7546771E-02  0.1089613E+00
         21   -1    0    0  502  501  0.00000000000E+00  0.00000000000E+00  0.29357389290E+03  0.29357389290E+03  0.00000000000E+00 0.  1.
         21   -1    0    0  501  502 -0.00000000000E+00 -0.00000000000E+00 -0.28927086419E+03  0.28927086419E+03  0.00000000000E+00 0.  1.
         25    1    1    2    0    0 -0.10530956452E+03 -0.13989597480E+03  0.41371690624E+02  0.21908355696E+03  0.12500000000E+03 0.  0.
         25    1    1    2    0    0  0.10453469337E+03  0.15835192284E+03  0.13597761927E+02  0.22762410398E+03  0.12500000000E+03 0.  0.
         25    1    1    2    0    0  0.77487114444E+00 -0.18455948033E+02 -0.50666423833E+02  0.13613709615E+03  0.12500000000E+03 0.  0.
</event>
<event>
 5    0  0.5728184E-005  0.2942384E+03  0.7546771E-02  0.1088157E+00
         21   -1    0    0  502  501  0.00000000000E+00  0.00000000000E+00  0.37292269677E+03  0.37292269677E+03  0.00000000000E+00 0.  1.
         21   -1    0    0  501  502 -0.00000000000E+00 -0.00000000000E+00 -0.23215597290E+03  0.23215597290E+03  0.00000000000E+00 0.  1.
         25    1    1    2    0    0 -0.52377966308E+02  0.17495745442E+02  0.48545492979E+02  0.14502143756E+03  0.12500000000E+03 0.  0.
         25    1    1    2    0    0  0.87399194746E+02  0.81769530201E+02  0.19986104048E+03  0.26437532187E+03  0.12500000000E+03 0.  0.
         25    1    1    2    0    0 -0.35021228438E+02 -0.99265275643E+02 -0.10763980958E+03  0.19568191024E+03  0.12500000000E+03 0.  0.
</event>
<event>
 5    0  0.5728184E-005  0.4030238E+03  0.7546771E-02  0.1042738E+00
         21   -1    0    0  502  501  0.00000000000E+00  0.00000000000E+00  0.20087727021E+03  0.20087727021E+03  0.00000000000E+00 0.  1.
         21   -1    0    0  501  502 -0.00000000000E+00 -0.00000000000E+00 -0.80859427187E+03  0.80859427187E+03  0.00000000000E+00 0.  1.
         25    1    1    2    0    0  0.20752621372E+03  0.72546528394E+00 -0.87896587268E+02  0.25771780252E+03  0.12500000000E+03 0.  0.
         25    1    1    2    0    0 -0.29855236649E+03  0.88951151666E+02 -0.21571508741E+03  0.39900353614E+03  0.12500000000E+03 0.  0.
         25    1    1    2    0    0  0.91026152763E+02 -0.89676616950E+02 -0.30410532698E+03  0.35275020342E+03  0.12500000000E+03 0.  0.
</event>
<event>
 5    0  0.5728184E-005  0.2744155E+03  0.7546771E-02  0.1098779E+00
         21   -1    0    0  502  501  0.00000000000E+00  0.00000000000E+00  0.15969717740E+03  0.15969717740E+03  0.00000000000E+00 0. -1.
         21   -1    0    0  501  502 -0.00000000000E+00 -0.00000000000E+00 -0.47154155866E+03  0.47154155866E+03  0.00000000000E+00 0. -1.
         25    1    1    2    0    0  0.60107681017E+02 -0.10010306312E+03 -0.18646913653E+02  0.17206470862E+03  0.12500000000E+03 0.  0.
         25    1    1    2    0    0 -0.66096698304E+02 -0.45865953137E+02 -0.18909750848E+03  0.24053134285E+03  0.12500000000E+03 0.  0.
         25    1    1    2    0    0  0.59890172871E+01  0.14596901626E+03 -0.10409995913E+03  0.21864268459E+03  0.12500000000E+03 0.  0.
</event>
<event>
 5    0  0.5728184E-005  0.2509966E+03  0.7546771E-02  0.1112677E+00
         21   -1    0    0  502  501  0.00000000000E+00  0.00000000000E+00  0.79206904085E+02  0.79206904085E+02  0.00000000000E+00 0. -1.
         21   -1    0    0  501  502 -0.00000000000E+00 -0.00000000000E+00 -0.79537635386E+03  0.79537635386E+03  0.00000000000E+00 0. -1.
         25    1    1    2    0    0 -0.11232419015E+03  0.56022040415E+02 -0.34815705864E+03  0.39063221857E+03  0.12500000000E+03 0.  0.
         25    1    1    2    0    0  0.10864988018E+03  0.15909910909E+02 -0.23342307880E+03  0.28665180175E+03  0.12500000000E+03 0.  0.
         25    1    1    2    0    0  0.36743099699E+01 -0.71931951324E+02 -0.13458931234E+03  0.19729923764E+03  0.12500000000E+03 0.  0.
</event>
<event>
 5    0  0.5728184E-005  0.2897188E+03  0.7546771E-02  0.1090496E+00
         21   -1    0    0  502  501  0.00000000000E+00  0.00000000000E+00  0.14484356327E+04  0.14484356327E+04  0.00000000000E+00 0. -1.
         21   -1    0    0  501  502 -0.00000000000E+00 -0.00000000000E+00 -0.57950089500E+02  0.57950089500E+02  0.00000000000E+00 0. -1.
         25    1    1    2    0    0  0.89872521821E+02  0.89329417956E+02  0.39169184925E+03  0.43023751564E+03  0.12500000000E+03 0.  0.
         25    1    1    2    0    0 -0.74162807953E+02  0.24673114602E+02  0.80513360410E+03  0.81851939813E+03  0.12500000000E+03 0.  0.
         25    1    1    2    0    0 -0.15709713868E+02 -0.11400253256E+03  0.19366008990E+03  0.25762880848E+03  0.12500000000E+03 0.  0.
</event>
<event>
 5    0  0.5728184E-005  0.3150981E+03  0.7546771E-02  0.1077928E+00
         21   -1    0    0  502  501  0.00000000000E+00  0.00000000000E+00  0.36218366264E+03  0.36218366264E+03  0.00000000000E+00 0. -1.
         21   -1    0    0  501  502 -0.00000000000E+00 -0.00000000000E+00 -0.27413392973E+03  0.27413392973E+03  0.00000000000E+00 0. -1.
         25    1    1    2    0    0  0.13883809463E+03 -0.15977766850E+03  0.73161565766E+02  0.25648106086E+03  0.12500000000E+03 0.  0.
         25    1    1    2    0    0  0.26843448193E+02  0.66080316825E+02  0.43457468516E+02  0.15033539355E+03  0.12500000000E+03 0.  0.
         25    1    1    2    0    0 -0.16568154282E+03  0.93697351676E+02 -0.28569301372E+02  0.22950113796E+03  0.12500000000E+03 0.  0.
</event>
<event>
 5    0  0.5728184E-005  0.3451658E+03  0.7546771E-02  0.1064617E+00
         21   -1    0    0  502  501  0.00000000000E+00  0.00000000000E+00  0.28216439284E+03  0.28216439284E+03  0.00000000000E+00 0. -1.
         21   -1    0    0  501  502 -0.00000000000E+00 -0.00000000000E+00 -0.42223409058E+03  0.42223409058E+03  0.00000000000E+00 0. -1.
         25    1    1    2    0    0 -0.60691906622E+02  0.48798595570E+02 -0.24107343953E+03  0.28249993576E+03  0.12500000000E+03 0.  0.
         25    1    1    2    0    0  0.41844791556E+02 -0.60680853137E+01 -0.11030177007E+03  0.17198630387E+03  0.12500000000E+03 0.  0.
         25    1    1    2    0    0  0.18847115066E+02 -0.42730510256E+02  0.21130551186E+03  0.24991224378E+03  0.12500000000E+03 0.  0.
</event>
<event>
 5    0  0.5728184E-005  0.2547086E+03  0.7546771E-02  0.1110365E+00
         21   -1    0    0  502  501  0.00000000000E+00  0.00000000000E+00  0.40201741763E+03  0.40201741763E+03  0.00000000000E+00 0. -1.
         21   -1    0    0  501  502 -0.00000000000E+00 -0.00000000000E+00 -0.16137726523E+03  0.16137726523E+03  0.00000000000E+00 0. -1.
         25    1    1    2    0    0 -0.13322648459E+03 -0.28857161048E+01  0.87181642974E+02  0.20244323260E+03  0.12500000000E+03 0.  0.
         25    1    1    2    0    0 -0.15086581864E+02  0.84549569055E+01  0.96073275632E+02  0.15860064798E+03  0.12500000000E+03 0.  0.
         25    1    1    2    0    0  0.14831306646E+03 -0.55692408007E+01  0.57385233795E+02  0.20235080228E+03  0.12500000000E+03 0.  0.
</event>
<event>
 5    0  0.5728184E-005  0.2379638E+03  0.7546771E-02  0.1121157E+00
         21   -1    0    0  502  501  0.00000000000E+00  0.00000000000E+00  0.24687973282E+03  0.24687973282E+03  0.00000000000E+00 0. -1.
         21   -1    0    0  501  502 -0.00000000000E+00 -0.00000000000E+00 -0.22936978495E+03  0.22936978495E+03  0.00000000000E+00 0. -1.
         25    1    1    2    0    0 -0.30539715188E+02  0.82297909383E+02  0.35177887320E+02  0.15674215722E+03  0.12500000000E+03 0.  0.
         25    1    1    2    0    0 -0.47454364549E+02  0.10209593773E+02 -0.48945991521E+02  0.14274754851E+03  0.12500000000E+03 0.  0.
         25    1    1    2    0    0  0.77994079737E+02 -0.92507503156E+02  0.31278052067E+02  0.17675981205E+03  0.12500000000E+03 0.  0.
</event>
<event>
 5    0  0.5728184E-005  0.4948824E+03  0.7546771E-02  0.1015123E+00
         21   -1    0    0  502  501  0.00000000000E+00  0.00000000000E+00  0.26603049160E+03  0.26603049160E+03  0.00000000000E+00 0.  1.
         21   -1    0    0  501  502 -0.00000000000E+00 -0.00000000000E+00 -0.92060341733E+03  0.92060341733E+03  0.00000000000E+00 0.  1.
         25    1    1    2    0    0 -0.40348287913E+02  0.27424987156E+03 -0.33579386536E+03  0.45301600016E+03  0.12500000000E+03 0.  0.
         25    1    1    2    0    0  0.12893308119E+03  0.18225367653E+02 -0.35819163127E+03  0.40110116949E+03  0.12500000000E+03 0.  0.
         25    1    1    2    0    0 -0.88584793278E+02 -0.29247523922E+03  0.39412570901E+02  0.33251673928E+03  0.12500000000E+03 0.  0.
</event>
<event>
 5    0  0.5728184E-005  0.3100483E+03  0.7546771E-02  0.1080323E+00
         21   -1    0    0  502  501  0.00000000000E+00  0.00000000000E+00  0.55022771665E+03  0.55022771665E+03  0.00000000000E+00 0. -1.
         21   -1    0    0  501  502 -0.00000000000E+00 -0.00000000000E+00 -0.17470944407E+03  0.17470944407E+03  0.00000000000E+00 0. -1.
         25    1    1    2    0    0 -0.60602627599E+02  0.30441831804E+02  0.14190630223E+03  0.20090241962E+03  0.12500000000E+03 0.  0.
         25    1    1    2    0    0 -0.64857135378E+02  0.12124837075E+03 -0.10910679998E+02  0.18614955911E+03  0.12500000000E+03 0.  0.
         25    1    1    2    0    0  0.12545976298E+03 -0.15169020255E+03  0.24452265034E+03  0.33788518199E+03  0.12500000000E+03 0.  0.
</event>
<event>
 5    0  0.5728184E-005  0.3124936E+03  0.7546771E-02  0.1079157E+00
         21   -1    0    0  502  501  0.00000000000E+00  0.00000000000E+00  0.54647028745E+03  0.54647028745E+03  0.00000000000E+00 0. -1.
         21   -1    0    0  501  502 -0.00000000000E+00 -0.00000000000E+00 -0.17869640460E+03  0.17869640460E+03  0.00000000000E+00 0. -1.
         25    1    1    2    0    0 -0.36166308894E+02 -0.96848794743E+02 -0.74299262718E+02  0.17841824846E+03  0.12500000000E+03 0.  0.
         25    1    1    2    0    0  0.72546985685E+02 -0.13191220034E+02  0.25691817198E+03  0.29507460160E+03  0.12500000000E+03 0.  0.
         25    1    1    2    0    0 -0.36380676792E+02  0.11004001478E+03  0.18515497359E+03  0.25167384198E+03  0.12500000000E+03 0.  0.
</event>
<event>
 5    0  0.5728184E-005  0.5171112E+03  0.7546771E-02  0.1009407E+00
         21   -1    0    0  502  501  0.00000000000E+00  0.00000000000E+00  0.12695152939E+03  0.12695152939E+03  0.00000000000E+00 0. -1.
         21   -1    0    0  501  502 -0.00000000000E+00 -0.00000000000E+00 -0.21063470781E+04  0.21063470781E+04  0.00000000000E+00 0. -1.
         25    1    1    2    0    0  0.15590604560E+03  0.22781368459E+03 -0.32250791783E+03  0.44254053713E+03  0.12500000000E+03 0.  0.
         25    1    1    2    0    0 -0.18689781125E+03  0.93024150634E+02 -0.27919555905E+03  0.37035043492E+03  0.12500000000E+03 0.  0.
         25    1    1    2    0    0  0.30991765655E+02 -0.32083783522E+03 -0.13776920719E+04  0.14204076355E+04  0.12500000000E+03 0.  0.
</event>
<event>
 5    0  0.5728184E-005  0.2983887E+03  0.7546771E-02  0.1086049E+00
         21   -1    0    0  502  501  0.00000000000E+00  0.00000000000E+00  0.27966428206E+03  0.27966428206E+03  0.00000000000E+00 0.  1.
         21   -1    0    0  501  502 -0.00000000000E+00 -0.00000000000E+00 -0.31836670451E+03  0.31836670451E+03  0.00000000000E+00 0.  1.
         25    1    1    2    0    0 -0.93530473417E+02  0.93515299437E+02 -0.61784618031E+02  0.19218584680E+03  0.12500000000E+03 0.  0.
         25    1    1    2    0    0 -0.20885378884E+02 -0.12797319339E+03  0.11129537976E+03  0.21171915084E+03  0.12500000000E+03 0.  0.
         25    1    1    2    0    0  0.11441585230E+03  0.34457893952E+02 -0.88213184180E+02  0.19412598893E+03  0.12500000000E+03 0.  0.
</event>
<event>
 5    0  0.5728184E-005  0.2635552E+03  0.7546771E-02  0.1105026E+00
         21   -1    0    0  502  501  0.00000000000E+00  0.00000000000E+00  0.54462733838E+02  0.54462733838E+02  0.00000000000E+00 0.  1.
         21   -1    0    0  501  502 -0.00000000000E+00 -0.00000000000E+00 -0.12753918504E+04  0.12753918504E+04  0.00000000000E+00 0.  1.
         25    1    1    2    0    0  0.60894263958E+02  0.20491003591E+02 -0.20030497753E+03  0.24469384266E+03  0.12500000000E+03 0.  0.
         25    1    1    2    0    0  0.15919922187E+02 -0.21503436843E+02 -0.12922920689E+03  0.18177191651E+03  0.12500000000E+03 0.  0.
         25    1    1    2    0    0 -0.76814186146E+02  0.10124332513E+01 -0.89139493209E+03  0.90338882502E+03  0.12500000000E+03 0.  0.
</event>
<event>
 5    0  0.5728184E-005  0.3924020E+03  0.7546771E-02  0.1046443E+00
         21   -1    0    0  502  501  0.00000000000E+00  0.00000000000E+00  0.18723602749E+03  0.18723602749E+03  0.00000000000E+00 0.  1.
         21   -1    0    0  501  502 -0.00000000000E+00 -0.00000000000E+00 -0.82238098268E+03  0.82238098268E+03  0.00000000000E+00 0.  1.
         25    1    1    2    0    0  0.13453532676E+03 -0.20799630842E+03 -0.32796904264E+03  0.42959389125E+03  0.12500000000E+03 0.  0.
         25    1    1    2    0    0  0.53302473363E+02  0.18827912099E+03 -0.50343981995E+02  0.23759145100E+03  0.12500000000E+03 0.  0.
         25    1    1    2    0    0 -0.18783780013E+03  0.19717187434E+02 -0.25683193056E+03  0.34243166792E+03  0.12500000000E+03 0.  0.
</event>
<event>
 5    0  0.5728184E-005  0.3026360E+03  0.7546771E-02  0.1083930E+00
         21   -1    0    0  502  501  0.00000000000E+00  0.00000000000E+00  0.11149629051E+04  0.11149629051E+04  0.00000000000E+00 0.  1.
         21   -1    0    0  501  502 -0.00000000000E+00 -0.00000000000E+00 -0.82144936934E+02  0.82144936934E+02  0.00000000000E+00 0.  1.
         25    1    1    2    0    0 -0.77772116639E+02 -0.18275498532E+03  0.25744606410E+03  0.34835522489E+03  0.12500000000E+03 0.  0.
         25    1    1    2    0    0  0.10465341927E+03  0.89579695318E+02  0.38662615861E+03  0.42904737092E+03  0.12500000000E+03 0.  0.
         25    1    1    2    0    0 -0.26881302627E+02  0.93175289998E+02  0.38874574546E+03  0.41970524622E+03  0.12500000000E+03 0.  0.
</event>
<event>
 5    0  0.5728184E-005  0.4338248E+03  0.7546771E-02  0.1032659E+00
         21   -1    0    0  502  501  0.00000000000E+00  0.00000000000E+00  0.75248207254E+03  0.75248207254E+03  0.00000000000E+00 0.  1.
         21   -1    0    0  501  502 -0.00000000000E+00 -0.00000000000E+00 -0.25011083860E+03  0.25011083860E+03  0.00000000000E+00 0.  1.
         25    1    1    2    0    0  0.21852484792E+03 -0.14521043433E+03  0.17413226544E+03  0.33880115889E+03  0.12500000000E+03 0.  0.
         25    1    1    2    0    0 -0.83047717141E+02 -0.60228016943E+02  0.35138502923E+03  0.38680844887E+03  0.12500000000E+03 0.  0.
         25    1    1    2    0    0 -0.13547713078E+03  0.20543845128E+03 -0.23146060731E+02  0.27698330338E+03  0.12500000000E+03 0.  0.
</event>
<event>
 5    0  0.5728184E-005  0.2342072E+03  0.7546771E-02  0.1123713E+00
         21   -1    0    0  502  501  0.00000000000E+00  0.00000000000E+00  0.49154564316E+03  0.49154564316E+03  0.00000000000E+00 0.  1.
         21   -1    0    0  501  502 -0.00000000000E+00 -0.00000000000E+00 -0.11159293905E+03  0.11159293905E+03  0.00000000000E+00 0.  1.
         25    1    1    2    0    0  0.53472990460E+02  0.27896617295E+02  0.24343534780E+03  0.28022018222E+03  0.12500000000E+03 0.  0.
         25    1    1    2    0    0 -0.54900611677E+02 -0.77615634378E+02  0.59776163593E+02  0.16803706019E+03  0.12500000000E+03 0.  0.
         25    1    1    2    0    0  0.14276212171E+01  0.49719017083E+02  0.76741192721E+02  0.15488133981E+03  0.12500000000E+03 0.  0.
</event>
<event>
 5    0  0.5728184E-005  0.2938732E+03  0.7546771E-02  0.1088344E+00
         21   -1    0    0  502  501  0.00000000000E+00  0.00000000000E+00  0.50414630183E+02  0.50414630183E+02  0.00000000000E+00 0.  1.
         21   -1    0    0  501  502 -0.00000000000E+00 -0.00000000000E+00 -0.17130240892E+04  0.17130240892E+04  0.00000000000E+00 0.  1.
         25    1    1    2    0    0  0.10440146842E+03  0.16397366252E+02 -0.25404191536E+03  0.30220991874E+03  0.12500000000E+03 0.  0.
         25    1    1    2    0    0 -0.11478278289E+03  0.66911730178E+02 -0.11294393762E+04  0.11440762961E+04  0.12500000000E+03 0.  0.
         25    1    1    2    0    0  0.10381314469E+02 -0.83309096430E+02 -0.27912816743E+03  0.31715250447E+03  0.12500000000E+03 0.  0.
</event>
<event>
 5    0  0.5728184E-005  0.3812569E+03  0.7546771E-02  0.1050470E+00
         21   -1    0    0  502  501  0.00000000000E+00  0.00000000000E+00  0.13790372534E+03  0.13790372534E+03  0.00000000000E+00 0.  1.
         21   -1    0    0  501  502 -0.00000000000E+00 -0.00000000000E+00 -0.10540456954E+04  0.10540456954E+04  0.00000000000E+00 0.  1.
         25    1    1    2    0    0 -0.40336798497E+02 -0.15619363579E+03 -0.65910170836E+03  0.68997360177E+03  0.12500000000E+03 0.  0.
         25    1    1    2    0    0  0.43609401417E+02 -0.78777103966E+02 -0.41683217103E+02  0.15959355435E+03  0.12500000000E+03 0.  0.
         25    1    1    2    0    0 -0.32726029202E+01  0.23497073976E+03 -0.21535704459E+03  0.34238226462E+03  0.12500000000E+03 0.  0.
</event>
<event>
 5    0  0.5728184E-005  0.2710916E+03  0.7546771E-02  0.1100656E+00
         21   -1    0    0  502  501  0.00000000000E+00  0.00000000000E+00  0.15996600867E+03  0.15996600867E+03  0.00000000000E+00 0.  1.
         21   -1    0    0  501  502 -0.00000000000E+00 -0.00000000000E+00 -0.45941409591E+03  0.45941409591E+03  0.00000000000E+00 0.  1.
         25    1    1    2    0    0  0.12629822922E+03  0.11375871940E+03 -0.87739360942E+02  0.22850707735E+03  0.12500000000E+03 0.  0.
         25    1    1    2    0    0 -0.11093453079E+03 -0.14142219594E+02 -0.11614083994E+03  0.20401021347E+03  0.12500000000E+03 0.  0.
         25    1    1    2    0    0 -0.15363698424E+02 -0.99616499804E+02 -0.95567886359E+02  0.18686281376E+03  0.12500000000E+03 0.  0.
</event>
<event>
 5    0  0.5728184E-005  0.2786338E+03  0.7546771E-02  0.1096437E+00
         21   -1    0    0  502  501  0.00000000000E+00  0.00000000000E+00  0.35285299452E+03  0.35285299452E+03  0.00000000000E+00 0.  1.
         21   -1    0    0  501  502 -0.00000000000E+00 -0.00000000000E+00 -0.22002586889E+03  0.22002586889E+03  0.00000000000E+00 0.  1.
         25    1    1    2    0    0  0.48503249922E+02 -0.15126969155E+03  0.16199904902E+03  0.25904396676E+03  0.12500000000E+03 0.  0.
         25    1    1    2    0    0 -0.20342239192E+02  0.24248027699E+02  0.95684121225E+01  0.12929937375E+03  0.12500000000E+03 0.  0.
         25    1    1    2    0    0 -0.28161010730E+02  0.12702166385E+03 -0.38740335508E+02  0.18453552289E+03  0.12500000000E+03 0.  0.
</event>
<event>
 5    0  0.6375193E-005  0.2697630E+03  0.7546771E-02  0.1101415E+00
         21   -1    0    0  502  501  0.00000000000E+00  0.00000000000E+00  0.12421552424E+04  0.12421552424E+04  0.00000000000E+00 0. -1.
         21   -1    0    0  501  502 -0.00000000000E+00 -0.00000000000E+00 -0.58585321178E+02  0.58585321178E+02  0.00000000000E+00 0. -1.
         25    1    1    2    0    0 -0.63839275972E+02 -0.61634970819E+02  0.55398272362E+03  0.57480099240E+03  0.12500000000E+03 0.  0.
         25    1    1    2    0    0 -0.50434309740E+02 -0.35746312213E+02  0.13468167897E+03  0.19386999017E+03  0.12500000000E+03 0.  0.
         25    1    1    2    0    0  0.11427358571E+03  0.97381283032E+02  0.49490551858E+03  0.53206958097E+03  0.12500000000E+03 0.  0.
</event>
<event>
 5    0  0.5728184E-005  0.4428719E+03  0.7546771E-02  0.1029869E+00
         21   -1    0    0  502  501  0.00000000000E+00  0.00000000000E+00  0.12238837742E+03  0.12238837742E+03  0.00000000000E+00 0.  1.
         21   -1    0    0  501  502 -0.00000000000E+00 -0.00000000000E+00 -0.16025666481E+04  0.16025666481E+04  0.00000000000E+00 0.  1.
         25    1    1    2    0    0  0.73278688266E+02 -0.77633106738E+01 -0.86997330571E+03  0.88199126288E+03  0.12500000000E+03 0.  0.
         25    1    1    2    0    0 -0.50443065488E+02  0.20243644028E+03 -0.55216514562E+03  0.60335426015E+03  0.12500000000E+03 0.  0.
         25    1    1    2    0    0 -0.22835622777E+02 -0.19467312960E+03 -0.58039819367E+02  0.23960950250E+03  0.12500000000E+03 0.  0.
</event>
<event>
 5    0  0.6549095E-005  0.3713762E+03  0.7546771E-02  0.1054168E+00
         21   -1    0    0  502  501  0.00000000000E+00  0.00000000000E+00  0.80761675273E+03  0.80761675273E+03  0.00000000000E+00 0.  1.
         21   -1    0    0  501  502 -0.00000000000E+00 -0.00000000000E+00 -0.17077444815E+03  0.17077444815E+03  0.00000000000E+00 0.  1.
         25    1    1    2    0    0 -0.88108842551E+02  0.26091534619E+03  0.15494825415E+03  0.33981457808E+03  0.12500000000E+03 0.  0.
         25    1    1    2    0    0  0.66051203484E+02 -0.15259518701E+03  0.40402807692E+03  0.45443562748E+03  0.12500000000E+03 0.  0.
         25    1    1    2    0    0  0.22057639067E+02 -0.10832015918E+03  0.77865973513E+02  0.18414099532E+03  0.12500000000E+03 0.  0.
</event>
<event>
 5    0  0.5728184E-005  0.2798666E+03  0.7546771E-02  0.1095762E+00
         21   -1    0    0  502  501  0.00000000000E+00  0.00000000000E+00  0.10254863952E+04  0.10254863952E+04  0.00000000000E+00 0.  1.
         21   -1    0    0  501  502 -0.00000000000E+00 -0.00000000000E+00 -0.76378684331E+02  0.76378684331E+02  0.00000000000E+00 0.  1.
         25    1    1    2    0    0 -0.10608081919E+03 -0.42270089120E+02  0.20261135604E+03  0.26403837265E+03  0.12500000000E+03 0.  0.
         25    1    1    2    0    0 -0.64641742584E+02 -0.46718715792E+02  0.24656083024E+03  0.28771241944E+03  0.12500000000E+03 0.  0.
         25    1    1    2    0    0  0.17072256178E+03  0.88988804912E+02  0.49993552454E+03  0.55011428740E+03  0.12500000000E+03 0.  0.
</event>
<event>
 5    0  0.5728184E-005  0.2445774E+03  0.7546771E-02  0.1116781E+00
         21   -1    0    0  502  501  0.00000000000E+00  0.00000000000E+00  0.50961276782E+03  0.50961276782E+03  0.00000000000E+00 0.  1.
         21   -1    0    0  501  502 -0.00000000000E+00 -0.00000000000E+00 -0.11737952396E+03  0.11737952396E+03  0.00000000000E+00 0.  1.
         25    1    1    2    0    0  0.94844940169E+02  0.50176175423E+02  0.74816059847E+02  0.18092997006E+03  0.12500000000E+03 0.  0.
         25    1    1    2    0    0 -0.85076335164E+02 -0.56409004307E+02  0.26446126470E+03  0.30981400726E+03  0.12500000000E+03 0.  0.
         25    1    1    2    0    0 -0.97686050045E+01  0.62328288844E+01  0.52955919319E+02  0.13624831445E+03  0.12500000000E+03 0.  0.
</event>
<event>
 5    0  0.6205616E-005  0.3745082E+03  0.7546771E-02  0.1052982E+00
         21   -1    0    0  502  501  0.00000000000E+00  0.00000000000E+00  0.83368618844E+03  0.83368618844E+03  0.00000000000E+00 0. -1.
         21   -1    0    0  501  502 -0.00000000000E+00 -0.00000000000E+00 -0.16823641000E+03  0.16823641000E+03  0.00000000000E+00 0. -1.
         25    1    1    2    0    0 -0.91533596124E+02  0.14878317372E+03  0.85646759496E+02  0.23124705277E+03  0.12500000000E+03 0.  0.
         25    1    1    2    0    0 -0.12391530262E+03 -0.74716254110E+02  0.43030710312E+03  0.47087867211E+03  0.12500000000E+03 0.  0.
         25    1    1    2    0    0  0.21544889875E+03 -0.74066919608E+02  0.14949591583E+03  0.29979687357E+03  0.12500000000E+03 0.  0.
</event>
<event>
 5    0  0.5728184E-005  0.4870524E+03  0.7546771E-02  0.1017215E+00
         21   -1    0    0  502  501  0.00000000000E+00  0.00000000000E+00  0.28422404699E+03  0.28422404699E+03  0.00000000000E+00 0. -1.
         21   -1    0    0  501  502 -0.00000000000E+00 -0.00000000000E+00 -0.83462346309E+03  0.83462346309E+03  0.00000000000E+00 0. -1.
         25    1    1    2    0    0  0.30071108263E+02  0.11165018873E+03  0.53076937366E+02  0.17835974175E+03  0.12500000000E+03 0.  0.
         25    1    1    2    0    0 -0.22467194157E+03 -0.25324180186E+03 -0.10977114619E+03  0.37720497886E+03  0.12500000000E+03 0.  0.
         25    1    1    2    0    0  0.19460083331E+03  0.14159161313E+03 -0.49370520728E+03  0.56328278948E+03  0.12500000000E+03 0.  0.
</event>
<event>
 5    0  0.5728184E-005  0.2310929E+03  0.7546771E-02  0.1125873E+00
         21   -1    0    0  502  501  0.00000000000E+00  0.00000000000E+00  0.45415015749E+02  0.45415015749E+02  0.00000000000E+00 0. -1.
         21   -1    0    0  501  502 -0.00000000000E+00 -0.00000000000E+00 -0.11759094512E+04  0.11759094512E+04  0.00000000000E+00 0. -1.
         25    1    1    2    0    0  0.45118777434E+02 -0.74974065472E+02 -0.63481987087E+03  0.65289974960E+03  0.12500000000E+03 0.  0.
         25    1    1    2    0    0 -0.61215333941E+02  0.52620976519E+02 -0.23753150785E+03  0.28029003104E+03  0.12500000000E+03 0.  0.
         25    1    1    2    0    0  0.16096556507E+02  0.22353088953E+02 -0.25814305671E+03  0.28813468629E+03  0.12500000000E+03 0.  0.
</event>
<event>
 5    0  0.5728184E-005  0.4146375E+03  0.7546771E-02  0.1038826E+00
         21   -1    0    0  502  501  0.00000000000E+00  0.00000000000E+00  0.64661608793E+02  0.64661608793E+02  0.00000000000E+00 0.  1.
         21   -1    0    0  501  502 -0.00000000000E+00 -0.00000000000E+00 -0.26588306690E+04  0.26588306690E+04  0.00000000000E+00 0.  1.
         25    1    1    2    0    0 -0.13728874904E+03 -0.93372100042E+02 -0.24751662185E+03  0.32319657760E+03  0.12500000000E+03 0.  0.
         25    1    1    2    0    0 -0.58162474212E+02  0.15169492547E+03 -0.53515369605E+03  0.57306954396E+03  0.12500000000E+03 0.  0.
         25    1    1    2    0    0  0.19545122325E+03 -0.58322825429E+02 -0.18114987424E+04  0.18272261563E+04  0.12500000000E+03 0.  0.
</event>
<event>
 5    0  0.5728184E-005  0.4359482E+03  0.7546771E-02  0.1031997E+00
         21   -1    0    0  502  501  0.00000000000E+00  0.00000000000E+00  0.11149016900E+04  0.11149016900E+04  0.00000000000E+00 0. -1.
         21   -1    0    0  501  502 -0.00000000000E+00 -0.00000000000E+00 -0.17046419483E+03  0.17046419483E+03  0.00000000000E+00 0. -1.
         25    1    1    2    0    0  0.17845366976E+02  0.14977676782E+03  0.26039099541E+03  0.32585273943E+03  0.12500000000E+03 0.  0.
         25    1    1    2    0    0  0.58589564902E+02 -0.37667810172E+03  0.37616484912E+03  0.54994920051E+03  0.12500000000E+03 0.  0.
         25    1    1    2    0    0 -0.76434931878E+02  0.22690133390E+03  0.30788165059E+03  0.40956394484E+03  0.12500000000E+03 0.  0.
</event>
<event>
 5    0  0.5728184E-005  0.2526963E+03  0.7546771E-02  0.1111613E+00
         21   -1    0    0  502  501  0.00000000000E+00  0.00000000000E+00  0.80076311924E+03  0.80076311924E+03  0.00000000000E+00 0.  1.
         21   -1    0    0  501  502 -0.00000000000E+00 -0.00000000000E+00 -0.79743227012E+02  0.79743227012E+02  0.00000000000E+00 0.  1.
         25    1    1    2    0    0  0.41625920254E+02  0.18467407516E+02  0.17129020156E+03  0.21688498225E+03  0.12500000000E+03 0.  0.
         25    1    1    2    0    0 -0.53015746875E+01 -0.36088133984E+02  0.51003820485E+03  0.52639759736E+03  0.12500000000E+03 0.  0.
         25    1    1    2    0    0 -0.36324345567E+02  0.17620726468E+02  0.39691485825E+02  0.13722376663E+03  0.12500000000E+03 0.  0.
</event>
<event>
 5    0  0.5728184E-005  0.2742148E+03  0.7546771E-02  0.1098891E+00
         21   -1    0    0  502  501  0.00000000000E+00  0.00000000000E+00  0.80750039528E+03  0.80750039528E+03  0.00000000000E+00 0.  1.
         21   -1    0    0  501  502 -0.00000000000E+00 -0.00000000000E+00 -0.93119179854E+02  0.93119179854E+02  0.00000000000E+00 0.  1.
         25    1    1    2    0    0 -0.42521898948E+02 -0.22455348701E+02  0.49178005083E+03  0.50969105640E+03  0.12500000000E+03 0.  0.
         25    1    1    2    0    0 -0.54850026654E+02  0.50605280268E+02  0.47568639276E+02  0.15315741986E+03  0.12500000000E+03 0.  0.
         25    1    1    2    0    0  0.97371925602E+02 -0.28149931567E+02  0.17503252532E+03  0.23777109888E+03  0.12500000000E+03 0.  0.
</event>
<event>
 5    0  0.5728184E-005  0.2593994E+03  0.7546771E-02  0.1107505E+00
         21   -1    0    0  502  501  0.00000000000E+00  0.00000000000E+00  0.53524412252E+02  0.53524412252E+02  0.00000000000E+00 0.  1.
         21   -1    0    0  501  502 -0.00000000000E+00 -0.00000000000E+00 -0.12571469732E+04  0.12571469732E+04  0.00000000000E+00 0.  1.
         25    1    1    2    0    0 -0.78018852565E+02  0.56797392436E+02 -0.73311013357E+03  0.74992556503E+03  0.12500000000E+03 0.  0.
         25    1    1    2    0    0  0.48072942073E+02 -0.88932220240E+02 -0.17935136245E+03  0.24085651075E+03  0.12500000000E+03 0.  0.
         25    1    1    2    0    0  0.29945910492E+02  0.32134827804E+02 -0.29116106490E+03  0.31988930965E+03  0.12500000000E+03 0.  0.
</event>
<event>
 5    0  0.5728184E-005  0.2627826E+03  0.7546771E-02  0.1105483E+00
         21   -1    0    0  502  501  0.00000000000E+00  0.00000000000E+00  0.26966746916E+03  0.26966746916E+03  0.00000000000E+00 0. -1.
         21   -1    0    0  501  502 -0.00000000000E+00 -0.00000000000E+00 -0.25607341612E+03  0.25607341612E+03  0.00000000000E+00 0. -1.
         25    1    1    2    0    0 -0.24985653306E+02 -0.11007400363E+02  0.63554931380E+01  0.12810479315E+03  0.12500000000E+03 0.  0.
         25    1    1    2    0    0 -0.11566399786E+03 -0.75508465176E+02 -0.25261666492E+02  0.18799691622E+03  0.12500000000E+03 0.  0.
         25    1    1    2    0    0  0.14064965116E+03  0.86515865539E+02  0.32500226402E+02  0.20963917591E+03  0.12500000000E+03 0.  0.
</event>
<event>
 5    0  0.5728184E-005  0.4236906E+03  0.7546771E-02  0.1035872E+00
         21   -1    0    0  502  501  0.00000000000E+00  0.00000000000E+00  0.15892176851E+03  0.15892176851E+03  0.00000000000E+00 0. -1.
         21   -1    0    0  501  502 -0.00000000000E+00 -0.00000000000E+00 -0.11295729143E+04  0.11295729143E+04  0.00000000000E+00 0. -1.
         25    1    1    2    0    0 -0.32575557108E+03  0.14942886630E+03 -0.41984357964E+03  0.56598525559E+03  0.12500000000E+03 0.  0.
         25    1    1    2    0    0  0.89892667594E+02 -0.27371693413E+02 -0.29175230350E+03  0.33102010194E+03  0.12500000000E+03 0.  0.
         25    1    1    2    0    0  0.23586290349E+03 -0.12205717289E+03 -0.25905526262E+03  0.39148932525E+03  0.12500000000E+03 0.  0.
</event>
<event>
 5    0  0.5728184E-005  0.2541400E+03  0.7546771E-02  0.1110716E+00
         21   -1    0    0  502  501  0.00000000000E+00  0.00000000000E+00  0.81337412131E+02  0.81337412131E+02  0.00000000000E+00 0. -1.
         21   -1    0    0  501  502 -0.00000000000E+00 -0.00000000000E+00 -0.79406406984E+03  0.79406406984E+03  0.00000000000E+00 0. -1.
         25    1    1    2    0    0  0.28364038077E+02 -0.23396068647E+01 -0.68440165837E+02  0.14532394406E+03  0.12500000000E+03 0.  0.
         25    1    1    2    0    0 -0.10356759815E+03  0.70723871571E+02 -0.40009185230E+03  0.43752326072E+03  0.12500000000E+03 0.  0.
         25    1    1    2    0    0  0.75203560076E+02 -0.68384264706E+02 -0.24419463957E+03  0.29255427719E+03  0.12500000000E+03 0.  0.
</event>
<event>
 5    0  0.5728184E-005  0.3427627E+03  0.7546771E-02  0.1065625E+00
         21   -1    0    0  502  501  0.00000000000E+00  0.00000000000E+00  0.11423188393E+04  0.11423188393E+04  0.00000000000E+00 0. -1.
         21   -1    0    0  501  502 -0.00000000000E+00 -0.00000000000E+00 -0.10284894703E+03  0.10284894703E+03  0.00000000000E+00 0. -1.
         25    1    1    2    0    0  0.71704269231E+01 -0.15185035334E+03  0.37764289977E+03  0.42585103567E+03  0.12500000000E+03 0.  0.
         25    1    1    2    0    0  0.10168543445E+03  0.21895587393E+03  0.24586972400E+03  0.36654948300E+03  0.12500000000E+03 0.  0.
         25    1    1    2    0    0 -0.10885586138E+03 -0.67105520594E+02  0.41595726844E+03  0.45276726761E+03  0.12500000000E+03 0.  0.
</event>
<event>
 5    0  0.5728184E-005  0.2221545E+03  0.7546771E-02  0.1132287E+00
         21   -1    0    0  502  501  0.00000000000E+00  0.00000000000E+00  0.29989874863E+03  0.29989874863E+03  0.00000000000E+00 0.  1.
         21   -1    0    0  501  502 -0.00000000000E+00 -0.00000000000E+00 -0.16456431612E+03  0.16456431612E+03  0.00000000000E+00 0.  1.
         25    1    1    2    0    0 -0.39702609168E+02  0.42681367049E+02  0.93481864158E+02  0.16661889207E+03  0.12500000000E+03 0.  0.
         25    1    1    2    0    0 -0.40665265611E+02 -0.30912339708E+02 -0.19890765730E+02  0.13649131524E+03  0.12500000000E+03 0.  0.
         25    1    1    2    0    0  0.80367874779E+02 -0.11769027341E+02  0.61743334090E+02  0.16135285744E+03  0.12500000000E+03 0.  0.
</event>
<event>
 5    0  0.5728184E-005  0.3427767E+03  0.7546771E-02  0.1065619E+00
         21   -1    0    0  502  501  0.00000000000E+00  0.00000000000E+00  0.94548565713E+02  0.94548565713E+02  0.00000000000E+00 0.  1.
         21   -1    0    0  501  502 -0.00000000000E+00 -0.00000000000E+00 -0.12427040880E+04  0.12427040880E+04  0.00000000000E+00 0.  1.
         25    1    1    2    0    0 -0.17660446910E+03  0.14820986927E+02 -0.47416375902E+03  0.52140681865E+03  0.12500000000E+03 0.  0.
         25    1    1    2    0    0  0.17780621912E+03  0.12513820271E+03 -0.25968028245E+03  0.36101727165E+03  0.12500000000E+03 0.  0.
         25    1    1    2    0    0 -0.12017500265E+01 -0.13995918964E+03 -0.41431148082E+03  0.45482856343E+03  0.12500000000E+03 0.  0.
</event>
<event>
 5    0  0.5728184E-005  0.3480401E+03  0.7546771E-02  0.1063422E+00
         21   -1    0    0  502  501  0.00000000000E+00  0.00000000000E+00  0.29380413357E+03  0.29380413357E+03  0.00000000000E+00 0. -1.
         21   -1    0    0  501  502 -0.00000000000E+00 -0.00000000000E+00 -0.41228793191E+03  0.41228793191E+03  0.00000000000E+00 0. -1.
         25    1    1    2    0    0 -0.63675922413E+02  0.16700967228E+03 -0.15876030784E+03  0.26977154979E+03  0.12500000000E+03 0.  0.
         25    1    1    2    0    0 -0.82556260783E+01 -0.34299603914E+02 -0.12476392869E+03  0.18009901747E+03  0.12500000000E+03 0.  0.
         25    1    1    2    0    0  0.71931548491E+02 -0.13271006837E+03  0.16504043818E+03  0.25622149822E+03  0.12500000000E+03 0.  0.
</event>
<event>
 5    0  0.5728184E-005  0.3142588E+03  0.7546771E-02  0.1078322E+00
         21   -1    0    0  502  501  0.00000000000E+00  0.00000000000E+00  0.17345790839E+04  0.17345790839E+04  0.00000000000E+00 0. -1.
         21   -1    0    0  501  502 -0.00000000000E+00 -0.00000000000E+00 -0.56935207649E+02  0.56935207649E+02  0.00000000000E+00 0. -1.
         25    1    1    2    0    0 -0.83882669833E+02 -0.27023264080E+02  0.97396224195E+03  0.98589756458E+03  0.12500000000E+03 0.  0.
         25    1    1    2    0    0  0.11023839811E+03  0.85132690561E+02  0.16679590591E+03  0.25069095246E+03  0.12500000000E+03 0.  0.
         25    1    1    2    0    0 -0.26355728274E+02 -0.58109426481E+02  0.53688572836E+03  0.55492577448E+03  0.12500000000E+03 0.  0.
</event>
<event>
 5    0  0.5728184E-005  0.6359154E+03  0.7546771E-02  0.9833573E-01
         21   -1    0    0  502  501  0.00000000000E+00  0.00000000000E+00  0.13088828880E+04  0.13088828880E+04  0.00000000000E+00 0.  1.
         21   -1    0    0  501  502 -0.00000000000E+00 -0.00000000000E+00 -0.30895691849E+03  0.30895691849E+03  0.00000000000E+00 0.  1.
         25    1    1    2    0    0  0.13578284828E+03  0.10102699656E+03  0.31177196374E+03  0.37612523619E+03  0.12500000000E+03 0.  0.
         25    1    1    2    0    0 -0.53705777427E+02 -0.54380917270E+03  0.43958610449E+03  0.71237186223E+03  0.12500000000E+03 0.  0.
         25    1    1    2    0    0 -0.82077070857E+02  0.44278217614E+03  0.24856790132E+03  0.52934270812E+03  0.12500000000E+03 0.  0.
</event>
<event>
 5    0  0.5728184E-005  0.2333279E+03  0.7546771E-02  0.1124319E+00
         21   -1    0    0  502  501  0.00000000000E+00  0.00000000000E+00  0.93299172262E+02  0.93299172262E+02  0.00000000000E+00 0.  1.
         21   -1    0    0  501  502 -0.00000000000E+00 -0.00000000000E+00 -0.58351985068E+03  0.58351985068E+03  0.00000000000E+00 0.  1.
         25    1    1    2    0    0  0.24092540249E+02  0.14452355269E+02 -0.12897715419E+03  0.18179501471E+03  0.12500000000E+03 0.  0.
         25    1    1    2    0    0 -0.65563269642E+02 -0.10730850025E+03 -0.18828136815E+03  0.25862816967E+03  0.12500000000E+03 0.  0.
         25    1    1    2    0    0  0.41470729393E+02  0.92856144985E+02 -0.17296215607E+03  0.23639583856E+03  0.12500000000E+03 0.  0.
</event>
<event>
 5    0  0.5728184E-005  0.2724006E+03  0.7546771E-02  0.1099913E+00
         21   -1    0    0  502  501  0.00000000000E+00  0.00000000000E+00  0.77759336383E+02  0.77759336383E+02  0.00000000000E+00 0.  1.
         21   -1    0    0  501  502 -0.00000000000E+00 -0.00000000000E+00 -0.95425320347E+03  0.95425320347E+03  0.00000000000E+00 0.  1.
         25    1    1    2    0    0 -0.48625136548E+02  0.10820568118E+03 -0.11063328563E+03  0.20478671156E+03  0.12500000000E+03 0.  0.
         25    1    1    2    0    0 -0.39717795227E+02 -0.88652380381E+02 -0.39495217959E+03  0.42549849820E+03  0.12500000000E+03 0.  0.
         25    1    1    2    0    0  0.88342931775E+02 -0.19553300797E+02 -0.37090840187E+03  0.40172733010E+03  0.12500000000E+03 0.  0.
</event>
<event>
 5    0  0.5728184E-005  0.2560146E+03  0.7546771E-02  0.1109562E+00
         21   -1    0    0  502  501  0.00000000000E+00  0.00000000000E+00  0.86904750530E+03  0.86904750530E+03  0.00000000000E+00 0. -1.
         21   -1    0    0  501  502 -0.00000000000E+00 -0.00000000000E+00 -0.75419927261E+02  0.75419927261E+02  0.00000000000E+00 0. -1.
         25    1    1    2    0    0  0.45913525146E+02  0.61077628056E+01  0.17925359309E+03  0.22338801936E+03  0.12500000000E+03 0.  0.
         25    1    1    2    0    0  0.11817593249E+02  0.88421641478E+02  0.48814040442E+03  0.51172658385E+03  0.12500000000E+03 0.  0.
         25    1    1    2    0    0 -0.57731118395E+02 -0.94529404284E+02  0.12623358054E+03  0.20935282936E+03  0.12500000000E+03 0.  0.
</event>
<event>
 5    0  0.5728184E-005  0.2734448E+03  0.7546771E-02  0.1099324E+00
         21   -1    0    0  502  501  0.00000000000E+00  0.00000000000E+00  0.29769769760E+03  0.29769769760E+03  0.00000000000E+00 0. -1.
         21   -1    0    0  501  502 -0.00000000000E+00 -0.00000000000E+00 -0.25116779576E+03  0.25116779576E+03  0.00000000000E+00 0. -1.
         25    1    1    2    0    0  0.99840593717E+02 -0.52810798803E+02  0.37056591267E+02  0.17249729152E+03  0.12500000000E+03 0.  0.
         25    1    1    2    0    0 -0.11891517087E+02  0.21541380075E+02  0.12788507794E+03  0.18051324714E+03  0.12500000000E+03 0.  0.
         25    1    1    2    0    0 -0.87949076630E+02  0.31269418728E+02 -0.11841176737E+03  0.19585495470E+03  0.12500000000E+03 0.  0.
</event>
<event>
 5    0  0.5728184E-005  0.3689305E+03  0.7546771E-02  0.1055103E+00
         21   -1    0    0  502  501  0.00000000000E+00  0.00000000000E+00  0.41466792754E+03  0.41466792754E+03  0.00000000000E+00 0. -1.
         21   -1    0    0  501  502 -0.00000000000E+00 -0.00000000000E+00 -0.32823778258E+03  0.32823778258E+03  0.00000000000E+00 0. -1.
         25    1    1    2    0    0 -0.35096009438E+02  0.10377208352E+02 -0.19913845988E+03  0.23795071451E+03  0.12500000000E+03 0.  0.
         25    1    1    2    0    0  0.70130958966E+02  0.21177016103E+02  0.33302725205E+03  0.36317897520E+03  0.12500000000E+03 0.  0.
         25    1    1    2    0    0 -0.35034949528E+02 -0.31554224455E+02 -0.47458647216E+02  0.14177602042E+03  0.12500000000E+03 0.  0.
</event>
<event>
 5    0  0.5728184E-005  0.2447904E+03  0.7546771E-02  0.1116642E+00
         21   -1    0    0  502  501  0.00000000000E+00  0.00000000000E+00  0.87988487495E+03  0.87988487495E+03  0.00000000000E+00 0.  1.
         21   -1    0    0  501  502 -0.00000000000E+00 -0.00000000000E+00 -0.68102481306E+02  0.68102481306E+02  0.00000000000E+00 0.  1.
         25    1    1    2    0    0 -0.79106478155E+02  0.63411956287E+02  0.21793956017E+03  0.27092722818E+03  0.12500000000E+03 0.  0.
         25    1    1    2    0    0 -0.49738635795E+02 -0.37203953258E+01  0.21586594151E+03  0.25438332873E+03  0.12500000000E+03 0.  0.
         25    1    1    2    0    0  0.12884511395E+03 -0.59691560961E+02  0.37797689196E+03  0.42267679934E+03  0.12500000000E+03 0.  0.
</event>
<event>
 5    0  0.5728184E-005  0.2215008E+03  0.7546771E-02  0.1132769E+00
         21   -1    0    0  502  501  0.00000000000E+00  0.00000000000E+00  0.17751157417E+03  0.17751157417E+03  0.00000000000E+00 0. -1.
         21   -1    0    0  501  502 -0.00000000000E+00 -0.00000000000E+00 -0.27639099925E+03  0.27639099925E+03  0.00000000000E+00 0. -1.
         25    1    1    2    0    0 -0.57999577989E+02  0.90418242400E+02 -0.41607681166E+02  0.16998708403E+03  0.12500000000E+03 0.  0.
         25    1    1    2    0    0  0.35641466292E+02 -0.70550981970E+02 -0.15186128097E+02  0.14867203390E+03  0.12500000000E+03 0.  0.
         25    1    1    2    0    0  0.22358111697E+02 -0.19867260429E+02 -0.42085615810E+02  0.13524345549E+03  0.12500000000E+03 0.  0.
</event>
<event>
 5    0  0.5728184E-005  0.3141795E+03  0.7546771E-02  0.1078360E+00
         21   -1    0    0  502  501  0.00000000000E+00  0.00000000000E+00  0.13240517057E+03  0.13240517057E+03  0.00000000000E+00 0. -1.
         21   -1    0    0  501  502 -0.00000000000E+00 -0.00000000000E+00 -0.74550546656E+03  0.74550546656E+03  0.00000000000E+00 0. -1.
         25    1    1    2    0    0  0.71790537682E+01  0.40197097816E+02 -0.28265584341E+03  0.31174776871E+03  0.12500000000E+03 0.  0.
         25    1    1    2    0    0  0.37186012963E+02 -0.20427775225E+03 -0.22322691507E+03  0.32949575905E+03  0.12500000000E+03 0.  0.
         25    1    1    2    0    0 -0.44365066731E+02  0.16408065443E+03 -0.10721753751E+03  0.23666710936E+03  0.12500000000E+03 0.  0.
</event>
<event>
 5    0  0.5728184E-005  0.2938400E+03  0.7546771E-02  0.1088361E+00
         21   -1    0    0  502  501  0.00000000000E+00  0.00000000000E+00  0.35216647950E+03  0.35216647950E+03  0.00000000000E+00 0. -1.
         21   -1    0    0  501  502 -0.00000000000E+00 -0.00000000000E+00 -0.24517367865E+03  0.24517367865E+03  0.00000000000E+00 0. -1.
         25    1    1    2    0    0 -0.81647623897E+02 -0.67350977360E+02  0.14411764790E+03  0.21816824947E+03  0.12500000000E+03 0.  0.
         25    1    1    2    0    0 -0.66864371931E+02 -0.49679173756E+02 -0.24095960122E+02  0.15213309907E+03  0.12500000000E+03 0.  0.
         25    1    1    2    0    0  0.14851199583E+03  0.11703015112E+03 -0.13028886937E+02  0.22703880961E+03  0.12500000000E+03 0.  0.
</event>
<event>
 5    0  0.5728184E-005  0.3452200E+03  0.7546771E-02  0.1064594E+00
         21   -1    0    0  502  501  0.00000000000E+00  0.00000000000E+00  0.37921769398E+03  0.37921769398E+03  0.00000000000E+00 0.  1.
         21   -1    0    0  501  502 -0.00000000000E+00 -0.00000000000E+00 -0.31427025421E+03  0.31427025421E+03  0.00000000000E+00 0.  1.
         25    1    1    2    0    0  0.11555762327E+02 -0.38636134006E+02 -0.40726486486E+02  0.13751339279E+03  0.12500000000E+03 0.  0.
         25    1    1    2    0    0 -0.20961287516E+03 -0.97544477517E+02 -0.61186356873E+01  0.26289716664E+03  0.12500000000E+03 0.  0.
         25    1    1    2    0    0  0.19805711283E+03  0.13618061152E+03  0.11179256195E+03  0.29307738876E+03  0.12500000000E+03 0.  0.
</event>
<event>
 5    0  0.5728184E-005  0.2185624E+03  0.7546771E-02  0.1134959E+00
         21   -1    0    0  502  501  0.00000000000E+00  0.00000000000E+00  0.63593317808E+02  0.63593317808E+02  0.00000000000E+00 0.  1.
         21   -1    0    0  501  502 -0.00000000000E+00 -0.00000000000E+00 -0.75117234534E+03  0.75117234534E+03  0.00000000000E+00 0.  1.
         25    1    1    2    0    0 -0.82930822746E+01 -0.23463342732E+02 -0.38989523626E+03  0.41019824344E+03  0.12500000000E+03 0.  0.
         25    1    1    2    0    0 -0.64761111331E+01  0.60029408908E+02 -0.11822962499E+03  0.18234229947E+03  0.12500000000E+03 0.  0.
         25    1    1    2    0    0  0.14769193408E+02 -0.36566066176E+02 -0.17945416628E+03  0.22222512024E+03  0.12500000000E+03 0.  0.
</event>
<event>
 5    0  0.5728184E-005  0.2417806E+03  0.7546771E-02  0.1118612E+00
         21   -1    0    0  502  501  0.00000000000E+00  0.00000000000E+00  0.10194378791E+03  0.10194378791E+03  0.00000000000E+00 0.  1.
         21   -1    0    0  501  502 -0.00000000000E+00 -0.00000000000E+00 -0.57343237941E+03  0.57343237941E+03  0.00000000000E+00 0.  1.
         25    1    1    2    0    0 -0.16099604918E+02  0.24462124981E+02 -0.96631187038E+02  0.16068658670E+03  0.12500000000E+03 0.  0.
         25    1    1    2    0    0  0.81622168396E+02 -0.89267065029E+02 -0.28880926428E+03  0.33714474400E+03  0.12500000000E+03 0.  0.
         25    1    1    2    0    0 -0.65522563478E+02  0.64804940048E+02 -0.86048140188E+02  0.17754483662E+03  0.12500000000E+03 0.  0.
</event>
<event>
 5    0  0.5728184E-005  0.3356564E+03  0.7546771E-02  0.1068661E+00
         21   -1    0    0  502  501  0.00000000000E+00  0.00000000000E+00  0.10011253127E+03  0.10011253127E+03  0.00000000000E+00 0.  1.
         21   -1    0    0  501  502 -0.00000000000E+00 -0.00000000000E+00 -0.11253861008E+04  0.11253861008E+04  0.00000000000E+00 0.  1.
         25    1    1    2    0    0  0.55851662812E+02 -0.14828033942E+03 -0.20821730120E+03  0.28997570901E+03  0.12500000000E+03 0.  0.
         25    1    1    2    0    0 -0.93231740300E+02 -0.70546709640E+02 -0.17507742855E+03  0.24483892997E+03  0.12500000000E+03 0.  0.
         25    1    1    2    0    0  0.37380077488E+02  0.21882704905E+03 -0.64197883974E+03  0.69068399305E+03  0.12500000000E+03 0.  0.
</event>
<event>
 5    0  0.5728184E-005  0.5723252E+03  0.7546771E-02  0.9964546E-01
         21   -1    0    0  502  501  0.00000000000E+00  0.00000000000E+00  0.42935225759E+03  0.42935225759E+03  0.00000000000E+00 0. -1.
         21   -1    0    0  501  502 -0.00000000000E+00 -0.00000000000E+00 -0.76290767322E+03  0.76290767322E+03  0.00000000000E+00 0. -1.
         25    1    1    2    0    0  0.74044560587E+02 -0.97683937952E+01  0.21511921964E+02  0.14719300682E+03  0.12500000000E+03 0.  0.
         25    1    1    2    0    0  0.42119809753E+03 -0.16268480353E+02 -0.29648852515E+03  0.53028572144E+03  0.12500000000E+03 0.  0.
         25    1    1    2    0    0 -0.49524265812E+03  0.26036874148E+02 -0.58578812442E+02  0.51478120255E+03  0.12500000000E+03 0.  0.
</event>
<event>
 5    0  0.5728184E-005  0.2933087E+03  0.7546771E-02  0.1088634E+00
         21   -1    0    0  502  501  0.00000000000E+00  0.00000000000E+00  0.12791615330E+04  0.12791615330E+04  0.00000000000E+00 0. -1.
         21   -1    0    0  501  502 -0.00000000000E+00 -0.00000000000E+00 -0.67254975329E+02  0.67254975329E+02  0.00000000000E+00 0. -1.
         25    1    1    2    0    0 -0.97453207887E+02  0.33881054336E+02  0.39110856450E+03  0.42336268470E+03  0.12500000000E+03 0.  0.
         25    1    1    2    0    0 -0.73342451190E+02 -0.12245182478E+03  0.42775363458E+03  0.46794415953E+03  0.12500000000E+03 0.  0.
         25    1    1    2    0    0  0.17079565908E+03  0.88570770442E+02  0.39304435855E+03  0.45510966406E+03  0.12500000000E+03 0.  0.
</event>
<event>
 5    0  0.5728184E-005  0.2678913E+03  0.7546771E-02  0.1102493E+00
         21   -1    0    0  502  501  0.00000000000E+00  0.00000000000E+00  0.40998252470E+03  0.40998252470E+03  0.00000000000E+00 0. -1.
         21   -1    0    0  501  502 -0.00000000000E+00 -0.00000000000E+00 -0.17504588564E+03  0.17504588564E+03  0.00000000000E+00 0. -1.
         25    1    1    2    0    0 -0.66872762176E+02 -0.65712863089E+02 -0.18903738688E+01  0.15626490396E+03  0.12500000000E+03 0.  0.
         25    1    1    2    0    0 -0.56074684545E+01 -0.75848304916E+02  0.53579309975E+02  0.15582089564E+03  0.12500000000E+03 0.  0.
         25    1    1    2    0    0  0.72480230631E+02  0.14156116800E+03  0.18324770296E+03  0.27294261074E+03  0.12500000000E+03 0.  0.
</event>
<event>
 5    0  0.5728184E-005  0.4022230E+03  0.7546771E-02  0.1043013E+00
         21   -1    0    0  502  501  0.00000000000E+00  0.00000000000E+00  0.26108165672E+03  0.26108165672E+03  0.00000000000E+00 0.  1.
         21   -1    0    0  501  502 -0.00000000000E+00 -0.00000000000E+00 -0.61966569726E+03  0.61966569726E+03  0.00000000000E+00 0.  1.
         25    1    1    2    0    0 -0.10832378575E+03  0.49662701509E+02 -0.34355404296E+01  0.17273456347E+03  0.12500000000E+03 0.  0.
         25    1    1    2    0    0 -0.21617098202E+02  0.84594156023E+02 -0.44158577820E+03  0.46716856666E+03  0.12500000000E+03 0.  0.
         25    1    1    2    0    0  0.12994088395E+03 -0.13425685753E+03  0.86437278093E+02  0.24084422385E+03  0.12500000000E+03 0.  0.
</event>
<event>
 5    0  0.5728184E-005  0.2773710E+03  0.7546771E-02  0.1097134E+00
         21   -1    0    0  502  501  0.00000000000E+00  0.00000000000E+00  0.14262905039E+03  0.14262905039E+03  0.00000000000E+00 0.  1.
         21   -1    0    0  501  502 -0.00000000000E+00 -0.00000000000E+00 -0.53940396940E+03  0.53940396940E+03  0.00000000000E+00 0.  1.
         25    1    1    2    0    0 -0.24994713088E+02  0.53045846260E+02 -0.22294519233E+03  0.26223683240E+03  0.12500000000E+03 0.  0.
         25    1    1    2    0    0  0.14585038053E+03  0.17677022804E+02 -0.10674851275E+03  0.22046554291E+03  0.12500000000E+03 0.  0.
         25    1    1    2    0    0 -0.12085566745E+03 -0.70722869063E+02 -0.67081213929E+02  0.19933064447E+03  0.12500000000E+03 0.  0.
</event>
<event>
 5    0  0.5728184E-005  0.3936295E+03  0.7546771E-02  0.1046008E+00
         21   -1    0    0  502  501  0.00000000000E+00  0.00000000000E+00  0.28445811386E+03  0.28445811386E+03  0.00000000000E+00 0.  1.
         21   -1    0    0  501  502 -0.00000000000E+00 -0.00000000000E+00 -0.54469957048E+03  0.54469957048E+03  0.00000000000E+00 0.  1.
         25    1    1    2    0    0 -0.29872178270E+03 -0.53578652475E+02 -0.87471798684E+02  0.33967880568E+03  0.12500000000E+03 0.  0.
         25    1    1    2    0    0  0.11667986645E+03 -0.89302773470E+02 -0.96047329930E+02  0.21549771732E+03  0.12500000000E+03 0.  0.
         25    1    1    2    0    0  0.18204191625E+03  0.14288142595E+03 -0.76722328008E+02  0.27398116134E+03  0.12500000000E+03 0.  0.
</event>
<event>
 5    0  0.5728184E-005  0.5171666E+03  0.7546771E-02  0.1009393E+00
         21   -1    0    0  502  501  0.00000000000E+00  0.00000000000E+00  0.39382555885E+03  0.39382555885E+03  0.00000000000E+00 0. -1.
         21   -1    0    0  501  502 -0.00000000000E+00 -0.00000000000E+00 -0.67913655777E+03  0.67913655777E+03  0.00000000000E+00 0. -1.
         25    1    1    2    0    0  0.74787472878E+02 -0.92594667803E+02 -0.21502804468E+03  0.27573356452E+03  0.12500000000E+03 0.  0.
         25    1    1    2    0    0  0.29564284949E+03 -0.12276879265E+03  0.95834466718E+01  0.34379312581E+03  0.12500000000E+03 0.  0.
         25    1    1    2    0    0 -0.37043032236E+03  0.21536346045E+03 -0.79866400921E+02  0.45343542630E+03  0.12500000000E+03 0.  0.
</event>
<event>
 5    0  0.5728184E-005  0.2374597E+03  0.7546771E-02  0.1121497E+00
         21   -1    0    0  502  501  0.00000000000E+00  0.00000000000E+00  0.11449509565E+03  0.11449509565E+03  0.00000000000E+00 0.  1.
         21   -1    0    0  501  502 -0.00000000000E+00 -0.00000000000E+00 -0.49248502294E+03  0.49248502294E+03  0.00000000000E+00 0.  1.
         25    1    1    2    0    0  0.59900806141E+02 -0.75106638682E+02 -0.10148794253E+03  0.18749377651E+03  0.12500000000E+03 0.  0.
         25    1    1    2    0    0 -0.51243294658E+02 -0.36326954174E+02 -0.17279353322E+03  0.22232437556E+03  0.12500000000E+03 0.  0.
         25    1    1    2    0    0 -0.86575114830E+01  0.11143359286E+03 -0.10370845154E+03  0.19716196652E+03  0.12500000000E+03 0.  0.
</event>
<event>
 5    0  0.6719343E-005  0.2832367E+03  0.7546771E-02  0.1093934E+00
         21   -1    0    0  502  501  0.00000000000E+00  0.00000000000E+00  0.48856416927E+03  0.48856416927E+03  0.00000000000E+00 0.  1.
         21   -1    0    0  501  502 -0.00000000000E+00 -0.00000000000E+00 -0.16420159480E+03  0.16420159480E+03  0.00000000000E+00 0. -1.
         25    1    1    2    0    0  0.84357586177E+02  0.43521727854E+02  0.13413716077E+03  0.20646578661E+03  0.12500000000E+03 0.  0.
         25    1    1    2    0    0  0.88849009828E+02 -0.35383943278E+02  0.16987262051E+03  0.23157693578E+03  0.12500000000E+03 0.  0.
         25    1    1    2    0    0 -0.17320659601E+03 -0.81377845757E+01  0.20352793193E+02  0.21472304168E+03  0.12500000000E+03 0.  0.
</event>
<event>
 5    0  0.5728184E-005  0.3389117E+03  0.7546771E-02  0.1067260E+00
         21   -1    0    0  502  501  0.00000000000E+00  0.00000000000E+00  0.29997950728E+03  0.29997950728E+03  0.00000000000E+00 0.  1.
         21   -1    0    0  501  502 -0.00000000000E+00 -0.00000000000E+00 -0.38289662954E+03  0.38289662954E+03  0.00000000000E+00 0.  1.
         25    1    1    2    0    0  0.10773747898E+03  0.49324965479E+01  0.11000586726E+03  0.19838846925E+03  0.12500000000E+03 0.  0.
         25    1    1    2    0    0 -0.18055720667E+03 -0.47360659243E+02 -0.23785596735E+03  0.32717640215E+03  0.12500000000E+03 0.  0.
         25    1    1    2    0    0  0.72819727684E+02  0.42428162695E+02  0.44932977832E+02  0.15731126541E+03  0.12500000000E+03 0.  0.
</event>
<event>
 5    0  0.5728184E-005  0.3319562E+03  0.7546771E-02  0.1070275E+00
         21   -1    0    0  502  501  0.00000000000E+00  0.00000000000E+00  0.62147324655E+03  0.62147324655E+03  0.00000000000E+00 0.  1.
         21   -1    0    0  501  502 -0.00000000000E+00 -0.00000000000E+00 -0.17731242096E+03  0.17731242096E+03  0.00000000000E+00 0.  1.
         25    1    1    2    0    0 -0.11090729599E+03  0.82056179234E+02  0.39292485384E+03  0.43479717756E+03  0.12500000000E+03 0.  0.
         25    1    1    2    0    0  0.12817932346E+03 -0.10304318040E+03  0.96886198072E+02  0.22816610477E+03  0.12500000000E+03 0.  0.
         25    1    1    2    0    0 -0.17272027475E+02  0.20987001162E+02 -0.45650226322E+02  0.13582238517E+03  0.12500000000E+03 0.  0.
</event>
<event>
 5    0  0.5728184E-005  0.3059032E+03  0.7546771E-02  0.1082326E+00
         21   -1    0    0  502  501  0.00000000000E+00  0.00000000000E+00  0.23731073374E+03  0.23731073374E+03  0.00000000000E+00 0.  1.
         21   -1    0    0  501  502 -0.00000000000E+00 -0.00000000000E+00 -0.39432163324E+03  0.39432163324E+03  0.00000000000E+00 0.  1.
         25    1    1    2    0    0 -0.20933591952E+03 -0.53618005402E+02 -0.31008506812E+02  0.25156101685E+03  0.12500000000E+03 0.  0.
         25    1    1    2    0    0  0.34393359237E+02  0.34534954675E+02 -0.88139182419E+01  0.13445538817E+03  0.12500000000E+03 0.  0.
         25    1    1    2    0    0  0.17494256028E+03  0.19083050727E+02 -0.11718847445E+03  0.24561596196E+03  0.12500000000E+03 0.  0.
</event>
<event>
 5    0  0.5728184E-005  0.3004566E+03  0.7546771E-02  0.1085013E+00
         21   -1    0    0  502  501  0.00000000000E+00  0.00000000000E+00  0.10216199642E+04  0.10216199642E+04  0.00000000000E+00 0. -1.
         21   -1    0    0  501  502 -0.00000000000E+00 -0.00000000000E+00 -0.88363756682E+02  0.88363756682E+02  0.00000000000E+00 0. -1.
         25    1    1    2    0    0 -0.74934060689E+02  0.16141486146E+01  0.80235354491E+03  0.81548386248E+03  0.12500000000E+03 0.  0.
         25    1    1    2    0    0  0.30997284111E+02  0.16868304543E+02  0.59652539164E+02  0.14292934181E+03  0.12500000000E+03 0.  0.
         25    1    1    2    0    0  0.43936776578E+02 -0.18482453158E+02  0.71250123438E+02  0.15157051659E+03  0.12500000000E+03 0.  0.
</event>
<event>
 5    0  0.5728184E-005  0.3340139E+03  0.7546771E-02  0.1069375E+00
         21   -1    0    0  502  501  0.00000000000E+00  0.00000000000E+00  0.18782741428E+04  0.18782741428E+04  0.00000000000E+00 0. -1.
         21   -1    0    0  501  502 -0.00000000000E+00 -0.00000000000E+00 -0.59397771119E+02  0.59397771119E+02  0.00000000000E+00 0. -1.
         25    1    1    2    0    0 -0.64520078832E+02  0.23237853715E+03  0.10154949186E+04  0.10511981520E+04  0.12500000000E+03 0.  0.
         25    1    1    2    0    0 -0.22472002162E+02 -0.16419781800E+03  0.46228825314E+03  0.50675570378E+03  0.12500000000E+03 0.  0.
         25    1    1    2    0    0  0.86992080994E+02 -0.68180719143E+02  0.34109319988E+03  0.37971805807E+03  0.12500000000E+03 0.  0.
</event>
<event>
 5    0  0.5728184E-005  0.3110131E+03  0.7546771E-02  0.1079861E+00
         21   -1    0    0  502  501  0.00000000000E+00  0.00000000000E+00  0.62644409485E+03  0.62644409485E+03  0.00000000000E+00 0. -1.
         21   -1    0    0  501  502 -0.00000000000E+00 -0.00000000000E+00 -0.15440991353E+03  0.15440991353E+03  0.00000000000E+00 0. -1.
         25    1    1    2    0    0  0.68582619775E+02  0.75476825919E+02  0.47713225085E+02  0.16823162257E+03  0.12500000000E+03 0.  0.
         25    1    1    2    0    0  0.16662279027E+02  0.12564397404E+03  0.10731966174E+03  0.20786185208E+03  0.12500000000E+03 0.  0.
         25    1    1    2    0    0 -0.85244898802E+02 -0.20112079996E+03  0.31700129449E+03  0.40476053372E+03  0.12500000000E+03 0.  0.
</event>
<event>
 5    0  0.5728184E-005  0.3702830E+03  0.7546771E-02  0.1054585E+00
         21   -1    0    0  502  501  0.00000000000E+00  0.00000000000E+00  0.13448620699E+04  0.13448620699E+04  0.00000000000E+00 0. -1.
         21   -1    0    0  501  502 -0.00000000000E+00 -0.00000000000E+00 -0.10195061432E+03  0.10195061432E+03  0.00000000000E+00 0. -1.
         25    1    1    2    0    0  0.13367071431E+03  0.13538765844E+02  0.65529576502E+03  0.68050620695E+03  0.12500000000E+03 0.  0.
         25    1    1    2    0    0  0.91095299475E+02  0.11709940039E+03  0.31164058746E+03  0.36709055955E+03  0.12500000000E+03 0.  0.
         25    1    1    2    0    0 -0.22476601378E+03 -0.13063816623E+03  0.27597510310E+03  0.39921591772E+03  0.12500000000E+03 0.  0.
</event>
<event>
 5    0  0.5728184E-005  0.3017810E+03  0.7546771E-02  0.1084354E+00
         21   -1    0    0  502  501  0.00000000000E+00  0.00000000000E+00  0.12994561692E+03  0.12994561692E+03  0.00000000000E+00 0. -1.
         21   -1    0    0  501  502 -0.00000000000E+00 -0.00000000000E+00 -0.70084542128E+03  0.70084542128E+03  0.00000000000E+00 0. -1.
         25    1    1    2    0    0  0.14884149919E+03 -0.28419663313E+02 -0.28347588677E+03  0.34488410738E+03  0.12500000000E+03 0.  0.
         25    1    1    2    0    0 -0.63394041100E+02  0.14371866806E+03 -0.13281091840E+03  0.24070230585E+03  0.12500000000E+03 0.  0.
         25    1    1    2    0    0 -0.85447458085E+02 -0.11529900475E+03 -0.15461299919E+03  0.24520462497E+03  0.12500000000E+03 0.  0.
</event>
<event>
 5    0  0.5728184E-005  0.2943419E+03  0.7546771E-02  0.1088104E+00
         21   -1    0    0  502  501  0.00000000000E+00  0.00000000000E+00  0.29583742565E+03  0.29583742565E+03  0.00000000000E+00 0.  1.
         21   -1    0    0  501  502 -0.00000000000E+00 -0.00000000000E+00 -0.29285395849E+03  0.29285395849E+03  0.00000000000E+00 0.  1.
         25    1    1    2    0    0 -0.48589976016E+02 -0.17561191066E+02  0.16083583535E+03  0.21014886898E+03  0.12500000000E+03 0.  0.
         25    1    1    2    0    0 -0.90588647188E+02 -0.10857863136E+02 -0.75250548922E+02  0.17208091499E+03  0.12500000000E+03 0.  0.
         25    1    1    2    0    0  0.13917862320E+03  0.28419054202E+02 -0.82601819270E+02  0.20646160017E+03  0.12500000000E+03 0.  0.
</event>
<event>
 5    0  0.5728184E-005  0.4614540E+03  0.7546771E-02  0.1024360E+00
         21   -1    0    0  502  501  0.00000000000E+00  0.00000000000E+00  0.33364285603E+03  0.33364285603E+03  0.00000000000E+00 0.  1.
         21   -1    0    0  501  502 -0.00000000000E+00 -0.00000000000E+00 -0.63822685327E+03  0.63822685327E+03  0.00000000000E+00 0.  1.
         25    1    1    2    0    0 -0.23153798883E+03  0.66052518919E+01 -0.12812041389E+03  0.29273419698E+03  0.12500000000E+03 0.  0.
         25    1    1    2    0    0  0.40851082820E+03  0.38491180085E+02 -0.74070070441E+02  0.43528616224E+03  0.12500000000E+03 0.  0.
         25    1    1    2    0    0 -0.17697283937E+03 -0.45096431977E+02 -0.10239351292E+03  0.24384935009E+03  0.12500000000E+03 0.  0.
</event>
<event>
 5    0  0.5728184E-005  0.2563944E+03  0.7546771E-02  0.1109329E+00
         21   -1    0    0  502  501  0.00000000000E+00  0.00000000000E+00  0.76650230852E+02  0.76650230852E+02  0.00000000000E+00 0.  1.
         21   -1    0    0  501  502 -0.00000000000E+00 -0.00000000000E+00 -0.85763704508E+03  0.85763704508E+03  0.00000000000E+00 0.  1.
         25    1    1    2    0    0  0.53953257950E+02  0.12219193513E+02 -0.10807874228E+03  0.17425922434E+03  0.12500000000E+03 0.  0.
         25    1    1    2    0    0  0.22654159388E+02  0.94201356211E+02 -0.42114137521E+03  0.44985793798E+03  0.12500000000E+03 0.  0.
         25    1    1    2    0    0 -0.76607417339E+02 -0.10642054972E+03 -0.25176669674E+03  0.31017011362E+03  0.12500000000E+03 0.  0.
</event>
<event>
 5    0  0.5728184E-005  0.3487839E+03  0.7546771E-02  0.1063115E+00
         21   -1    0    0  502  501  0.00000000000E+00  0.00000000000E+00  0.22176809325E+03  0.22176809325E+03  0.00000000000E+00 0. -1.
         21   -1    0    0  501  502 -0.00000000000E+00 -0.00000000000E+00 -0.54854682720E+03  0.54854682720E+03  0.00000000000E+00 0. -1.
         25    1    1    2    0    0 -0.10131283836E+03 -0.24442222093E+02 -0.38138562577E+02  0.16715640398E+03  0.12500000000E+03 0.  0.
         25    1    1    2    0    0  0.25561481204E+03 -0.11199592982E+02 -0.28278712738E+03  0.40132022429E+03  0.12500000000E+03 0.  0.
         25    1    1    2    0    0 -0.15430197368E+03  0.35641815075E+02 -0.58530440007E+01  0.20183829217E+03  0.12500000000E+03 0.  0.
</event>
<event>
 5    0  0.5728184E-005  0.4394028E+03  0.7546771E-02  0.1030930E+00
         21   -1    0    0  502  501  0.00000000000E+00  0.00000000000E+00  0.77510425159E+03  0.77510425159E+03  0.00000000000E+00 0. -1.
         21   -1    0    0  501  502 -0.00000000000E+00 -0.00000000000E+00 -0.24909531380E+03  0.24909531380E+03  0.00000000000E+00 0. -1.
         25    1    1    2    0    0 -0.34991671229E+02  0.48906007236E+02 -0.17773100756E+02  0.13984669360E+03  0.12500000000E+03 0.  0.
         25    1    1    2    0    0  0.18198406914E+03  0.22346635492E+03  0.10124940492E+03  0.33004826192E+03  0.12500000000E+03 0.  0.
         25    1    1    2    0    0 -0.14699239791E+03 -0.27237236216E+03  0.44253263362E+03  0.55430460988E+03  0.12500000000E+03 0.  0.
</event>
<event>
 5    0  0.5728184E-005  0.5280595E+03  0.7546771E-02  0.1006704E+00
         21   -1    0    0  502  501  0.00000000000E+00  0.00000000000E+00  0.13555175389E+04  0.13555175389E+04  0.00000000000E+00 0. -1.
         21   -1    0    0  501  502 -0.00000000000E+00 -0.00000000000E+00 -0.20571241526E+03  0.20571241526E+03  0.00000000000E+00 0. -1.
         25    1    1    2    0    0 -0.93990615176E+02  0.11861912664E+03  0.11522800768E+04  0.11688794242E+04  0.12500000000E+03 0.  0.
         25    1    1    2    0    0 -0.19040071139E+02 -0.94041677553E+02  0.10647049444E+03  0.19017709539E+03  0.12500000000E+03 0.  0.
         25    1    1    2    0    0  0.11303068631E+03 -0.24577449085E+02 -0.10894544766E+03  0.20217343450E+03  0.12500000000E+03 0.  0.
</event>
<event>
 5    0  0.5728184E-005  0.2860552E+03  0.7546771E-02  0.1092427E+00
         21   -1    0    0  502  501  0.00000000000E+00  0.00000000000E+00  0.29006405166E+03  0.29006405166E+03  0.00000000000E+00 0.  1.
         21   -1    0    0  501  502 -0.00000000000E+00 -0.00000000000E+00 -0.28210176221E+03  0.28210176221E+03  0.00000000000E+00 0.  1.
         25    1    1    2    0    0 -0.41681498742E+02  0.10142016513E+03  0.11059885356E+03  0.19970103565E+03  0.12500000000E+03 0.  0.
         25    1    1    2    0    0 -0.33054833455E+01 -0.24698396288E+02  0.66793674523E+02  0.14390042375E+03  0.12500000000E+03 0.  0.
         25    1    1    2    0    0  0.44986982088E+02 -0.76721768844E+02 -0.16943023862E+03  0.22856435446E+03  0.12500000000E+03 0.  0.
</event>
<event>
 5    0  0.5728184E-005  0.2423378E+03  0.7546771E-02  0.1118245E+00
         21   -1    0    0  502  501  0.00000000000E+00  0.00000000000E+00  0.63309114185E+02  0.63309114185E+02  0.00000000000E+00 0.  1.
         21   -1    0    0  501  502 -0.00000000000E+00 -0.00000000000E+00 -0.92763280179E+03  0.92763280179E+03  0.00000000000E+00 0.  1.
         25    1    1    2    0    0 -0.12210489735E+03  0.96069175255E+01 -0.21969728698E+03  0.28088039577E+03  0.12500000000E+03 0.  0.
         25    1    1    2    0    0  0.21945376785E+02 -0.23621840810E+02 -0.20837200834E+03  0.24511932764E+03  0.12500000000E+03 0.  0.
         25    1    1    2    0    0  0.10015952056E+03  0.14014923285E+02 -0.43625439229E+03  0.46494219256E+03  0.12500000000E+03 0.  0.
</event>
<event>
 5    0  0.5728184E-005  0.4485560E+03  0.7546771E-02  0.1028154E+00
         21   -1    0    0  502  501  0.00000000000E+00  0.00000000000E+00  0.17539329398E+04  0.17539329398E+04  0.00000000000E+00 0. -1.
         21   -1    0    0  501  502 -0.00000000000E+00 -0.00000000000E+00 -0.11471501399E+03  0.11471501399E+03  0.00000000000E+00 0. -1.
         25    1    1    2    0    0  0.21953739338E+03  0.21362174305E+03  0.80058004722E+03  0.86624726736E+03  0.12500000000E+03 0.  0.
         25    1    1    2    0    0 -0.31441284180E+02 -0.11338346822E+03  0.69650593246E+03  0.71734920309E+03  0.12500000000E+03 0.  0.
         25    1    1    2    0    0 -0.18809610920E+03 -0.10023827483E+03  0.14213194610E+03  0.28505148332E+03  0.12500000000E+03 0.  0.
</event>
<event>
 5    0  0.5728184E-005  0.4318733E+03  0.7546771E-02  0.1033270E+00
         21   -1    0    0  502  501  0.00000000000E+00  0.00000000000E+00  0.17352193516E+03  0.17352193516E+03  0.00000000000E+00 0.  1.
         21   -1    0    0  501  502 -0.00000000000E+00 -0.00000000000E+00 -0.10748757724E+04  0.10748757724E+04  0.00000000000E+00 0.  1.
         25    1    1    2    0    0  0.10296866594E+03  0.18907888836E+03 -0.23955904546E+02  0.25010449326E+03  0.12500000000E+03 0.  0.
         25    1    1    2    0    0  0.60803145313E+02  0.34326608142E+02 -0.46145618793E+03  0.48315851631E+03  0.12500000000E+03 0.  0.
         25    1    1    2    0    0 -0.16377181126E+03 -0.22340549650E+03 -0.41594174475E+03  0.51513469797E+03  0.12500000000E+03 0.  0.
</event>
<event>
 5    0  0.5728184E-005  0.2400730E+03  0.7546771E-02  0.1119744E+00
         21   -1    0    0  502  501  0.00000000000E+00  0.00000000000E+00  0.71589016565E+02  0.71589016565E+02  0.00000000000E+00 0.  1.
         21   -1    0    0  501  502 -0.00000000000E+00 -0.00000000000E+00 -0.80508214985E+03  0.80508214985E+03  0.00000000000E+00 0.  1.
         25    1    1    2    0    0 -0.11377536432E+02  0.28143184013E+02 -0.91952676713E+02  0.15811951776E+03  0.12500000000E+03 0.  0.
         25    1    1    2    0    0  0.91893485154E+02  0.39530603041E+02 -0.32937339533E+03  0.36622249349E+03  0.12500000000E+03 0.  0.
         25    1    1    2    0    0 -0.80515948722E+02 -0.67673787053E+02 -0.31216706125E+03  0.35232915517E+03  0.12500000000E+03 0.  0.
</event>
<event>
 5    0  0.5728184E-005  0.4443160E+03  0.7546771E-02  0.1029431E+00
         21   -1    0    0  502  501  0.00000000000E+00  0.00000000000E+00  0.45905687891E+03  0.45905687891E+03  0.00000000000E+00 0. -1.
         21   -1    0    0  501  502 -0.00000000000E+00 -0.00000000000E+00 -0.43004852889E+03  0.43004852889E+03  0.00000000000E+00 0. -1.
         25    1    1    2    0    0 -0.13337766456E+03  0.11040769521E+02 -0.26722499596E+02  0.18506915459E+03  0.12500000000E+03 0.  0.
         25    1    1    2    0    0  0.29114438381E+03  0.11620155496E+03  0.23047421194E+03  0.40867005759E+03  0.12500000000E+03 0.  0.
         25    1    1    2    0    0 -0.15776671925E+03 -0.12724232449E+03 -0.17474336232E+03  0.29536619563E+03  0.12500000000E+03 0.  0.
</event>
<event>
 5    0  0.6339094E-005  0.2844202E+03  0.7546771E-02  0.1093299E+00
         21   -1    0    0  502  501  0.00000000000E+00  0.00000000000E+00  0.29269263223E+03  0.29269263223E+03  0.00000000000E+00 0.  1.
         21   -1    0    0  501  502 -0.00000000000E+00 -0.00000000000E+00 -0.27638149144E+03  0.27638149144E+03  0.00000000000E+00 0.  1.
         25    1    1    2    0    0 -0.52861681993E+02 -0.10914346353E+03  0.56118597930E+02  0.18297800438E+03  0.12500000000E+03 0.  0.
         25    1    1    2    0    0  0.14077596752E+02 -0.44351084723E+02  0.75986630491E+02  0.15350623916E+03  0.12500000000E+03 0.  0.
         25    1    1    2    0    0  0.38784085241E+02  0.15349454825E+03 -0.11579408764E+03  0.23258988014E+03  0.12500000000E+03 0.  0.
</event>
<event>
 5    0  0.5728184E-005  0.3576981E+03  0.7546771E-02  0.1059499E+00
         21   -1    0    0  502  501  0.00000000000E+00  0.00000000000E+00  0.56872043656E+03  0.56872043656E+03  0.00000000000E+00 0.  1.
         21   -1    0    0  501  502 -0.00000000000E+00 -0.00000000000E+00 -0.22497504767E+03  0.22497504767E+03  0.00000000000E+00 0.  1.
         25    1    1    2    0    0 -0.83692936711E+02 -0.63707027939E+02 -0.44977856728E+02  0.16944350286E+03  0.12500000000E+03 0.  0.
         25    1    1    2    0    0 -0.84655437798E+02  0.24159168955E+02  0.38122695671E+03  0.41074225631E+03  0.12500000000E+03 0.  0.
         25    1    1    2    0    0  0.16834837451E+03  0.39547858984E+02  0.74962889078E+01  0.21350972507E+03  0.12500000000E+03 0.  0.
</event>
<event>
 5    0  0.6007347E-005  0.3002342E+03  0.7546771E-02  0.1085124E+00
         21   -1    0    0  502  501  0.00000000000E+00  0.00000000000E+00  0.49150923056E+03  0.49150923056E+03  0.00000000000E+00 0. -1.
         21   -1    0    0  501  502 -0.00000000000E+00 -0.00000000000E+00 -0.18339550573E+03  0.18339550573E+03  0.00000000000E+00 0. -1.
         25    1    1    2    0    0  0.43375634301E+01 -0.66377636950E+02 -0.61588263589E+02  0.15441152598E+03  0.12500000000E+03 0.  0.
         25    1    1    2    0    0 -0.43003482936E+02 -0.41579999164E+02  0.31187497228E+03  0.34127583303E+03  0.12500000000E+03 0.  0.
         25    1    1    2    0    0  0.38665919506E+02  0.10795763611E+03  0.57827016142E+02  0.17921737729E+03  0.12500000000E+03 0.  0.
</event>
<event>
 5    0  0.5728184E-005  0.5845321E+03  0.7546771E-02  0.9938027E-01
         21   -1    0    0  502  501  0.00000000000E+00  0.00000000000E+00  0.10604250611E+04  0.10604250611E+04  0.00000000000E+00 0. -1.
         21   -1    0    0  501  502 -0.00000000000E+00 -0.00000000000E+00 -0.32220828065E+03  0.32220828065E+03  0.00000000000E+00 0. -1.
         25    1    1    2    0    0  0.24627111963E+03  0.25852296617E+03  0.10931037911E+03  0.39377321821E+03  0.12500000000E+03 0.  0.
         25    1    1    2    0    0 -0.42930524603E+03 -0.16713183747E+03  0.56713110358E+03  0.74128181821E+03  0.12500000000E+03 0.  0.
         25    1    1    2    0    0  0.18303412641E+03 -0.91391128705E+02  0.61775297728E+02  0.24757830528E+03  0.12500000000E+03 0.  0.
</event>
<event>
 5    0  0.5728184E-005  0.3371010E+03  0.7546771E-02  0.1068037E+00
         21   -1    0    0  502  501  0.00000000000E+00  0.00000000000E+00  0.30833635346E+03  0.30833635346E+03  0.00000000000E+00 0. -1.
         21   -1    0    0  501  502 -0.00000000000E+00 -0.00000000000E+00 -0.36854903748E+03  0.36854903748E+03  0.00000000000E+00 0. -1.
         25    1    1    2    0    0 -0.10014873623E+03  0.87263126037E+02  0.35595451027E+02  0.18584041183E+03  0.12500000000E+03 0.  0.
         25    1    1    2    0    0 -0.13768220879E+03  0.29940936385E+02 -0.42873997707E+02  0.19317357472E+03  0.12500000000E+03 0.  0.
         25    1    1    2    0    0  0.23783094502E+03 -0.11720406242E+03 -0.52934137340E+02  0.29787140439E+03  0.12500000000E+03 0.  0.
</event>
<event>
 5    0  0.5728184E-005  0.2892586E+03  0.7546771E-02  0.1090737E+00
         21   -1    0    0  502  501  0.00000000000E+00  0.00000000000E+00  0.23407210086E+04  0.23407210086E+04  0.00000000000E+00 0.  1.
         21   -1    0    0  501  502 -0.00000000000E+00 -0.00000000000E+00 -0.35745616056E+02  0.35745616056E+02  0.00000000000E+00 0.  1.
         25    1    1    2    0    0 -0.14072512754E+03 -0.31926859090E+02  0.44404617284E+03  0.48334758659E+03  0.12500000000E+03 0.  0.
         25    1    1    2    0    0 -0.52695377377E+01 -0.54832563062E+02  0.70431445314E+03  0.71743865724E+03  0.12500000000E+03 0.  0.
         25    1    1    2    0    0  0.14599466527E+03  0.86759422152E+02  0.11566147666E+04  0.11756803808E+04  0.12500000000E+03 0.  0.
</event>
<event>
 5    0  0.5728184E-005  0.2746949E+03  0.7546771E-02  0.1098622E+00
         21   -1    0    0  502  501  0.00000000000E+00  0.00000000000E+00  0.69271035886E+02  0.69271035886E+02  0.00000000000E+00 0.  1.
         21   -1    0    0  501  502 -0.00000000000E+00 -0.00000000000E+00 -0.10893054297E+04  0.10893054297E+04  0.00000000000E+00 0.  1.
         25    1    1    2    0    0  0.15395884767E+02  0.17895859922E+03 -0.36104785450E+03  0.42218925465E+03  0.12500000000E+03 0.  0.
         25    1    1    2    0    0 -0.34439280225E+02 -0.10832862497E+03 -0.24345328503E+03  0.29633706653E+03  0.12500000000E+03 0.  0.
         25    1    1    2    0    0  0.19043395458E+02 -0.70629974250E+02 -0.41553325431E+03  0.44005014443E+03  0.12500000000E+03 0.  0.
</event>
<event>
 5    0  0.5728184E-005  0.3047847E+03  0.7546771E-02  0.1082873E+00
         21   -1    0    0  502  501  0.00000000000E+00  0.00000000000E+00  0.10630747074E+04  0.10630747074E+04  0.00000000000E+00 0. -1.
         21   -1    0    0  501  502 -0.00000000000E+00 -0.00000000000E+00 -0.87382101083E+02  0.87382101083E+02  0.00000000000E+00 0. -1.
         25    1    1    2    0    0 -0.10319099879E+03  0.74012243394E+02  0.62288236543E+03  0.64786853263E+03  0.12500000000E+03 0.  0.
         25    1    1    2    0    0  0.60985253175E+02  0.66351073620E+01  0.31351320029E+03  0.34304336827E+03  0.12500000000E+03 0.  0.
         25    1    1    2    0    0  0.42205745619E+02 -0.80647350756E+02  0.39297040633E+02  0.15954490763E+03  0.12500000000E+03 0.  0.
</event>
<event>
 5    0  0.5728184E-005  0.2486898E+03  0.7546771E-02  0.1114136E+00
         21   -1    0    0  502  501  0.00000000000E+00  0.00000000000E+00  0.62503633538E+02  0.62503633538E+02  0.00000000000E+00 0.  1.
         21   -1    0    0  501  502 -0.00000000000E+00 -0.00000000000E+00 -0.98948861876E+03  0.98948861876E+03  0.00000000000E+00 0.  1.
         25    1    1    2    0    0 -0.90190985257E+02 -0.34130591087E+02 -0.28516291119E+03  0.32594815077E+03  0.12500000000E+03 0.  0.
         25    1    1    2    0    0  0.66742952765E+02  0.12362738802E+01 -0.11327744089E+03  0.18141920718E+03  0.12500000000E+03 0.  0.
         25    1    1    2    0    0  0.23448032492E+02  0.32894317207E+02 -0.52854463314E+03  0.54462489435E+03  0.12500000000E+03 0.  0.
</event>
<event>
 5    0  0.5728184E-005  0.2256309E+03  0.7546771E-02  0.1129753E+00
         21   -1    0    0  502  501  0.00000000000E+00  0.00000000000E+00  0.70453314351E+03  0.70453314351E+03  0.00000000000E+00 0.  1.
         21   -1    0    0  501  502 -0.00000000000E+00 -0.00000000000E+00 -0.72259647283E+02  0.72259647283E+02  0.00000000000E+00 0.  1.
         25    1    1    2    0    0  0.38950792468E+02  0.55153740935E+02  0.12897826046E+03  0.19188405626E+03  0.12500000000E+03 0.  0.
         25    1    1    2    0    0 -0.26737833105E+02 -0.98242561632E+02  0.22771878074E+03  0.27901138997E+03  0.12500000000E+03 0.  0.
         25    1    1    2    0    0 -0.12212959362E+02  0.43088820697E+02  0.27557645503E+03  0.30589734457E+03  0.12500000000E+03 0.  0.
</event>
<event>
 5    0  0.5728184E-005  0.3295592E+03  0.7546771E-02  0.1071332E+00
         21   -1    0    0  502  501  0.00000000000E+00  0.00000000000E+00  0.13172419005E+04  0.13172419005E+04  0.00000000000E+00 0.  1.
         21   -1    0    0  501  502 -0.00000000000E+00 -0.00000000000E+00 -0.82452005323E+02  0.82452005323E+02  0.00000000000E+00 0.  1.
         25    1    1    2    0    0 -0.49362801412E+02  0.11613565590E+03  0.84932635396E+03  0.86770065821E+03  0.12500000000E+03 0.  0.
         25    1    1    2    0    0  0.10914018486E+03  0.20754725087E+02  0.22052051752E+03  0.27676097487E+03  0.12500000000E+03 0.  0.
         25    1    1    2    0    0 -0.59777383452E+02 -0.13689038099E+03  0.16494302370E+03  0.25523227274E+03  0.12500000000E+03 0.  0.
</event>
<event>
 5    0  0.5728184E-005  0.2648438E+03  0.7546771E-02  0.1104267E+00
         21   -1    0    0  502  501  0.00000000000E+00  0.00000000000E+00  0.26213165020E+03  0.26213165020E+03  0.00000000000E+00 0.  1.
         21   -1    0    0  501  502 -0.00000000000E+00 -0.00000000000E+00 -0.26758403806E+03  0.26758403806E+03  0.00000000000E+00 0.  1.
         25    1    1    2    0    0  0.60734166417E+01  0.14090457432E+02  0.45114396098E+02  0.13377494577E+03  0.12500000000E+03 0.  0.
         25    1    1    2    0    0 -0.98905907359E+02  0.98816023441E+02 -0.75165748639E+02  0.20204423963E+03  0.12500000000E+03 0.  0.
         25    1    1    2    0    0  0.92832490717E+02 -0.11290648087E+03  0.24598964684E+02  0.19389650285E+03  0.12500000000E+03 0.  0.
</event>
<event>
 5    0  0.5728184E-005  0.4734224E+03  0.7546771E-02  0.1020959E+00
         21   -1    0    0  502  501  0.00000000000E+00  0.00000000000E+00  0.44390311172E+03  0.44390311172E+03  0.00000000000E+00 0. -1.
         21   -1    0    0  501  502 -0.00000000000E+00 -0.00000000000E+00 -0.50490468590E+03  0.50490468590E+03  0.00000000000E+00 0. -1.
         25    1    1    2    0    0 -0.69214892358E+02  0.16682151099E+03  0.10475852433E+03  0.24335050087E+03  0.12500000000E+03 0.  0.
         25    1    1    2    0    0  0.62453267102E+02 -0.33031394573E+03  0.97082323241E+02  0.37156115352E+03  0.12500000000E+03 0.  0.
         25    1    1    2    0    0  0.67616252562E+01  0.16349243474E+03 -0.26284242175E+03  0.33389614324E+03  0.12500000000E+03 0.  0.
</event>
<event>
 5    0  0.5728184E-005  0.2773221E+03  0.7546771E-02  0.1097161E+00
         21   -1    0    0  502  501  0.00000000000E+00  0.00000000000E+00  0.40193523771E+03  0.40193523771E+03  0.00000000000E+00 0. -1.
         21   -1    0    0  501  502 -0.00000000000E+00 -0.00000000000E+00 -0.19134312955E+03  0.19134312955E+03  0.00000000000E+00 0. -1.
         25    1    1    2    0    0 -0.98566480038E+02 -0.70193777252E+02  0.75873704924E+02  0.18980078095E+03  0.12500000000E+03 0.  0.
         25    1    1    2    0    0  0.11994623980E+03 -0.42588419747E+02 -0.12465944116E+02  0.17883308894E+03  0.12500000000E+03 0.  0.
         25    1    1    2    0    0 -0.21379759761E+02  0.11278219700E+03  0.14718434736E+03  0.22464449736E+03  0.12500000000E+03 0.  0.
</event>
<event>
 5    0  0.5728184E-005  0.3968581E+03  0.7546771E-02  0.1044873E+00
         21   -1    0    0  502  501  0.00000000000E+00  0.00000000000E+00  0.39573939064E+03  0.39573939064E+03  0.00000000000E+00 0. -1.
         21   -1    0    0  501  502 -0.00000000000E+00 -0.00000000000E+00 -0.39797995099E+03  0.39797995099E+03  0.00000000000E+00 0. -1.
         25    1    1    2    0    0 -0.13057217796E+03  0.12276021659E+03 -0.12995966264E+03  0.25423154475E+03  0.12500000000E+03 0.  0.
         25    1    1    2    0    0  0.16670792262E+03 -0.25993128016E+03  0.10367401812E+03  0.34889698179E+03  0.12500000000E+03 0.  0.
         25    1    1    2    0    0 -0.36135744653E+02  0.13717106357E+03  0.24045084167E+02  0.19059081509E+03  0.12500000000E+03 0.  0.
</event>
<event>
 5    0  0.5728184E-005  0.3337012E+03  0.7546771E-02  0.1069511E+00
         21   -1    0    0  502  501  0.00000000000E+00  0.00000000000E+00  0.33122514896E+03  0.33122514896E+03  0.00000000000E+00 0.  1.
         21   -1    0    0  501  502 -0.00000000000E+00 -0.00000000000E+00 -0.33619577987E+03  0.33619577987E+03  0.00000000000E+00 0.  1.
         25    1    1    2    0    0 -0.59537143580E+02  0.58817705301E+02  0.81411969076E+02  0.17104707724E+03  0.12500000000E+03 0.  0.
         25    1    1    2    0    0  0.15708290944E+03  0.60835955693E+02  0.92320179129E+02  0.22918130250E+03  0.12500000000E+03 0.  0.
         25    1    1    2    0    0 -0.97545765861E+02 -0.11965366099E+03 -0.17870277912E+03  0.26719254909E+03  0.12500000000E+03 0.  0.
</event>
<event>
 5    0  0.5728184E-005  0.2248036E+03  0.7546771E-02  0.1130352E+00
         21   -1    0    0  502  501  0.00000000000E+00  0.00000000000E+00  0.43491796461E+03  0.43491796461E+03  0.00000000000E+00 0. -1.
         21   -1    0    0  501  502 -0.00000000000E+00 -0.00000000000E+00 -0.11619810342E+03  0.11619810342E+03  0.00000000000E+00 0. -1.
         25    1    1    2    0    0 -0.49781692532E+02  0.27311494385E+01  0.97089544007E+01  0.13492568282E+03  0.12500000000E+03 0.  0.
         25    1    1    2    0    0  0.23189653123E+02  0.55049463337E+02  0.15454408936E+03  0.20755018425E+03  0.12500000000E+03 0.  0.
         25    1    1    2    0    0  0.26592039409E+02 -0.57780612776E+02  0.15446681743E+03  0.20864020096E+03  0.12500000000E+03 0.  0.
</event>
<event>
 5    0  0.5728184E-005  0.3915771E+03  0.7546771E-02  0.1046736E+00
         21   -1    0    0  502  501  0.00000000000E+00  0.00000000000E+00  0.20272991993E+03  0.20272991993E+03  0.00000000000E+00 0. -1.
         21   -1    0    0  501  502 -0.00000000000E+00 -0.00000000000E+00 -0.75633942281E+03  0.75633942281E+03  0.00000000000E+00 0. -1.
         25    1    1    2    0    0  0.15217191632E+02  0.13052779289E+03 -0.54815938669E+03  0.57738443074E+03  0.12500000000E+03 0.  0.
         25    1    1    2    0    0  0.35812981584E+02 -0.17430459951E+03 -0.66171794212E+02  0.22730677379E+03  0.12500000000E+03 0.  0.
         25    1    1    2    0    0 -0.51030173216E+02  0.43776806625E+02  0.60721678018E+02  0.15437813821E+03  0.12500000000E+03 0.  0.
</event>
<event>
 5    0  0.5728184E-005  0.3498847E+03  0.7546771E-02  0.1062662E+00
         21   -1    0    0  502  501  0.00000000000E+00  0.00000000000E+00  0.97275472384E+02  0.97275472384E+02  0.00000000000E+00 0.  1.
         21   -1    0    0  501  502 -0.00000000000E+00 -0.00000000000E+00 -0.12584807551E+04  0.12584807551E+04  0.00000000000E+00 0.  1.
         25    1    1    2    0    0 -0.54939895424E+02  0.16880720981E+03 -0.83110997752E+02  0.23247947036E+03  0.12500000000E+03 0.  0.
         25    1    1    2    0    0 -0.15158222115E+01 -0.52887629821E+02 -0.45327859021E+03  0.47316580545E+03  0.12500000000E+03 0.  0.
         25    1    1    2    0    0  0.56455717636E+02 -0.11591957998E+03 -0.62481569480E+03  0.65011095172E+03  0.12500000000E+03 0.  0.
</event>
<event>
 5    0  0.5728184E-005  0.3950913E+03  0.7546771E-02  0.1045493E+00
         21   -1    0    0  502  501  0.00000000000E+00  0.00000000000E+00  0.53615520115E+03  0.53615520115E+03  0.00000000000E+00 0. -1.
         21   -1    0    0  501  502 -0.00000000000E+00 -0.00000000000E+00 -0.29114172911E+03  0.29114172911E+03  0.00000000000E+00 0.  1.
         25    1    1    2    0    0  0.18064651942E+01  0.19726289880E+03  0.24318064760E+02  0.23480264657E+03  0.12500000000E+03 0.  0.
         25    1    1    2    0    0 -0.52470622718E+01 -0.30674560956E+03  0.26068645796E+03  0.42154813487E+03  0.12500000000E+03 0.  0.
         25    1    1    2    0    0  0.34405970776E+01  0.10948271075E+03 -0.39991050687E+02  0.17094614882E+03  0.12500000000E+03 0.  0.
</event>
<event>
 5    0  0.5728184E-005  0.2105095E+03  0.7546771E-02  0.1141163E+00
         21   -1    0    0  502  501  0.00000000000E+00  0.00000000000E+00  0.17272440624E+03  0.17272440624E+03  0.00000000000E+00 0.  1.
         21   -1    0    0  501  502 -0.00000000000E+00 -0.00000000000E+00 -0.25656039565E+03  0.25656039565E+03  0.00000000000E+00 0.  1.
         25    1    1    2    0    0  0.67005277294E+02 -0.84678359521E+01 -0.31175913879E+01  0.14211309161E+03  0.12500000000E+03 0.  0.
         25    1    1    2    0    0  0.13903257830E+02 -0.57848790033E+01 -0.32854911916E+02  0.13011998555E+03  0.12500000000E+03 0.  0.
         25    1    1    2    0    0 -0.80908535124E+02  0.14252714955E+02 -0.47863486103E+02  0.15705172473E+03  0.12500000000E+03 0.  0.
</event>
<event>
 5    0  0.5728184E-005  0.2857944E+03  0.7546771E-02  0.1092566E+00
         21   -1    0    0  502  501  0.00000000000E+00  0.00000000000E+00  0.64966574141E+02  0.64966574141E+02  0.00000000000E+00 0.  1.
         21   -1    0    0  501  502 -0.00000000000E+00 -0.00000000000E+00 -0.12572374666E+04  0.12572374666E+04  0.00000000000E+00 0.  1.
         25    1    1    2    0    0  0.32355656374E+02  0.13274071073E+02 -0.27908597166E+03  0.30779387427E+03  0.12500000000E+03 0.  0.
         25    1    1    2    0    0  0.61058332275E+02  0.75799313103E+02 -0.76579818661E+03  0.78201375847E+03  0.12500000000E+03 0.  0.
         25    1    1    2    0    0 -0.93413988649E+02 -0.89073384176E+02 -0.14738673421E+03  0.23239640803E+03  0.12500000000E+03 0.  0.
</event>
<event>
 5    0  0.6513523E-005  0.2979839E+03  0.7546771E-02  0.1086253E+00
         21   -1    0    0  502  501  0.00000000000E+00  0.00000000000E+00  0.51664555010E+03  0.51664555010E+03  0.00000000000E+00 0.  1.
         21   -1    0    0  501  502 -0.00000000000E+00 -0.00000000000E+00 -0.17186712112E+03  0.17186712112E+03  0.00000000000E+00 0.  1.
         25    1    1    2    0    0 -0.17045970959E+03 -0.93508162970E+02  0.20456688589E+03  0.30866308483E+03  0.12500000000E+03 0.  0.
         25    1    1    2    0    0  0.85687546365E+02  0.79071955012E+02  0.15053954012E+03  0.22777594871E+03  0.12500000000E+03 0.  0.
         25    1    1    2    0    0  0.84772163223E+02  0.14436207959E+02 -0.10327997025E+02  0.15207363769E+03  0.12500000000E+03 0.  0.
</event>
<event>
 5    0  0.6198656E-005  0.3169809E+03  0.7546771E-02  0.1077047E+00
         21   -1    0    0  502  501  0.00000000000E+00  0.00000000000E+00  0.10966582822E+03  0.10966582822E+03  0.00000000000E+00 0. -1.
         21   -1    0    0  501  502 -0.00000000000E+00 -0.00000000000E+00 -0.91620991244E+03  0.91620991244E+03  0.00000000000E+00 0. -1.
         25    1    1    2    0    0 -0.97630477208E+02 -0.37245225719E+01 -0.36347110699E+02  0.16276269414E+03  0.12500000000E+03 0.  0.
         25    1    1    2    0    0 -0.87675315813E+02  0.22839050640E+02 -0.41733342934E+03  0.44497277948E+03  0.12500000000E+03 0.  0.
         25    1    1    2    0    0  0.18530579302E+03 -0.19114528068E+02 -0.35286354418E+03  0.41814026704E+03  0.12500000000E+03 0.  0.
</event>
<event>
 5    0  0.5728184E-005  0.6752636E+03  0.7546771E-02  0.9760496E-01
         21   -1    0    0  502  501  0.00000000000E+00  0.00000000000E+00  0.53599971532E+03  0.53599971532E+03  0.00000000000E+00 0. -1.
         21   -1    0    0  501  502 -0.00000000000E+00 -0.00000000000E+00 -0.85071107924E+03  0.85071107924E+03  0.00000000000E+00 0. -1.
         25    1    1    2    0    0 -0.15984927784E+03 -0.18638317539E+03 -0.15034793497E+03  0.31387892769E+03  0.12500000000E+03 0.  0.
         25    1    1    2    0    0  0.13365547600E+03  0.54636743874E+03  0.12989774186E+03  0.59066029807E+03  0.12500000000E+03 0.  0.
         25    1    1    2    0    0  0.26193801850E+02 -0.35998426335E+03 -0.29426117081E+03  0.48217156880E+03  0.12500000000E+03 0.  0.
</event>
<event>
 5    0  0.5728184E-005  0.2120906E+03  0.7546771E-02  0.1139921E+00
         21   -1    0    0  502  501  0.00000000000E+00  0.00000000000E+00  0.31637936059E+02  0.31637936059E+02  0.00000000000E+00 0.  1.
         21   -1    0    0  501  502 -0.00000000000E+00 -0.00000000000E+00 -0.14217871859E+04  0.14217871859E+04  0.00000000000E+00 0.  1.
         25    1    1    2    0    0 -0.22774703440E+02  0.51679752301E+02 -0.32589115010E+03  0.35358100292E+03  0.12500000000E+03 0.  0.
         25    1    1    2    0    0  0.16579430290E+02  0.23564425350E+02 -0.41536232947E+03  0.43471947782E+03  0.12500000000E+03 0.  0.
         25    1    1    2    0    0  0.61952731499E+01 -0.75244177651E+02 -0.64889577026E+03  0.66512464120E+03  0.12500000000E+03 0.  0.
</event>
<event>
 5    0  0.5728184E-005  0.6386587E+03  0.7546771E-02  0.9828296E-01
         21   -1    0    0  502  501  0.00000000000E+00  0.00000000000E+00  0.54095508397E+03  0.54095508397E+03  0.00000000000E+00 0. -1.
         21   -1    0    0  501  502 -0.00000000000E+00 -0.00000000000E+00 -0.75400889638E+03  0.75400889638E+03  0.00000000000E+00 0. -1.
         25    1    1    2    0    0 -0.13530563369E+03 -0.14043307937E+03  0.89277282536E+02  0.24824281956E+03  0.12500000000E+03 0.  0.
         25    1    1    2    0    0  0.16396603000E+03 -0.10305021081E+03 -0.59915097487E+03  0.64195879590E+03  0.12500000000E+03 0.  0.
         25    1    1    2    0    0 -0.28660396310E+02  0.24348329017E+03  0.29681987993E+03  0.40476236489E+03  0.12500000000E+03 0.  0.
</event>
<event>
 5    0  0.5728184E-005  0.6696781E+03  0.7546771E-02  0.9770540E-01
         21   -1    0    0  502  501  0.00000000000E+00  0.00000000000E+00  0.28427550348E+03  0.28427550348E+03  0.00000000000E+00 0. -1.
         21   -1    0    0  501  502 -0.00000000000E+00 -0.00000000000E+00 -0.15775847351E+04  0.15775847351E+04  0.00000000000E+00 0. -1.
         25    1    1    2    0    0 -0.41822474569E+03 -0.21863005569E+03 -0.10637515669E+04  0.11704287399E+04  0.12500000000E+03 0.  0.
         25    1    1    2    0    0  0.40308197019E+03  0.27472752803E+02 -0.13735060305E+03  0.44465718817E+03  0.12500000000E+03 0.  0.
         25    1    1    2    0    0  0.15142775508E+02  0.19115730289E+03 -0.92207061696E+02  0.24677431050E+03  0.12500000000E+03 0.  0.
</event>
<event>
 5    0  0.5728184E-005  0.2974452E+03  0.7546771E-02  0.1086525E+00
         21   -1    0    0  502  501  0.00000000000E+00  0.00000000000E+00  0.56415780556E+03  0.56415780556E+03  0.00000000000E+00 0.  1.
         21   -1    0    0  501  502 -0.00000000000E+00 -0.00000000000E+00 -0.15682424980E+03  0.15682424980E+03  0.00000000000E+00 0.  1.
         25    1    1    2    0    0 -0.12777765270E+02  0.44030990920E+01 -0.30227943834E+02  0.12931120274E+03  0.12500000000E+03 0.  0.
         25    1    1    2    0    0  0.10474230960E+03  0.11465019213E+03  0.25895606424E+03  0.32680095040E+03  0.12500000000E+03 0.  0.
         25    1    1    2    0    0 -0.91964544326E+02 -0.11905329122E+03  0.17860543536E+03  0.26486990222E+03  0.12500000000E+03 0.  0.
</event>
<event>
 5    0  0.5728184E-005  0.2350707E+03  0.7546771E-02  0.1123121E+00
         21   -1    0    0  502  501  0.00000000000E+00  0.00000000000E+00  0.39943815295E+03  0.39943815295E+03  0.00000000000E+00 0. -1.
         21   -1    0    0  501  502 -0.00000000000E+00 -0.00000000000E+00 -0.13833987557E+03  0.13833987557E+03  0.00000000000E+00 0. -1.
         25    1    1    2    0    0 -0.40776565675E+01  0.81074991417E+02  0.43259539207E+02  0.15519719472E+03  0.12500000000E+03 0.  0.
         25    1    1    2    0    0  0.51635005954E+02  0.28448079173E+02  0.12508245842E+03  0.18640302694E+03  0.12500000000E+03 0.  0.
         25    1    1    2    0    0 -0.47557349386E+02 -0.10952307059E+03  0.92756279762E+02  0.19617780687E+03  0.12500000000E+03 0.  0.
</event>
<event>
 5    0  0.5728184E-005  0.2775431E+03  0.7546771E-02  0.1097038E+00
         21   -1    0    0  502  501  0.00000000000E+00  0.00000000000E+00  0.81016090854E+03  0.81016090854E+03  0.00000000000E+00 0. -1.
         21   -1    0    0  501  502 -0.00000000000E+00 -0.00000000000E+00 -0.95080077796E+02  0.95080077796E+02  0.00000000000E+00 0. -1.
         25    1    1    2    0    0  0.11487339977E+03  0.25680920481E+02  0.52183930600E+03  0.54936023604E+03  0.12500000000E+03 0.  0.
         25    1    1    2    0    0 -0.29966012460E+02 -0.62491824749E+02  0.83478136785E+02  0.16551975527E+03  0.12500000000E+03 0.  0.
         25    1    1    2    0    0 -0.84907387310E+02  0.36810904267E+02  0.10976338796E+03  0.19036099503E+03  0.12500000000E+03 0.  0.
</event>
<event>
 5    0  0.5728184E-005  0.3660338E+03  0.7546771E-02  0.1056220E+00
         21   -1    0    0  502  501  0.00000000000E+00  0.00000000000E+00  0.10205218874E+03  0.10205218874E+03  0.00000000000E+00 0. -1.
         21   -1    0    0  501  502 -0.00000000000E+00 -0.00000000000E+00 -0.13128651477E+04  0.13128651477E+04  0.00000000000E+00 0. -1.
         25    1    1    2    0    0  0.78181402995E+02 -0.95638858043E+02 -0.62586280851E+03  0.65006797953E+03  0.12500000000E+03 0.  0.
         25    1    1    2    0    0 -0.26742453197E+02 -0.13854149011E+03 -0.38462892646E+03  0.42833785071E+03  0.12500000000E+03 0.  0.
         25    1    1    2    0    0 -0.51438949798E+02  0.23418034815E+03 -0.20032122399E+03  0.33651150619E+03  0.12500000000E+03 0.  0.
</event>
<event>
 5    0  0.5728184E-005  0.3244741E+03  0.7546771E-02  0.1073608E+00
         21   -1    0    0  502  501  0.00000000000E+00  0.00000000000E+00  0.33099622554E+03  0.33099622554E+03  0.00000000000E+00 0.  1.
         21   -1    0    0  501  502 -0.00000000000E+00 -0.00000000000E+00 -0.31808047071E+03  0.31808047071E+03  0.00000000000E+00 0.  1.
         25    1    1    2    0    0  0.17027280172E+03  0.16698743666E+03  0.12460850661E+02  0.26955130088E+03  0.12500000000E+03 0.  0.
         25    1    1    2    0    0 -0.27445186549E+02 -0.39046757092E+02 -0.53922677984E+02  0.14425859664E+03  0.12500000000E+03 0.  0.
         25    1    1    2    0    0 -0.14282761517E+03 -0.12794067956E+03  0.54377582155E+02  0.23526679873E+03  0.12500000000E+03 0.  0.
</event>
<event>
 5    0  0.5728184E-005  0.4089398E+03  0.7546771E-02  0.1040727E+00
         21   -1    0    0  502  501  0.00000000000E+00  0.00000000000E+00  0.13691091749E+03  0.13691091749E+03  0.00000000000E+00 0. -1.
         21   -1    0    0  501  502 -0.00000000000E+00 -0.00000000000E+00 -0.12214639475E+04  0.12214639475E+04  0.00000000000E+00 0. -1.
         25    1    1    2    0    0 -0.20497471696E+03 -0.63982389100E+01 -0.19506261632E+03  0.30940264436E+03  0.12500000000E+03 0.  0.
         25    1    1    2    0    0  0.95102380011E+02  0.21114398122E+03 -0.61140294591E+03  0.66563113340E+03  0.12500000000E+03 0.  0.
         25    1    1    2    0    0  0.10987233694E+03 -0.20474574231E+03 -0.27808746783E+03  0.38334108726E+03  0.12500000000E+03 0.  0.
</event>
<event>
 5    0  0.5728184E-005  0.3928381E+03  0.7546771E-02  0.1046288E+00
         21   -1    0    0  502  501  0.00000000000E+00  0.00000000000E+00  0.11499645602E+03  0.11499645602E+03  0.00000000000E+00 0.  1.
         21   -1    0    0  501  502 -0.00000000000E+00 -0.00000000000E+00 -0.13419700073E+04  0.13419700073E+04  0.00000000000E+00 0.  1.
         25    1    1    2    0    0  0.18699633523E+03  0.14626391280E+03 -0.25398919281E+03  0.36945401830E+03  0.12500000000E+03 0.  0.
         25    1    1    2    0    0  0.19079518756E+02 -0.43481585891E+02 -0.68597407034E+03  0.69888489863E+03  0.12500000000E+03 0.  0.
         25    1    1    2    0    0 -0.20607585399E+03 -0.10278232691E+03 -0.28701028811E+03  0.38862754638E+03  0.12500000000E+03 0.  0.
</event>
<event>
 5    0  0.5728184E-005  0.2406864E+03  0.7546771E-02  0.1119336E+00
         21   -1    0    0  502  501  0.00000000000E+00  0.00000000000E+00  0.94509089783E+03  0.94509089783E+03  0.00000000000E+00 0.  1.
         21   -1    0    0  501  502 -0.00000000000E+00 -0.00000000000E+00 -0.61295623276E+02  0.61295623276E+02  0.00000000000E+00 0.  1.
         25    1    1    2    0    0  0.74477713768E+02 -0.64088685753E+02  0.27970102192E+03  0.32173273248E+03  0.12500000000E+03 0.  0.
         25    1    1    2    0    0  0.37437331101E+02 -0.10595565212E+02  0.32691893992E+03  0.35215736971E+03  0.12500000000E+03 0.  0.
         25    1    1    2    0    0 -0.11191504487E+03  0.74684250965E+02  0.27717531271E+03  0.33249641891E+03  0.12500000000E+03 0.  0.
</event>
<event>
 5    0  0.5728184E-005  0.4410226E+03  0.7546771E-02  0.1030434E+00
         21   -1    0    0  502  501  0.00000000000E+00  0.00000000000E+00  0.26955362363E+03  0.26955362363E+03  0.00000000000E+00 0.  1.
         21   -1    0    0  501  502 -0.00000000000E+00 -0.00000000000E+00 -0.72156660182E+03  0.72156660182E+03  0.00000000000E+00 0.  1.
         25    1    1    2    0    0  0.13179372516E+03  0.10517262886E+03 -0.51580032768E+03  0.55687148058E+03  0.12500000000E+03 0.  0.
         25    1    1    2    0    0 -0.10849870827E+03  0.37486003790E+02  0.14822254935E+03  0.22532663915E+03  0.12500000000E+03 0.  0.
         25    1    1    2    0    0 -0.23295016888E+02 -0.14265863265E+03 -0.84435199850E+02  0.20892210571E+03  0.12500000000E+03 0.  0.
</event>
<event>
 5    0  0.5728184E-005  0.2325542E+03  0.7546771E-02  0.1124855E+00
         21   -1    0    0  502  501  0.00000000000E+00  0.00000000000E+00  0.46569084163E+03  0.46569084163E+03  0.00000000000E+00 0.  1.
         21   -1    0    0  501  502 -0.00000000000E+00 -0.00000000000E+00 -0.11613166261E+03  0.11613166261E+03  0.00000000000E+00 0.  1.
         25    1    1    2    0    0  0.17622522869E+02 -0.13714497837E+02  0.92108120378E+02  0.15686792726E+03  0.12500000000E+03 0.  0.
         25    1    1    2    0    0 -0.32527575681E+02 -0.82435896285E+01 -0.86984097200E+01  0.12971762518E+03  0.12500000000E+03 0.  0.
         25    1    1    2    0    0  0.14905052812E+02  0.21958087466E+02  0.26614946836E+03  0.29523695181E+03  0.12500000000E+03 0.  0.
</event>
<event>
 5    0  0.5728184E-005  0.2642611E+03  0.7546771E-02  0.1104610E+00
         21   -1    0    0  502  501  0.00000000000E+00  0.00000000000E+00  0.55797895491E+03  0.55797895491E+03  0.00000000000E+00 0. -1.
         21   -1    0    0  501  502 -0.00000000000E+00 -0.00000000000E+00 -0.12515509330E+03  0.12515509330E+03  0.00000000000E+00 0. -1.
         25    1    1    2    0    0 -0.64770679462E+00  0.12547530610E+03  0.62292239408E+02  0.18774928776E+03  0.12500000000E+03 0.  0.
         25    1    1    2    0    0  0.38534389242E+02  0.19194295558E+02  0.17473307430E+03  0.21911176918E+03  0.12500000000E+03 0.  0.
         25    1    1    2    0    0 -0.37886682448E+02 -0.14466960166E+03  0.19579854789E+03  0.27627299127E+03  0.12500000000E+03 0.  0.
</event>
<event>
 5    0  0.5728184E-005  0.2581044E+03  0.7546771E-02  0.1108288E+00
         21   -1    0    0  502  501  0.00000000000E+00  0.00000000000E+00  0.60045759136E+02  0.60045759136E+02  0.00000000000E+00 0.  1.
         21   -1    0    0  501  502 -0.00000000000E+00 -0.00000000000E+00 -0.11094518309E+04  0.11094518309E+04  0.00000000000E+00 0.  1.
         25    1    1    2    0    0  0.62008515887E+02  0.31969041510E+02 -0.76354135410E+03  0.77684456302E+03  0.12500000000E+03 0.  0.
         25    1    1    2    0    0 -0.60825144638E+02 -0.18400522420E+02 -0.12032764052E+03  0.18477558962E+03  0.12500000000E+03 0.  0.
         25    1    1    2    0    0 -0.11833712494E+01 -0.13568519090E+02 -0.16553707718E+03  0.20787743745E+03  0.12500000000E+03 0.  0.
</event>
<event>
 5    0  0.5728184E-005  0.2686835E+03  0.7546771E-02  0.1102035E+00
         21   -1    0    0  502  501  0.00000000000E+00  0.00000000000E+00  0.14226810048E+04  0.14226810048E+04  0.00000000000E+00 0.  1.
         21   -1    0    0  501  502 -0.00000000000E+00 -0.00000000000E+00 -0.50742818980E+02  0.50742818980E+02  0.00000000000E+00 0.  1.
         25    1    1    2    0    0 -0.38099827186E+02  0.12348970807E+03  0.39441632662E+03  0.43346342814E+03  0.12500000000E+03 0.  0.
         25    1    1    2    0    0 -0.28170477032E+02 -0.15564467973E+03  0.45488288811E+03  0.49755631239E+03  0.12500000000E+03 0.  0.
         25    1    1    2    0    0  0.66270304218E+02  0.32154971661E+02  0.52263897113E+03  0.54240408329E+03  0.12500000000E+03 0.  0.
</event>
<event>
 5    0  0.5728184E-005  0.3540438E+03  0.7546771E-02  0.1060967E+00
         21   -1    0    0  502  501  0.00000000000E+00  0.00000000000E+00  0.25883728778E+03  0.25883728778E+03  0.00000000000E+00 0.  1.
         21   -1    0    0  501  502 -0.00000000000E+00 -0.00000000000E+00 -0.48426949514E+03  0.48426949514E+03  0.00000000000E+00 0.  1.
         25    1    1    2    0    0 -0.60128938121E+02  0.18625978430E+03 -0.11221775975E+03  0.25792638883E+03  0.12500000000E+03 0.  0.
         25    1    1    2    0    0 -0.88130033555E+02 -0.70489470880E+02  0.81400266091E+02  0.18704724440E+03  0.12500000000E+03 0.  0.
         25    1    1    2    0    0  0.14825897168E+03 -0.11577031343E+03 -0.19461471370E+03  0.29813314969E+03  0.12500000000E+03 0.  0.
</event>
<event>
 5    0  0.5728184E-005  0.3200866E+03  0.7546771E-02  0.1075609E+00
         21   -1    0    0  502  501  0.00000000000E+00  0.00000000000E+00  0.34129104944E+03  0.34129104944E+03  0.00000000000E+00 0.  1.
         21   -1    0    0  501  502 -0.00000000000E+00 -0.00000000000E+00 -0.30019950626E+03  0.30019950626E+03  0.00000000000E+00 0.  1.
         25    1    1    2    0    0  0.14383997800E+03  0.10972961444E+03 -0.85160536282E+02  0.23581315590E+03  0.12500000000E+03 0.  0.
         25    1    1    2    0    0 -0.13603936615E+02 -0.24357556730E+01  0.14839438868E+03  0.19451708046E+03  0.12500000000E+03 0.  0.
         25    1    1    2    0    0 -0.13023604139E+03 -0.10729385877E+03 -0.22142309229E+02  0.21116031934E+03  0.12500000000E+03 0.  0.
</event>
<event>
 5    0  0.5728184E-005  0.4253289E+03  0.7546771E-02  0.1035346E+00
         21   -1    0    0  502  501  0.00000000000E+00  0.00000000000E+00  0.83435686426E+03  0.83435686426E+03  0.00000000000E+00 0.  1.
         21   -1    0    0  501  502 -0.00000000000E+00 -0.00000000000E+00 -0.21681935304E+03  0.21681935304E+03  0.00000000000E+00 0.  1.
         25    1    1    2    0    0  0.14005859777E+03 -0.45244649122E+02  0.14806893272E+03  0.24333700483E+03  0.12500000000E+03 0.  0.
         25    1    1    2    0    0  0.12517566908E+02 -0.16645957228E+03  0.47465033560E+03  0.51844326572E+03  0.12500000000E+03 0.  0.
         25    1    1    2    0    0 -0.15257616468E+03  0.21170422140E+03 -0.51817571058E+01  0.28939594675E+03  0.12500000000E+03 0.  0.
</event>
<event>
 5    0  0.5728184E-005  0.4117568E+03  0.7546771E-02  0.1039783E+00
         21   -1    0    0  502  501  0.00000000000E+00  0.00000000000E+00  0.58763501045E+03  0.58763501045E+03  0.00000000000E+00 0.  1.
         21   -1    0    0  501  502 -0.00000000000E+00 -0.00000000000E+00 -0.28851868770E+03  0.28851868770E+03  0.00000000000E+00 0.  1.
         25    1    1    2    0    0 -0.28208078292E+03  0.73385951013E+02  0.28675884434E+03  0.42756368029E+03  0.12500000000E+03 0.  0.
         25    1    1    2    0    0  0.11314090200E+03 -0.12855172494E+03  0.70912298469E+02  0.22356199088E+03  0.12500000000E+03 0.  0.
         25    1    1    2    0    0  0.16893988092E+03  0.55165773928E+02 -0.58554820059E+02  0.22502802699E+03  0.12500000000E+03 0.  0.
</event>
<event>
 5    0  0.5728184E-005  0.4219572E+03  0.7546771E-02  0.1036431E+00
         21   -1    0    0  502  501  0.00000000000E+00  0.00000000000E+00  0.93108829476E+03  0.93108829476E+03  0.00000000000E+00 0. -1.
         21   -1    0    0  501  502 -0.00000000000E+00 -0.00000000000E+00 -0.19122556290E+03  0.19122556290E+03  0.00000000000E+00 0. -1.
         25    1    1    2    0    0 -0.27797136541E+03 -0.15373551605E+03  0.22454750326E+03  0.40859426098E+03  0.12500000000E+03 0.  0.
         25    1    1    2    0    0  0.16063609188E+02  0.30694732598E+01  0.31794065968E+02  0.13001278336E+03  0.12500000000E+03 0.  0.
         25    1    1    2    0    0  0.26190775622E+03  0.15066604279E+03  0.48352116263E+03  0.58370681333E+03  0.12500000000E+03 0.  0.
</event>
<event>
 5    0  0.5728184E-005  0.3676189E+03  0.7546771E-02  0.1055607E+00
         21   -1    0    0  502  501  0.00000000000E+00  0.00000000000E+00  0.10738351309E+04  0.10738351309E+04  0.00000000000E+00 0.  1.
         21   -1    0    0  501  502 -0.00000000000E+00 -0.00000000000E+00 -0.12585143236E+03  0.12585143236E+03  0.00000000000E+00 0.  1.
         25    1    1    2    0    0  0.41561367389E+02 -0.37799172841E+02  0.62915230920E+03  0.64390508066E+03  0.12500000000E+03 0.  0.
         25    1    1    2    0    0 -0.58199841768E+02  0.12676324109E+03 -0.15106605315E+02  0.18790782421E+03  0.12500000000E+03 0.  0.
         25    1    1    2    0    0  0.16638474379E+02 -0.88964068251E+02  0.33393799466E+03  0.36787365840E+03  0.12500000000E+03 0.  0.
</event>
<event>
 5    0  0.5728184E-005  0.2794763E+03  0.7546771E-02  0.1095975E+00
         21   -1    0    0  502  501  0.00000000000E+00  0.00000000000E+00  0.34573982348E+02  0.34573982348E+02  0.00000000000E+00 0. -1.
         21   -1    0    0  501  502 -0.00000000000E+00 -0.00000000000E+00 -0.22591261860E+04  0.22591261860E+04  0.00000000000E+00 0. -1.
         25    1    1    2    0    0 -0.10995554254E+03 -0.11449722280E+03 -0.54182827941E+03  0.57827564338E+03  0.12500000000E+03 0.  0.
         25    1    1    2    0    0  0.23286728726E+02  0.12812025970E+03 -0.88777118690E+03  0.90593584374E+03  0.12500000000E+03 0.  0.
         25    1    1    2    0    0  0.86668813815E+02 -0.13623036904E+02 -0.79495273732E+03  0.80948868121E+03  0.12500000000E+03 0.  0.
</event>
<event>
 5    0  0.5728184E-005  0.2772280E+03  0.7546771E-02  0.1097213E+00
         21   -1    0    0  502  501  0.00000000000E+00  0.00000000000E+00  0.99753987375E+02  0.99753987375E+02  0.00000000000E+00 0.  1.
         21   -1    0    0  501  502 -0.00000000000E+00 -0.00000000000E+00 -0.77044902008E+03  0.77044902008E+03  0.00000000000E+00 0.  1.
         25    1    1    2    0    0 -0.10266001598E+03  0.38319583847E+02 -0.25090913961E+03  0.30097818148E+03  0.12500000000E+03 0.  0.
         25    1    1    2    0    0  0.83975784738E+02 -0.18663138521E+02 -0.41428351227E+03  0.44119845160E+03  0.12500000000E+03 0.  0.
         25    1    1    2    0    0  0.18684231246E+02 -0.19656445327E+02 -0.55023808311E+01  0.12802637437E+03  0.12500000000E+03 0.  0.
</event>
