<event>
 5    0  0.5547141E-005  0.3203664E+03  0.7546771E-02  0.1075481E+00
         21   -1    0    0  502  501  0.00000000000E+00  0.00000000000E+00  0.12741486245E+04  0.12741486245E+04  0.00000000000E+00 0.  1.
         21   -1    0    0  501  502 -0.00000000000E+00 -0.00000000000E+00 -0.80551529011E+02  0.80551529011E+02  0.00000000000E+00 0.  1.
         25    1    1    2    0    0  0.19390004829E+03  0.79948162734E+02  0.46128818224E+03  0.52192022813E+03  0.12500000000E+03 0.  0.
         25    1    1    2    0    0  0.30100844453E+02 -0.10631638650E+02  0.27782866637E+03  0.30632149849E+03  0.12500000000E+03 0.  0.
         25    1    1    2    0    0 -0.22400089274E+03 -0.69316524084E+02  0.45448024690E+03  0.52645842693E+03  0.12500000000E+03 0.  0.
</event>
<event>
 5    0  0.5547141E-005  0.4497803E+03  0.7546771E-02  0.1027788E+00
         21   -1    0    0  502  501  0.00000000000E+00  0.00000000000E+00  0.18725480039E+03  0.18725480039E+03  0.00000000000E+00 0.  1.
         21   -1    0    0  501  502 -0.00000000000E+00 -0.00000000000E+00 -0.10803587558E+04  0.10803587558E+04  0.00000000000E+00 0.  1.
         25    1    1    2    0    0  0.23470805469E+03 -0.13088657649E+03 -0.16692451379E+03  0.34015872787E+03  0.12500000000E+03 0.  0.
         25    1    1    2    0    0 -0.25204894706E+03  0.52813411412E+01 -0.13895664198E+03  0.31383198153E+03  0.12500000000E+03 0.  0.
         25    1    1    2    0    0  0.17340892368E+02  0.12560523535E+03 -0.58722279959E+03  0.61362284675E+03  0.12500000000E+03 0.  0.
</event>
<event>
 5    0  0.5547141E-005  0.3398764E+03  0.7546771E-02  0.1066849E+00
         21   -1    0    0  502  501  0.00000000000E+00  0.00000000000E+00  0.87370791363E+02  0.87370791363E+02  0.00000000000E+00 0. -1.
         21   -1    0    0  501  502 -0.00000000000E+00 -0.00000000000E+00 -0.13221346537E+04  0.13221346537E+04  0.00000000000E+00 0. -1.
         25    1    1    2    0    0 -0.15466400547E+02 -0.16397174097E+03 -0.77215582518E+03  0.79935946841E+03  0.12500000000E+03 0.  0.
         25    1    1    2    0    0 -0.58554638496E+02 -0.45680946913E+01 -0.60923905253E+02  0.15095110271E+03  0.12500000000E+03 0.  0.
         25    1    1    2    0    0  0.74021039043E+02  0.16853983566E+03 -0.40168413187E+03  0.45919487391E+03  0.12500000000E+03 0.  0.
</event>
<event>
 5    0  0.5547141E-005  0.3512119E+03  0.7546771E-02  0.1062119E+00
         21   -1    0    0  502  501  0.00000000000E+00  0.00000000000E+00  0.73670911099E+03  0.73670911099E+03  0.00000000000E+00 0.  1.
         21   -1    0    0  501  502 -0.00000000000E+00 -0.00000000000E+00 -0.16743350108E+03  0.16743350108E+03  0.00000000000E+00 0.  1.
         25    1    1    2    0    0 -0.93522156660E+02  0.82029659029E+02  0.44067919092E+03  0.47465609452E+03  0.12500000000E+03 0.  0.
         25    1    1    2    0    0 -0.70839574609E+02  0.13659245250E+02  0.14072334699E+03  0.20157599237E+03  0.12500000000E+03 0.  0.
         25    1    1    2    0    0  0.16436173127E+03 -0.95688904279E+02 -0.12126928005E+02  0.22791052519E+03  0.12500000000E+03 0.  0.
</event>
<event>
 5    0  0.5547141E-005  0.2605715E+03  0.7546771E-02  0.1106800E+00
         21   -1    0    0  502  501  0.00000000000E+00  0.00000000000E+00  0.46802452153E+03  0.46802452153E+03  0.00000000000E+00 0. -1.
         21   -1    0    0  501  502 -0.00000000000E+00 -0.00000000000E+00 -0.14507252365E+03  0.14507252365E+03  0.00000000000E+00 0. -1.
         25    1    1    2    0    0  0.68888685390E+02  0.47259078459E+02  0.38550386190E+02  0.15521019215E+03  0.12500000000E+03 0.  0.
         25    1    1    2    0    0  0.11707275902E+02  0.89226755072E+02  0.94290157879E+02  0.18059376513E+03  0.12500000000E+03 0.  0.
         25    1    1    2    0    0 -0.80595961292E+02 -0.13648583353E+03  0.19011145381E+03  0.27729308790E+03  0.12500000000E+03 0.  0.
</event>
<event>
 5    0  0.5547141E-005  0.3221052E+03  0.7546771E-02  0.1074684E+00
         21   -1    0    0  502  501  0.00000000000E+00  0.00000000000E+00  0.72147452303E+02  0.72147452303E+02  0.00000000000E+00 0.  1.
         21   -1    0    0  501  502 -0.00000000000E+00 -0.00000000000E+00 -0.14380518189E+04  0.14380518189E+04  0.00000000000E+00 0.  1.
         25    1    1    2    0    0 -0.11573104765E+03 -0.57067392840E+02 -0.94208177572E+02  0.20285596722E+03  0.12500000000E+03 0.  0.
         25    1    1    2    0    0  0.15964885959E+02  0.66527710186E+02 -0.56137017435E+03  0.57917379642E+03  0.12500000000E+03 0.  0.
         25    1    1    2    0    0  0.99766161694E+02 -0.94603173452E+01 -0.71032601470E+03  0.72816950759E+03  0.12500000000E+03 0.  0.
</event>
<event>
 5    0  0.5547141E-005  0.2536092E+03  0.7546771E-02  0.1111045E+00
         21   -1    0    0  502  501  0.00000000000E+00  0.00000000000E+00  0.17035292770E+03  0.17035292770E+03  0.00000000000E+00 0.  1.
         21   -1    0    0  501  502 -0.00000000000E+00 -0.00000000000E+00 -0.37755514030E+03  0.37755514030E+03  0.00000000000E+00 0.  1.
         25    1    1    2    0    0  0.54743352259E+02 -0.14189130222E+03 -0.57149142380E+02  0.20499024547E+03  0.12500000000E+03 0.  0.
         25    1    1    2    0    0 -0.10858347775E+02  0.11692133311E+03 -0.64397577834E+02  0.18319538718E+03  0.12500000000E+03 0.  0.
         25    1    1    2    0    0 -0.43885004483E+02  0.24969969114E+02 -0.85655492387E+02  0.15972243534E+03  0.12500000000E+03 0.  0.
</event>
<event>
 5    0  0.5547141E-005  0.6080128E+03  0.7546771E-02  0.9888920E-01
         21   -1    0    0  502  501  0.00000000000E+00  0.00000000000E+00  0.95655280745E+03  0.95655280745E+03  0.00000000000E+00 0. -1.
         21   -1    0    0  501  502 -0.00000000000E+00 -0.00000000000E+00 -0.38647062612E+03  0.38647062612E+03  0.00000000000E+00 0. -1.
         25    1    1    2    0    0  0.26137905851E+03 -0.21595281809E+03  0.61384623877E+03  0.71231091296E+03  0.12500000000E+03 0.  0.
         25    1    1    2    0    0 -0.20545817029E+03  0.34791015589E+03  0.36043277206E+02  0.42447456242E+03  0.12500000000E+03 0.  0.
         25    1    1    2    0    0 -0.55920888217E+02 -0.13195733780E+03 -0.79807334649E+02  0.20623795820E+03  0.12500000000E+03 0.  0.
</event>
<event>
 5    0  0.5687240E-005  0.2591600E+03  0.7546771E-02  0.1107649E+00
         21   -1    0    0  502  501  0.00000000000E+00  0.00000000000E+00  0.20183488957E+03  0.20183488957E+03  0.00000000000E+00 0. -1.
         21   -1    0    0  501  502 -0.00000000000E+00 -0.00000000000E+00 -0.33276649242E+03  0.33276649242E+03  0.00000000000E+00 0. -1.
         25    1    1    2    0    0  0.29425843395E+02 -0.67354957066E+02  0.10600710378E+03  0.17962482165E+03  0.12500000000E+03 0.  0.
         25    1    1    2    0    0 -0.22795713499E+02  0.45998620675E+02 -0.99195680261E+02  0.16763144288E+03  0.12500000000E+03 0.  0.
         25    1    1    2    0    0 -0.66301298957E+01  0.21356336391E+02 -0.13774302637E+03  0.18734511747E+03  0.12500000000E+03 0.  0.
</event>
<event>
 5    0  0.5547141E-005  0.3409867E+03  0.7546771E-02  0.1066376E+00
         21   -1    0    0  502  501  0.00000000000E+00  0.00000000000E+00  0.29560510752E+03  0.29560510752E+03  0.00000000000E+00 0.  1.
         21   -1    0    0  501  502 -0.00000000000E+00 -0.00000000000E+00 -0.39333529435E+03  0.39333529435E+03  0.00000000000E+00 0.  1.
         25    1    1    2    0    0  0.37282625553E+02 -0.95598296436E+02  0.81859189260E+01  0.16192911325E+03  0.12500000000E+03 0.  0.
         25    1    1    2    0    0 -0.14788270477E+03  0.16428596573E+03 -0.20021686239E+03  0.32337434173E+03  0.12500000000E+03 0.  0.
         25    1    1    2    0    0  0.11060007921E+03 -0.68687669292E+02  0.94300756632E+02  0.20363694688E+03  0.12500000000E+03 0.  0.
</event>
<event>
 5    0  0.5547141E-005  0.2833738E+03  0.7546771E-02  0.1093860E+00
         21   -1    0    0  502  501  0.00000000000E+00  0.00000000000E+00  0.93812384655E+02  0.93812384655E+02  0.00000000000E+00 0.  1.
         21   -1    0    0  501  502 -0.00000000000E+00 -0.00000000000E+00 -0.85597160742E+03  0.85597160742E+03  0.00000000000E+00 0.  1.
         25    1    1    2    0    0 -0.63671144389E+02 -0.73154374861E+02 -0.27822301608E+03  0.32006034410E+03  0.12500000000E+03 0.  0.
         25    1    1    2    0    0 -0.59703539942E+02  0.14902546648E+03 -0.18612658751E+03  0.27575570515E+03  0.12500000000E+03 0.  0.
         25    1    1    2    0    0  0.12337468433E+03 -0.75871091622E+02 -0.29780961918E+03  0.35396794283E+03  0.12500000000E+03 0.  0.
</event>
<event>
 5    0  0.5981582E-005  0.5463468E+03  0.7546771E-02  0.1002343E+00
         21   -1    0    0  502  501  0.00000000000E+00  0.00000000000E+00  0.51164911523E+03  0.51164911523E+03  0.00000000000E+00 0.  1.
         21   -1    0    0  501  502 -0.00000000000E+00 -0.00000000000E+00 -0.58339749528E+03  0.58339749528E+03  0.00000000000E+00 0.  1.
         25    1    1    2    0    0  0.19046614102E+03 -0.16859067151E+03  0.11202522245E+03  0.30475369704E+03  0.12500000000E+03 0.  0.
         25    1    1    2    0    0 -0.37873431371E+03  0.14818484564E+02  0.83776747207E+02  0.40780241691E+03  0.12500000000E+03 0.  0.
         25    1    1    2    0    0  0.18826817270E+03  0.15377218694E+03 -0.26755034971E+03  0.38249049656E+03  0.12500000000E+03 0.  0.
</event>
<event>
 5    0  0.5547141E-005  0.3287146E+03  0.7546771E-02  0.1071707E+00
         21   -1    0    0  502  501  0.00000000000E+00  0.00000000000E+00  0.19398677783E+03  0.19398677783E+03  0.00000000000E+00 0. -1.
         21   -1    0    0  501  502 -0.00000000000E+00 -0.00000000000E+00 -0.55701373676E+03  0.55701373676E+03  0.00000000000E+00 0.  1.
         25    1    1    2    0    0 -0.25048673908E+03 -0.72834699395E+02 -0.17283977819E+03  0.33696748925E+03  0.12500000000E+03 0.  0.
         25    1    1    2    0    0  0.78852208759E+02  0.31943450709E+02 -0.69653437470E+02  0.16647719430E+03  0.12500000000E+03 0.  0.
         25    1    1    2    0    0  0.17163453032E+03  0.40891248686E+02 -0.12053374327E+03  0.24755583104E+03  0.12500000000E+03 0.  0.
</event>
<event>
 5    0  0.5547141E-005  0.2288276E+03  0.7546771E-02  0.1127468E+00
         21   -1    0    0  502  501  0.00000000000E+00  0.00000000000E+00  0.82694766412E+02  0.82694766412E+02  0.00000000000E+00 0.  1.
         21   -1    0    0  501  502 -0.00000000000E+00 -0.00000000000E+00 -0.63319669452E+03  0.63319669452E+03  0.00000000000E+00 0.  1.
         25    1    1    2    0    0  0.60119802775E+02  0.75599505294E+02 -0.11965748190E+03  0.19817312851E+03  0.12500000000E+03 0.  0.
         25    1    1    2    0    0 -0.19763797706E+02 -0.89219126437E+02 -0.24126691861E+03  0.28667993693E+03  0.12500000000E+03 0.  0.
         25    1    1    2    0    0 -0.40356005068E+02  0.13619621143E+02 -0.18957752759E+03  0.23103839550E+03  0.12500000000E+03 0.  0.
</event>
<event>
 5    0  0.5547141E-005  0.2528575E+03  0.7546771E-02  0.1111512E+00
         21   -1    0    0  502  501  0.00000000000E+00  0.00000000000E+00  0.47776418261E+02  0.47776418261E+02  0.00000000000E+00 0. -1.
         21   -1    0    0  501  502 -0.00000000000E+00 -0.00000000000E+00 -0.13382526779E+04  0.13382526779E+04  0.00000000000E+00 0. -1.
         25    1    1    2    0    0  0.70428056360E+02 -0.58316021645E+02 -0.42107057824E+03  0.44864941922E+03  0.12500000000E+03 0.  0.
         25    1    1    2    0    0  0.56306111793E+02  0.56598517470E+02 -0.57063876293E+03  0.58959932849E+03  0.12500000000E+03 0.  0.
         25    1    1    2    0    0 -0.12673416815E+03  0.17175041743E+01 -0.29876691849E+03  0.34778034847E+03  0.12500000000E+03 0.  0.
</event>
<event>
 5    0  0.5547141E-005  0.3999198E+03  0.7546771E-02  0.1043807E+00
         21   -1    0    0  502  501  0.00000000000E+00  0.00000000000E+00  0.81634661389E+03  0.81634661389E+03  0.00000000000E+00 0. -1.
         21   -1    0    0  501  502 -0.00000000000E+00 -0.00000000000E+00 -0.19591661567E+03  0.19591661567E+03  0.00000000000E+00 0. -1.
         25    1    1    2    0    0 -0.12728268748E+03 -0.80529643712E+02  0.25720799983E+03  0.32321333701E+03  0.12500000000E+03 0.  0.
         25    1    1    2    0    0  0.61327621163E+02 -0.15214835894E+03 -0.32440169148E+02  0.20877635120E+03  0.12500000000E+03 0.  0.
         25    1    1    2    0    0  0.65955066312E+02  0.23267800265E+03  0.39566216754E+03  0.48027354135E+03  0.12500000000E+03 0.  0.
</event>
<event>
 5    0  0.5547141E-005  0.2844367E+03  0.7546771E-02  0.1093290E+00
         21   -1    0    0  502  501  0.00000000000E+00  0.00000000000E+00  0.90016317077E+02  0.90016317077E+02  0.00000000000E+00 0. -1.
         21   -1    0    0  501  502 -0.00000000000E+00 -0.00000000000E+00 -0.89877276524E+03  0.89877276524E+03  0.00000000000E+00 0. -1.
         25    1    1    2    0    0  0.52140850222E+02 -0.16473710091E+02 -0.39644814169E+02  0.14208012766E+03  0.12500000000E+03 0.  0.
         25    1    1    2    0    0 -0.11642782454E+03  0.92394915508E+02 -0.41053378847E+03  0.45415333337E+03  0.12500000000E+03 0.  0.
         25    1    1    2    0    0  0.64286974316E+02 -0.75921205418E+02 -0.35857784553E+03  0.39255562128E+03  0.12500000000E+03 0.  0.
</event>
<event>
 5    0  0.5547141E-005  0.3042918E+03  0.7546771E-02  0.1083115E+00
         21   -1    0    0  502  501  0.00000000000E+00  0.00000000000E+00  0.45951775245E+03  0.45951775245E+03  0.00000000000E+00 0. -1.
         21   -1    0    0  501  502 -0.00000000000E+00 -0.00000000000E+00 -0.20150150623E+03  0.20150150623E+03  0.00000000000E+00 0. -1.
         25    1    1    2    0    0  0.15069641824E+03 -0.91295976228E+02  0.73437868105E+02  0.22817205398E+03  0.12500000000E+03 0.  0.
         25    1    1    2    0    0 -0.17624332065E+03  0.12152684685E+03  0.67156605597E+02  0.25683748218E+03  0.12500000000E+03 0.  0.
         25    1    1    2    0    0  0.25546902409E+02 -0.30230870618E+02  0.11742177252E+03  0.17600972252E+03  0.12500000000E+03 0.  0.
</event>
<event>
 5    0  0.6083555E-005  0.2868048E+03  0.7546771E-02  0.1092029E+00
         21   -1    0    0  502  501  0.00000000000E+00  0.00000000000E+00  0.55163799457E+03  0.55163799457E+03  0.00000000000E+00 0.  1.
         21   -1    0    0  501  502 -0.00000000000E+00 -0.00000000000E+00 -0.14911408571E+03  0.14911408571E+03  0.00000000000E+00 0.  1.
         25    1    1    2    0    0  0.44994907406E+02  0.46467226551E+02  0.24669428139E+03  0.28401903687E+03  0.12500000000E+03 0.  0.
         25    1    1    2    0    0 -0.13763115853E+03 -0.80776131690E+01  0.17485593331E+03  0.25535696788E+03  0.12500000000E+03 0.  0.
         25    1    1    2    0    0  0.92636251121E+02 -0.38389613382E+02 -0.19026305834E+02  0.16137607552E+03  0.12500000000E+03 0.  0.
</event>
<event>
 5    0  0.5547141E-005  0.3023211E+03  0.7546771E-02  0.1084086E+00
         21   -1    0    0  502  501  0.00000000000E+00  0.00000000000E+00  0.80236121764E+02  0.80236121764E+02  0.00000000000E+00 0. -1.
         21   -1    0    0  501  502 -0.00000000000E+00 -0.00000000000E+00 -0.11391137155E+04  0.11391137155E+04  0.00000000000E+00 0. -1.
         25    1    1    2    0    0  0.22428343495E+02 -0.95799297889E+02 -0.14176037829E+03  0.21307637345E+03  0.12500000000E+03 0.  0.
         25    1    1    2    0    0 -0.95088512248E+02  0.18358159023E+03 -0.60113000748E+03  0.64786288003E+03  0.12500000000E+03 0.  0.
         25    1    1    2    0    0  0.72660168753E+02 -0.87782292342E+02 -0.31598720798E+03  0.35841058380E+03  0.12500000000E+03 0.  0.
</event>
<event>
 5    0  0.5547141E-005  0.4756612E+03  0.7546771E-02  0.1020334E+00
         21   -1    0    0  502  501  0.00000000000E+00  0.00000000000E+00  0.10319194056E+04  0.10319194056E+04  0.00000000000E+00 0.  1.
         21   -1    0    0  501  502 -0.00000000000E+00 -0.00000000000E+00 -0.21925508332E+03  0.21925508332E+03  0.00000000000E+00 0.  1.
         25    1    1    2    0    0 -0.13557237795E+03  0.40866288583E+02  0.27160874873E+03  0.33082659444E+03  0.12500000000E+03 0.  0.
         25    1    1    2    0    0  0.15181712737E+02 -0.34659217124E+03  0.39293270970E+03  0.53886708187E+03  0.12500000000E+03 0.  0.
         25    1    1    2    0    0  0.12039066521E+03  0.30572588266E+03  0.14812286385E+03  0.38148081262E+03  0.12500000000E+03 0.  0.
</event>
<event>
 5    0  0.5547141E-005  0.3841132E+03  0.7546771E-02  0.1049424E+00
         21   -1    0    0  502  501  0.00000000000E+00  0.00000000000E+00  0.25779057606E+03  0.25779057606E+03  0.00000000000E+00 0.  1.
         21   -1    0    0  501  502 -0.00000000000E+00 -0.00000000000E+00 -0.57233659186E+03  0.57233659186E+03  0.00000000000E+00 0.  1.
         25    1    1    2    0    0  0.84226919165E+02  0.19357622621E+02 -0.86871853211E+02  0.17504459531E+03  0.12500000000E+03 0.  0.
         25    1    1    2    0    0  0.28675974334E+02 -0.13534376773E+03  0.14080943735E+03  0.23365047531E+03  0.12500000000E+03 0.  0.
         25    1    1    2    0    0 -0.11290289350E+03  0.11598614510E+03 -0.36848359994E+03  0.42143209731E+03  0.12500000000E+03 0.  0.
</event>
<event>
 5    0  0.5547141E-005  0.2872937E+03  0.7546771E-02  0.1091771E+00
         21   -1    0    0  502  501  0.00000000000E+00  0.00000000000E+00  0.68787484755E+03  0.68787484755E+03  0.00000000000E+00 0.  1.
         21   -1    0    0  501  502 -0.00000000000E+00 -0.00000000000E+00 -0.11998935152E+03  0.11998935152E+03  0.00000000000E+00 0.  1.
         25    1    1    2    0    0 -0.12551036034E+03  0.79609902270E+02  0.11091681336E+03  0.22364732634E+03  0.12500000000E+03 0.  0.
         25    1    1    2    0    0  0.13361905434E+03 -0.10265169998E+03  0.38361869138E+03  0.43724103600E+03  0.12500000000E+03 0.  0.
         25    1    1    2    0    0 -0.81086939961E+01  0.23041797709E+02  0.73349991293E+02  0.14697583673E+03  0.12500000000E+03 0.  0.
</event>
<event>
 5    0  0.5547141E-005  0.3205821E+03  0.7546771E-02  0.1075382E+00
         21   -1    0    0  502  501  0.00000000000E+00  0.00000000000E+00  0.25313993972E+03  0.25313993972E+03  0.00000000000E+00 0.  1.
         21   -1    0    0  501  502 -0.00000000000E+00 -0.00000000000E+00 -0.40599238350E+03  0.40599238350E+03  0.00000000000E+00 0.  1.
         25    1    1    2    0    0  0.33125652340E+02 -0.22252934459E+02 -0.11141548691E+03  0.17213631999E+03  0.12500000000E+03 0.  0.
         25    1    1    2    0    0 -0.28368138648E+02  0.14501984838E+03 -0.17942982185E+03  0.26392341443E+03  0.12500000000E+03 0.  0.
         25    1    1    2    0    0 -0.47575136920E+01 -0.12276691392E+03  0.13799286498E+03  0.22307258881E+03  0.12500000000E+03 0.  0.
</event>
<event>
 5    0  0.5547141E-005  0.4343309E+03  0.7546771E-02  0.1032501E+00
         21   -1    0    0  502  501  0.00000000000E+00  0.00000000000E+00  0.60908059731E+03  0.60908059731E+03  0.00000000000E+00 0.  1.
         21   -1    0    0  501  502 -0.00000000000E+00 -0.00000000000E+00 -0.30971823445E+03  0.30971823445E+03  0.00000000000E+00 0.  1.
         25    1    1    2    0    0 -0.72369326090E+02 -0.32363800626E+03  0.14971304658E+03  0.38473091216E+03  0.12500000000E+03 0.  0.
         25    1    1    2    0    0 -0.10235035953E+03  0.10216370415E+03  0.11623232470E+03  0.22371404035E+03  0.12500000000E+03 0.  0.
         25    1    1    2    0    0  0.17471968562E+03  0.22147430211E+03  0.33416991579E+02  0.31035387925E+03  0.12500000000E+03 0.  0.
</event>
<event>
 5    0  0.5547141E-005  0.3097447E+03  0.7546771E-02  0.1080468E+00
         21   -1    0    0  502  501  0.00000000000E+00  0.00000000000E+00  0.10113163965E+04  0.10113163965E+04  0.00000000000E+00 0.  1.
         21   -1    0    0  501  502 -0.00000000000E+00 -0.00000000000E+00 -0.94868215377E+02  0.94868215377E+02  0.00000000000E+00 0.  1.
         25    1    1    2    0    0 -0.11243117447E+02  0.19803422224E+03  0.34881705890E+03  0.42028835512E+03  0.12500000000E+03 0.  0.
         25    1    1    2    0    0  0.33909350284E+02 -0.20883192730E+03  0.44848041649E+03  0.51139055708E+03  0.12500000000E+03 0.  0.
         25    1    1    2    0    0 -0.22666232837E+02  0.10797705063E+02  0.11915070575E+03  0.17450569970E+03  0.12500000000E+03 0.  0.
</event>
<event>
 5    0  0.5547141E-005  0.8399916E+03  0.7546771E-02  0.9503869E-01
         21   -1    0    0  502  501  0.00000000000E+00  0.00000000000E+00  0.97928619757E+03  0.97928619757E+03  0.00000000000E+00 0.  1.
         21   -1    0    0  501  502 -0.00000000000E+00 -0.00000000000E+00 -0.72051038834E+03  0.72051038834E+03  0.00000000000E+00 0.  1.
         25    1    1    2    0    0 -0.50367328898E+03  0.18635385706E+03 -0.40658168259E+03  0.68508992599E+03  0.12500000000E+03 0.  0.
         25    1    1    2    0    0  0.21523169091E+03  0.73052228302E+02  0.31750022566E+02  0.26133192068E+03  0.12500000000E+03 0.  0.
         25    1    1    2    0    0  0.28844159807E+03 -0.25940608536E+03  0.63360746926E+03  0.75337473924E+03  0.12500000000E+03 0.  0.
</event>
<event>
 5    0  0.5547141E-005  0.2270162E+03  0.7546771E-02  0.1128758E+00
         21   -1    0    0  502  501  0.00000000000E+00  0.00000000000E+00  0.95030010586E+02  0.95030010586E+02  0.00000000000E+00 0. -1.
         21   -1    0    0  501  502 -0.00000000000E+00 -0.00000000000E+00 -0.54231657740E+03  0.54231657740E+03  0.00000000000E+00 0. -1.
         25    1    1    2    0    0  0.36855981774E+02  0.54642001138E+02 -0.60163705008E+02  0.15358640266E+03  0.12500000000E+03 0.  0.
         25    1    1    2    0    0 -0.79270658615E+01 -0.79751616020E+02 -0.13946406990E+03  0.20371152502E+03  0.12500000000E+03 0.  0.
         25    1    1    2    0    0 -0.28928915913E+02  0.25109614883E+02 -0.24765879190E+03  0.28004866031E+03  0.12500000000E+03 0.  0.
</event>
<event>
 5    0  0.5547141E-005  0.4236337E+03  0.7546771E-02  0.1035890E+00
         21   -1    0    0  502  501  0.00000000000E+00  0.00000000000E+00  0.13072627560E+03  0.13072627560E+03  0.00000000000E+00 0. -1.
         21   -1    0    0  501  502 -0.00000000000E+00 -0.00000000000E+00 -0.13728339749E+04  0.13728339749E+04  0.00000000000E+00 0. -1.
         25    1    1    2    0    0 -0.14453502068E+03 -0.17795124044E+03 -0.35091022778E+03  0.43740142219E+03  0.12500000000E+03 0.  0.
         25    1    1    2    0    0 -0.10761562693E+03  0.22364841057E+03 -0.58569561868E+03  0.64827778957E+03  0.12500000000E+03 0.  0.
         25    1    1    2    0    0  0.25215064761E+03 -0.45697170134E+02 -0.30550185290E+03  0.41788103878E+03  0.12500000000E+03 0.  0.
</event>
<event>
 5    0  0.5547141E-005  0.2864254E+03  0.7546771E-02  0.1092230E+00
         21   -1    0    0  502  501  0.00000000000E+00  0.00000000000E+00  0.28878464642E+03  0.28878464642E+03  0.00000000000E+00 0.  1.
         21   -1    0    0  501  502 -0.00000000000E+00 -0.00000000000E+00 -0.28408537568E+03  0.28408537568E+03  0.00000000000E+00 0.  1.
         25    1    1    2    0    0 -0.24049768246E+02 -0.65045603503E+02 -0.25170897267E+02  0.14514784172E+03  0.12500000000E+03 0.  0.
         25    1    1    2    0    0 -0.11477366350E+03 -0.47242707589E+02  0.95136935477E+02  0.20020215720E+03  0.12500000000E+03 0.  0.
         25    1    1    2    0    0  0.13882343175E+03  0.11228831109E+03 -0.65266767467E+02  0.22752002318E+03  0.12500000000E+03 0.  0.
</event>
<event>
 5    0  0.5547141E-005  0.3264415E+03  0.7546771E-02  0.1072722E+00
         21   -1    0    0  502  501  0.00000000000E+00  0.00000000000E+00  0.33394119866E+03  0.33394119866E+03  0.00000000000E+00 0.  1.
         21   -1    0    0  501  502 -0.00000000000E+00 -0.00000000000E+00 -0.31911027689E+03  0.31911027689E+03  0.00000000000E+00 0.  1.
         25    1    1    2    0    0  0.11047323273E+03  0.69292775436E+02  0.21476605054E+03  0.28063371205E+03  0.12500000000E+03 0.  0.
         25    1    1    2    0    0 -0.88505435889E+01 -0.67318448454E+02 -0.14257627938E+03  0.20140283281E+03  0.12500000000E+03 0.  0.
         25    1    1    2    0    0 -0.10162268914E+03 -0.19743269816E+01 -0.57358849384E+02  0.17101493069E+03  0.12500000000E+03 0.  0.
</event>
<event>
 5    0  0.5547141E-005  0.2617399E+03  0.7546771E-02  0.1106102E+00
         21   -1    0    0  502  501  0.00000000000E+00  0.00000000000E+00  0.95897179434E+02  0.95897179434E+02  0.00000000000E+00 0.  1.
         21   -1    0    0  501  502 -0.00000000000E+00 -0.00000000000E+00 -0.71438764275E+03  0.71438764275E+03  0.00000000000E+00 0.  1.
         25    1    1    2    0    0  0.38347677122E+02 -0.28365060336E+02  0.36139673615E+01  0.13384013504E+03  0.12500000000E+03 0.  0.
         25    1    1    2    0    0 -0.57328199182E+02  0.16830424046E+02 -0.31385229677E+03  0.34307149369E+03  0.12500000000E+03 0.  0.
         25    1    1    2    0    0  0.18980522060E+02  0.11534636290E+02 -0.30825213390E+03  0.33337319344E+03  0.12500000000E+03 0.  0.
</event>
<event>
 5    0  0.7014404E-005  0.5955065E+03  0.7546771E-02  0.9914773E-01
         21   -1    0    0  502  501  0.00000000000E+00  0.00000000000E+00  0.43453848013E+03  0.43453848013E+03  0.00000000000E+00 0.  1.
         21   -1    0    0  501  502 -0.00000000000E+00 -0.00000000000E+00 -0.81610266395E+03  0.81610266395E+03  0.00000000000E+00 0.  1.
         25    1    1    2    0    0 -0.28573907443E+03  0.13893707589E+03 -0.41880845093E+03  0.54034789560E+03  0.12500000000E+03 0.  0.
         25    1    1    2    0    0  0.34568812569E+03 -0.44503444384E+02 -0.19914770718E+03  0.42043506761E+03  0.12500000000E+03 0.  0.
         25    1    1    2    0    0 -0.59949051256E+02 -0.94433631510E+02  0.23639197428E+03  0.28985818086E+03  0.12500000000E+03 0.  0.
</event>
<event>
 5    0  0.5547141E-005  0.5156295E+03  0.7546771E-02  0.1009778E+00
         21   -1    0    0  502  501  0.00000000000E+00  0.00000000000E+00  0.22342707416E+04  0.22342707416E+04  0.00000000000E+00 0. -1.
         21   -1    0    0  501  502 -0.00000000000E+00 -0.00000000000E+00 -0.11899800007E+03  0.11899800007E+03  0.00000000000E+00 0. -1.
         25    1    1    2    0    0 -0.29236704244E+03 -0.23314202155E+03  0.46577702178E+03  0.61025152497E+03  0.12500000000E+03 0.  0.
         25    1    1    2    0    0  0.69598936318E+00 -0.47115224610E+02  0.51679007715E+03  0.53377646317E+03  0.12500000000E+03 0.  0.
         25    1    1    2    0    0  0.29167105307E+03  0.28025724616E+03  0.11327056426E+04  0.12092407535E+04  0.12500000000E+03 0.  0.
</event>
<event>
 5    0  0.5547141E-005  0.2667853E+03  0.7546771E-02  0.1103134E+00
         21   -1    0    0  502  501  0.00000000000E+00  0.00000000000E+00  0.12701587883E+04  0.12701587883E+04  0.00000000000E+00 0. -1.
         21   -1    0    0  501  502 -0.00000000000E+00 -0.00000000000E+00 -0.56035829110E+02  0.56035829110E+02  0.00000000000E+00 0. -1.
         25    1    1    2    0    0  0.81850962259E+02 -0.11453290947E+03  0.29354715382E+03  0.34872954979E+03  0.12500000000E+03 0.  0.
         25    1    1    2    0    0 -0.24368205957E+02  0.70302575788E+02  0.69132508092E+03  0.70646417399E+03  0.12500000000E+03 0.  0.
         25    1    1    2    0    0 -0.57482756302E+02  0.44230333687E+02  0.22925072443E+03  0.27100089362E+03  0.12500000000E+03 0.  0.
</event>
<event>
 5    0  0.5547141E-005  0.3599350E+03  0.7546771E-02  0.1058610E+00
         21   -1    0    0  502  501  0.00000000000E+00  0.00000000000E+00  0.29647158627E+03  0.29647158627E+03  0.00000000000E+00 0.  1.
         21   -1    0    0  501  502 -0.00000000000E+00 -0.00000000000E+00 -0.43698358271E+03  0.43698358271E+03  0.00000000000E+00 0.  1.
         25    1    1    2    0    0 -0.38094533588E+02  0.16298901738E+02 -0.28981233271E+02  0.13483975515E+03  0.12500000000E+03 0.  0.
         25    1    1    2    0    0  0.92534936682E+02 -0.22878964915E+03 -0.18839803394E+03  0.33470320772E+03  0.12500000000E+03 0.  0.
         25    1    1    2    0    0 -0.54440403095E+02  0.21249074741E+03  0.76867270761E+02  0.26391220612E+03  0.12500000000E+03 0.  0.
</event>
<event>
 5    0  0.5547141E-005  0.2612919E+03  0.7546771E-02  0.1106370E+00
         21   -1    0    0  502  501  0.00000000000E+00  0.00000000000E+00  0.66561178133E+02  0.66561178133E+02  0.00000000000E+00 0. -1.
         21   -1    0    0  501  502 -0.00000000000E+00 -0.00000000000E+00 -0.10257245420E+04  0.10257245420E+04  0.00000000000E+00 0. -1.
         25    1    1    2    0    0  0.16243230279E+02  0.88376328278E+02 -0.98740235558E+02  0.18289027325E+03  0.12500000000E+03 0.  0.
         25    1    1    2    0    0  0.18605079531E+02 -0.10364046467E+03 -0.45765644982E+03  0.48596493800E+03  0.12500000000E+03 0.  0.
         25    1    1    2    0    0 -0.34848309810E+02  0.15264136390E+02 -0.40276667845E+03  0.42343050885E+03  0.12500000000E+03 0.  0.
</event>
<event>
 5    0  0.5547141E-005  0.2795460E+03  0.7546771E-02  0.1095937E+00
         21   -1    0    0  502  501  0.00000000000E+00  0.00000000000E+00  0.68366687758E+03  0.68366687758E+03  0.00000000000E+00 0.  1.
         21   -1    0    0  501  502 -0.00000000000E+00 -0.00000000000E+00 -0.11430411751E+03  0.11430411751E+03  0.00000000000E+00 0.  1.
         25    1    1    2    0    0 -0.11746863765E+03  0.69657146778E+01  0.11094916210E+03  0.20440674789E+03  0.12500000000E+03 0.  0.
         25    1    1    2    0    0  0.14622003322E+03 -0.63821574591E+01  0.41616743055E+03  0.45852083955E+03  0.12500000000E+03 0.  0.
         25    1    1    2    0    0 -0.28751395566E+02 -0.58355721875E+00  0.42246167414E+02  0.13504340764E+03  0.12500000000E+03 0.  0.
</event>
<event>
 5    0  0.5547141E-005  0.2703129E+03  0.7546771E-02  0.1101101E+00
         21   -1    0    0  502  501  0.00000000000E+00  0.00000000000E+00  0.57196953731E+03  0.57196953731E+03  0.00000000000E+00 0.  1.
         21   -1    0    0  501  502 -0.00000000000E+00 -0.00000000000E+00 -0.12774988791E+03  0.12774988791E+03  0.00000000000E+00 0.  1.
         25    1    1    2    0    0  0.11497973037E+03  0.11332580957E+03  0.18174638837E+03  0.27334927692E+03  0.12500000000E+03 0.  0.
         25    1    1    2    0    0 -0.11304322526E+02 -0.14388280148E+02  0.17803397352E+03  0.21830232715E+03  0.12500000000E+03 0.  0.
         25    1    1    2    0    0 -0.10367540784E+03 -0.98937529422E+02  0.84439287516E+02  0.20806782114E+03  0.12500000000E+03 0.  0.
</event>
<event>
 5    0  0.5547141E-005  0.3582988E+03  0.7546771E-02  0.1059259E+00
         21   -1    0    0  502  501  0.00000000000E+00  0.00000000000E+00  0.39755511864E+03  0.39755511864E+03  0.00000000000E+00 0.  1.
         21   -1    0    0  501  502 -0.00000000000E+00 -0.00000000000E+00 -0.32291883984E+03  0.32291883984E+03  0.00000000000E+00 0.  1.
         25    1    1    2    0    0  0.25759175224E+03 -0.60003102917E+02  0.22800278116E+02  0.29342586093E+03  0.12500000000E+03 0.  0.
         25    1    1    2    0    0 -0.10646980429E+03 -0.72939636106E+02 -0.16590224613E+02  0.18043349272E+03  0.12500000000E+03 0.  0.
         25    1    1    2    0    0 -0.15112194794E+03  0.13294273902E+03  0.68426225295E+02  0.24661460483E+03  0.12500000000E+03 0.  0.
</event>
<event>
 5    0  0.5547141E-005  0.2805131E+03  0.7546771E-02  0.1095409E+00
         21   -1    0    0  502  501  0.00000000000E+00  0.00000000000E+00  0.95894409413E+03  0.95894409413E+03  0.00000000000E+00 0. -1.
         21   -1    0    0  501  502 -0.00000000000E+00 -0.00000000000E+00 -0.82056478829E+02  0.82056478829E+02  0.00000000000E+00 0. -1.
         25    1    1    2    0    0 -0.16188413632E+03 -0.84547157763E+02  0.43461920068E+03  0.48772281582E+03  0.12500000000E+03 0.  0.
         25    1    1    2    0    0  0.48196833909E+02 -0.38137330920E+01  0.24279629529E+03  0.27733106635E+03  0.12500000000E+03 0.  0.
         25    1    1    2    0    0  0.11368730241E+03  0.88360890855E+02  0.19947211933E+03  0.27594669078E+03  0.12500000000E+03 0.  0.
</event>
<event>
 5    0  0.5547141E-005  0.3049340E+03  0.7546771E-02  0.1082800E+00
         21   -1    0    0  502  501  0.00000000000E+00  0.00000000000E+00  0.47260926192E+02  0.47260926192E+02  0.00000000000E+00 0.  1.
         21   -1    0    0  501  502 -0.00000000000E+00 -0.00000000000E+00 -0.19674760917E+04  0.19674760917E+04  0.00000000000E+00 0.  1.
         25    1    1    2    0    0  0.25014545135E+02  0.61375935059E+02 -0.20074397343E+03  0.24559290654E+03  0.12500000000E+03 0.  0.
         25    1    1    2    0    0  0.19074684397E+02 -0.18721279734E+03 -0.77988163371E+03  0.81194386362E+03  0.12500000000E+03 0.  0.
         25    1    1    2    0    0 -0.44089229532E+02  0.12583686228E+03 -0.93958955832E+03  0.95720024769E+03  0.12500000000E+03 0.  0.
</event>
<event>
 5    0  0.5547141E-005  0.6328818E+03  0.7546771E-02  0.9839441E-01
         21   -1    0    0  502  501  0.00000000000E+00  0.00000000000E+00  0.59296412298E+03  0.59296412298E+03  0.00000000000E+00 0.  1.
         21   -1    0    0  501  502 -0.00000000000E+00 -0.00000000000E+00 -0.67548659555E+03  0.67548659555E+03  0.00000000000E+00 0.  1.
         25    1    1    2    0    0 -0.36491954717E+03 -0.89219492498E+02 -0.24145774410E+03  0.46373832701E+03  0.12500000000E+03 0.  0.
         25    1    1    2    0    0  0.21947738201E+03  0.19185510101E+03  0.37973078218E+03  0.49477183422E+03  0.12500000000E+03 0.  0.
         25    1    1    2    0    0  0.14544216516E+03 -0.10263560851E+03 -0.22079551065E+03  0.30994055731E+03  0.12500000000E+03 0.  0.
</event>
<event>
 5    0  0.5547141E-005  0.5558194E+03  0.7546771E-02  0.1000156E+00
         21   -1    0    0  502  501  0.00000000000E+00  0.00000000000E+00  0.22970128664E+04  0.22970128664E+04  0.00000000000E+00 0.  1.
         21   -1    0    0  501  502 -0.00000000000E+00 -0.00000000000E+00 -0.13449430594E+03  0.13449430594E+03  0.00000000000E+00 0.  1.
         25    1    1    2    0    0  0.67938510493E+02 -0.18433910812E+03  0.84852656292E+02  0.24783365645E+03  0.12500000000E+03 0.  0.
         25    1    1    2    0    0  0.19380010141E+03 -0.11264090961E+03  0.82736301050E+03  0.86625689317E+03  0.12500000000E+03 0.  0.
         25    1    1    2    0    0 -0.26173861190E+03  0.29698001773E+03  0.12503028936E+04  0.13174166227E+04  0.12500000000E+03 0.  0.
</event>
<event>
 5    0  0.5547141E-005  0.2636490E+03  0.7546771E-02  0.1104970E+00
         21   -1    0    0  502  501  0.00000000000E+00  0.00000000000E+00  0.37027725198E+03  0.37027725198E+03  0.00000000000E+00 0. -1.
         21   -1    0    0  501  502 -0.00000000000E+00 -0.00000000000E+00 -0.18772632212E+03  0.18772632212E+03  0.00000000000E+00 0. -1.
         25    1    1    2    0    0 -0.87809177101E+02 -0.58299310512E+02  0.12056388661E+03  0.20314997402E+03  0.12500000000E+03 0.  0.
         25    1    1    2    0    0  0.11747512570E+03  0.96094015002E+02 -0.20317820358E+02  0.19766709059E+03  0.12500000000E+03 0.  0.
         25    1    1    2    0    0 -0.29665948597E+02 -0.37794704490E+02  0.82304863611E+02  0.15718650950E+03  0.12500000000E+03 0.  0.
</event>
<event>
 5    0  0.5547141E-005  0.2810609E+03  0.7546771E-02  0.1095111E+00
         21   -1    0    0  502  501  0.00000000000E+00  0.00000000000E+00  0.29445733078E+03  0.29445733078E+03  0.00000000000E+00 0.  1.
         21   -1    0    0  501  502 -0.00000000000E+00 -0.00000000000E+00 -0.26827401330E+03  0.26827401330E+03  0.00000000000E+00 0.  1.
         25    1    1    2    0    0 -0.31929526834E+02 -0.13611166097E+02 -0.90093703266E+02  0.15794503441E+03  0.12500000000E+03 0.  0.
         25    1    1    2    0    0  0.16147734618E+03 -0.47894195622E+01  0.84539196055E+02  0.22106503011E+03  0.12500000000E+03 0.  0.
         25    1    1    2    0    0 -0.12954781935E+03  0.18400585660E+02  0.31737824691E+02  0.18372127957E+03  0.12500000000E+03 0.  0.
</event>
<event>
 5    0  0.5547141E-005  0.3600912E+03  0.7546771E-02  0.1058548E+00
         21   -1    0    0  502  501  0.00000000000E+00  0.00000000000E+00  0.68319862949E+02  0.68319862949E+02  0.00000000000E+00 0. -1.
         21   -1    0    0  501  502 -0.00000000000E+00 -0.00000000000E+00 -0.18979205421E+04  0.18979205421E+04  0.00000000000E+00 0. -1.
         25    1    1    2    0    0  0.11688101327E+02  0.53376899885E+01 -0.60691811538E+02  0.13954783637E+03  0.12500000000E+03 0.  0.
         25    1    1    2    0    0  0.14950677261E+02 -0.11876267426E+03 -0.28832385835E+03  0.33627926317E+03  0.12500000000E+03 0.  0.
         25    1    1    2    0    0 -0.26638778588E+02  0.11342498427E+03 -0.14805850093E+04  0.14904133055E+04  0.12500000000E+03 0.  0.
</event>
<event>
 5    0  0.5547141E-005  0.2398769E+03  0.7546771E-02  0.1119875E+00
         21   -1    0    0  502  501  0.00000000000E+00  0.00000000000E+00  0.10264553681E+03  0.10264553681E+03  0.00000000000E+00 0.  1.
         21   -1    0    0  501  502 -0.00000000000E+00 -0.00000000000E+00 -0.56057911295E+03  0.56057911295E+03  0.00000000000E+00 0.  1.
         25    1    1    2    0    0  0.15051788021E+02  0.77824432167E+02 -0.15176176885E+03  0.21199017206E+03  0.12500000000E+03 0.  0.
         25    1    1    2    0    0 -0.65705024596E+01  0.62139655410E+02 -0.97108273235E+02  0.17017498350E+03  0.12500000000E+03 0.  0.
         25    1    1    2    0    0 -0.84812855615E+01 -0.13996408758E+03 -0.20906353405E+03  0.28105949421E+03  0.12500000000E+03 0.  0.
</event>
<event>
 5    0  0.5547141E-005  0.5111371E+03  0.7546771E-02  0.1010912E+00
         21   -1    0    0  502  501  0.00000000000E+00  0.00000000000E+00  0.52841680460E+03  0.52841680460E+03  0.00000000000E+00 0.  1.
         21   -1    0    0  501  502 -0.00000000000E+00 -0.00000000000E+00 -0.49442241058E+03  0.49442241058E+03  0.00000000000E+00 0.  1.
         25    1    1    2    0    0  0.27468201209E+03 -0.33802635346E+03  0.10211251133E+03  0.46450402407E+03  0.12500000000E+03 0.  0.
         25    1    1    2    0    0 -0.28796304308E+02  0.46572495964E+02 -0.77504117874E+02  0.15693983819E+03  0.12500000000E+03 0.  0.
         25    1    1    2    0    0 -0.24588570779E+03  0.29145385750E+03  0.93860005713E+01  0.40139535293E+03  0.12500000000E+03 0.  0.
</event>
<event>
 5    0  0.5547141E-005  0.2665065E+03  0.7546771E-02  0.1103296E+00
         21   -1    0    0  502  501  0.00000000000E+00  0.00000000000E+00  0.28640510125E+03  0.28640510125E+03  0.00000000000E+00 0. -1.
         21   -1    0    0  501  502 -0.00000000000E+00 -0.00000000000E+00 -0.24799039850E+03  0.24799039850E+03  0.00000000000E+00 0. -1.
         25    1    1    2    0    0  0.54481134012E+02  0.65025235235E+02  0.20154684299E+02  0.15240632034E+03  0.12500000000E+03 0.  0.
         25    1    1    2    0    0  0.61800045270E+02 -0.48431295683E+02 -0.95822456065E+02  0.17598800835E+03  0.12500000000E+03 0.  0.
         25    1    1    2    0    0 -0.11628117928E+03 -0.16593939552E+02  0.11408247452E+03  0.20600117106E+03  0.12500000000E+03 0.  0.
</event>
<event>
 5    0  0.5547141E-005  0.3040542E+03  0.7546771E-02  0.1083231E+00
         21   -1    0    0  502  501  0.00000000000E+00  0.00000000000E+00  0.11778126213E+04  0.11778126213E+04  0.00000000000E+00 0. -1.
         21   -1    0    0  501  502 -0.00000000000E+00 -0.00000000000E+00 -0.78492078864E+02  0.78492078864E+02  0.00000000000E+00 0. -1.
         25    1    1    2    0    0 -0.62882971552E+02  0.23268453202E+02  0.11687327273E+03  0.18379350071E+03  0.12500000000E+03 0.  0.
         25    1    1    2    0    0 -0.19392912965E+02  0.14248722367E+02  0.87569826089E+03  0.88490200321E+03  0.12500000000E+03 0.  0.
         25    1    1    2    0    0  0.82275884518E+02 -0.37517175570E+02  0.10674900885E+03  0.18760919627E+03  0.12500000000E+03 0.  0.
</event>
<event>
 5    0  0.5547141E-005  0.2602141E+03  0.7546771E-02  0.1107015E+00
         21   -1    0    0  502  501  0.00000000000E+00  0.00000000000E+00  0.47664548875E+02  0.47664548875E+02  0.00000000000E+00 0. -1.
         21   -1    0    0  501  502 -0.00000000000E+00 -0.00000000000E+00 -0.14205820480E+04  0.14205820480E+04  0.00000000000E+00 0. -1.
         25    1    1    2    0    0  0.43975080776E+01 -0.73225308368E+02 -0.24634002060E+03  0.28581408225E+03  0.12500000000E+03 0.  0.
         25    1    1    2    0    0  0.22230214116E+01  0.48023605775E+02 -0.16545372698E+03  0.21286414519E+03  0.12500000000E+03 0.  0.
         25    1    1    2    0    0 -0.66205294892E+01  0.25201702594E+02 -0.96112375150E+03  0.96956836939E+03  0.12500000000E+03 0.  0.
</event>
<event>
 5    0  0.5547141E-005  0.4015715E+03  0.7546771E-02  0.1043237E+00
         21   -1    0    0  502  501  0.00000000000E+00  0.00000000000E+00  0.45054459332E+03  0.45054459332E+03  0.00000000000E+00 0. -1.
         21   -1    0    0  501  502 -0.00000000000E+00 -0.00000000000E+00 -0.35792174683E+03  0.35792174683E+03  0.00000000000E+00 0. -1.
         25    1    1    2    0    0  0.72498964208E+02  0.59208006070E+02  0.12809074484E+03  0.20197506457E+03  0.12500000000E+03 0.  0.
         25    1    1    2    0    0 -0.25480481733E+03 -0.18421086534E+03 -0.82413344315E+02  0.34824717826E+03  0.12500000000E+03 0.  0.
         25    1    1    2    0    0  0.18230585312E+03  0.12500285927E+03  0.46945445968E+02  0.25824409733E+03  0.12500000000E+03 0.  0.
</event>
<event>
 5    0  0.5832758E-005  0.3453366E+03  0.7546771E-02  0.1064546E+00
         21   -1    0    0  502  501  0.00000000000E+00  0.00000000000E+00  0.18594306579E+03  0.18594306579E+03  0.00000000000E+00 0.  1.
         21   -1    0    0  501  502 -0.00000000000E+00 -0.00000000000E+00 -0.64136482522E+03  0.64136482522E+03  0.00000000000E+00 0.  1.
         25    1    1    2    0    0  0.10489590112E+03 -0.57178342274E+02  0.16158593737E+02  0.17366235357E+03  0.12500000000E+03 0.  0.
         25    1    1    2    0    0 -0.92595732072E+02 -0.64722054608E+02 -0.20417166856E+02  0.16971969436E+03  0.12500000000E+03 0.  0.
         25    1    1    2    0    0 -0.12300169049E+02  0.12190039688E+03 -0.45116318631E+03  0.48392584308E+03  0.12500000000E+03 0.  0.
</event>
<event>
 5    0  0.5547141E-005  0.3102634E+03  0.7546771E-02  0.1080220E+00
         21   -1    0    0  502  501  0.00000000000E+00  0.00000000000E+00  0.33580204540E+03  0.33580204540E+03  0.00000000000E+00 0.  1.
         21   -1    0    0  501  502 -0.00000000000E+00 -0.00000000000E+00 -0.28666703952E+03  0.28666703952E+03  0.00000000000E+00 0.  1.
         25    1    1    2    0    0  0.25308739965E+02  0.16845756970E+03 -0.62136687206E+02  0.22023726525E+03  0.12500000000E+03 0.  0.
         25    1    1    2    0    0  0.46562745245E+02  0.30223130972E+02  0.68783494461E+02  0.15309374906E+03  0.12500000000E+03 0.  0.
         25    1    1    2    0    0 -0.71871485209E+02 -0.19868070067E+03  0.42488198629E+02  0.24913807061E+03  0.12500000000E+03 0.  0.
</event>
<event>
 5    0  0.5547141E-005  0.2316832E+03  0.7546771E-02  0.1125461E+00
         21   -1    0    0  502  501  0.00000000000E+00  0.00000000000E+00  0.30710986048E+03  0.30710986048E+03  0.00000000000E+00 0. -1.
         21   -1    0    0  501  502 -0.00000000000E+00 -0.00000000000E+00 -0.17478143973E+03  0.17478143973E+03  0.00000000000E+00 0. -1.
         25    1    1    2    0    0  0.51637914504E+02  0.43924965159E+02 -0.36073154268E+02  0.14670429182E+03  0.12500000000E+03 0.  0.
         25    1    1    2    0    0 -0.91633415537E+02 -0.29436170927E+02  0.90119100632E+02  0.18168550658E+03  0.12500000000E+03 0.  0.
         25    1    1    2    0    0  0.39995501033E+02 -0.14488794232E+02  0.78282474390E+02  0.15350150181E+03  0.12500000000E+03 0.  0.
</event>
<event>
 5    0  0.5547141E-005  0.3177245E+03  0.7546771E-02  0.1076701E+00
         21   -1    0    0  502  501  0.00000000000E+00  0.00000000000E+00  0.31738246560E+03  0.31738246560E+03  0.00000000000E+00 0.  1.
         21   -1    0    0  501  502 -0.00000000000E+00 -0.00000000000E+00 -0.31806681910E+03  0.31806681910E+03  0.00000000000E+00 0.  1.
         25    1    1    2    0    0 -0.57646483164E+02  0.13566471913E+03  0.40904860419E+02  0.19755060274E+03  0.12500000000E+03 0.  0.
         25    1    1    2    0    0  0.11697836238E+03 -0.14907409677E+03  0.92149289513E+02  0.24499696968E+03  0.12500000000E+03 0.  0.
         25    1    1    2    0    0 -0.59331879219E+02  0.13409377635E+02 -0.13373850343E+03  0.19290171228E+03  0.12500000000E+03 0.  0.
</event>
<event>
 5    0  0.5547141E-005  0.4175732E+03  0.7546771E-02  0.1037859E+00
         21   -1    0    0  502  501  0.00000000000E+00  0.00000000000E+00  0.66252437129E+03  0.66252437129E+03  0.00000000000E+00 0. -1.
         21   -1    0    0  501  502 -0.00000000000E+00 -0.00000000000E+00 -0.26318630845E+03  0.26318630845E+03  0.00000000000E+00 0. -1.
         25    1    1    2    0    0 -0.19673002834E+03  0.63501240863E+02  0.58455595356E+02  0.24855013231E+03  0.12500000000E+03 0.  0.
         25    1    1    2    0    0 -0.74208744862E+02 -0.86320843133E+02  0.33796244233E+03  0.37789130474E+03  0.12500000000E+03 0.  0.
         25    1    1    2    0    0  0.27093877321E+03  0.22819602269E+02  0.29200251510E+01  0.29926924269E+03  0.12500000000E+03 0.  0.
</event>
<event>
 5    0  0.5547141E-005  0.2645380E+03  0.7546771E-02  0.1104447E+00
         21   -1    0    0  502  501  0.00000000000E+00  0.00000000000E+00  0.27510957712E+03  0.27510957712E+03  0.00000000000E+00 0. -1.
         21   -1    0    0  501  502 -0.00000000000E+00 -0.00000000000E+00 -0.25437264766E+03  0.25437264766E+03  0.00000000000E+00 0. -1.
         25    1    1    2    0    0  0.83528239317E+01 -0.85207870473E+02  0.50128899198E+02  0.15958714670E+03  0.12500000000E+03 0.  0.
         25    1    1    2    0    0 -0.93588288309E+02 -0.22460312729E+02  0.53437496451E+02  0.16656470029E+03  0.12500000000E+03 0.  0.
         25    1    1    2    0    0  0.85235464378E+02  0.10766818320E+03 -0.82829466184E+02  0.20333037778E+03  0.12500000000E+03 0.  0.
</event>
<event>
 5    0  0.5547141E-005  0.2267510E+03  0.7546771E-02  0.1128948E+00
         21   -1    0    0  502  501  0.00000000000E+00  0.00000000000E+00  0.31122221432E+02  0.31122221432E+02  0.00000000000E+00 0.  1.
         21   -1    0    0  501  502 -0.00000000000E+00 -0.00000000000E+00 -0.16520678710E+04  0.16520678710E+04  0.00000000000E+00 0.  1.
         25    1    1    2    0    0  0.48087824231E+02  0.37551284031E+01 -0.23940329485E+03  0.27434554382E+03  0.12500000000E+03 0.  0.
         25    1    1    2    0    0 -0.12382090174E+02  0.19705852997E+02 -0.92086282129E+03  0.92959936124E+03  0.12500000000E+03 0.  0.
         25    1    1    2    0    0 -0.35705734056E+02 -0.23460981400E+02 -0.46067953347E+03  0.47924518740E+03  0.12500000000E+03 0.  0.
</event>
<event>
 5    0  0.5547141E-005  0.2432190E+03  0.7546771E-02  0.1117667E+00
         21   -1    0    0  502  501  0.00000000000E+00  0.00000000000E+00  0.55537891949E+02  0.55537891949E+02  0.00000000000E+00 0.  1.
         21   -1    0    0  501  502 -0.00000000000E+00 -0.00000000000E+00 -0.10651372291E+04  0.10651372291E+04  0.00000000000E+00 0.  1.
         25    1    1    2    0    0 -0.67010768983E+02  0.76147877365E+02 -0.51147182115E+03  0.53620645858E+03  0.12500000000E+03 0.  0.
         25    1    1    2    0    0  0.52010979829E+02 -0.57273910596E+02 -0.13468378905E+03  0.19937443640E+03  0.12500000000E+03 0.  0.
         25    1    1    2    0    0  0.14999789154E+02 -0.18873966768E+02 -0.36344372698E+03  0.38509422610E+03  0.12500000000E+03 0.  0.
</event>
<event>
 5    0  0.5547141E-005  0.4360604E+03  0.7546771E-02  0.1031962E+00
         21   -1    0    0  502  501  0.00000000000E+00  0.00000000000E+00  0.73406547230E+03  0.73406547230E+03  0.00000000000E+00 0.  1.
         21   -1    0    0  501  502 -0.00000000000E+00 -0.00000000000E+00 -0.25903497936E+03  0.25903497936E+03  0.00000000000E+00 0.  1.
         25    1    1    2    0    0 -0.13958038536E+03 -0.75375974293E+02  0.19682467120E+01  0.20197300679E+03  0.12500000000E+03 0.  0.
         25    1    1    2    0    0  0.45299159878E+02  0.29276459089E+03  0.10981920502E+03  0.33977695236E+03  0.12500000000E+03 0.  0.
         25    1    1    2    0    0  0.94281225484E+02 -0.21738861659E+03  0.36324304121E+03  0.45135049251E+03  0.12500000000E+03 0.  0.
</event>
<event>
 5    0  0.5547141E-005  0.3067137E+03  0.7546771E-02  0.1081932E+00
         21   -1    0    0  502  501  0.00000000000E+00  0.00000000000E+00  0.10497557282E+03  0.10497557282E+03  0.00000000000E+00 0.  1.
         21   -1    0    0  501  502 -0.00000000000E+00 -0.00000000000E+00 -0.89614486285E+03  0.89614486285E+03  0.00000000000E+00 0.  1.
         25    1    1    2    0    0  0.21278906487E+02  0.78249226600E+02 -0.58186849831E+02  0.15995762820E+03  0.12500000000E+03 0.  0.
         25    1    1    2    0    0  0.58089890100E+02  0.23208427341E+02 -0.60443243526E+03  0.62038426417E+03  0.12500000000E+03 0.  0.
         25    1    1    2    0    0 -0.79368796587E+02 -0.10145765394E+03 -0.12855000494E+03  0.22077854331E+03  0.12500000000E+03 0.  0.
</event>
<event>
 5    0  0.5547141E-005  0.2149309E+03  0.7546771E-02  0.1137720E+00
         21   -1    0    0  502  501  0.00000000000E+00  0.00000000000E+00  0.32939546160E+03  0.32939546160E+03  0.00000000000E+00 0. -1.
         21   -1    0    0  501  502 -0.00000000000E+00 -0.00000000000E+00 -0.14024264420E+03  0.14024264420E+03  0.00000000000E+00 0. -1.
         25    1    1    2    0    0  0.24775988219E+02  0.56146044743E+02 -0.13889206593E+01  0.13925931579E+03  0.12500000000E+03 0.  0.
         25    1    1    2    0    0  0.14812656021E+02 -0.31289749258E+01  0.67225881505E+02  0.14273585536E+03  0.12500000000E+03 0.  0.
         25    1    1    2    0    0 -0.39588644240E+02 -0.53017069817E+02  0.12331585655E+03  0.18764293464E+03  0.12500000000E+03 0.  0.
</event>
<event>
 5    0  0.5547141E-005  0.4303145E+03  0.7546771E-02  0.1033761E+00
         21   -1    0    0  502  501  0.00000000000E+00  0.00000000000E+00  0.32346095977E+03  0.32346095977E+03  0.00000000000E+00 0.  1.
         21   -1    0    0  501  502 -0.00000000000E+00 -0.00000000000E+00 -0.57246652965E+03  0.57246652965E+03  0.00000000000E+00 0.  1.
         25    1    1    2    0    0 -0.56858961570E+02  0.15260048568E+03 -0.26586620206E+03  0.33590130566E+03  0.12500000000E+03 0.  0.
         25    1    1    2    0    0  0.10480550475E+03 -0.13590163208E+03 -0.20836637917E+03  0.29748108410E+03  0.12500000000E+03 0.  0.
         25    1    1    2    0    0 -0.47946543176E+02 -0.16698853602E+02  0.22522701136E+03  0.26254509967E+03  0.12500000000E+03 0.  0.
</event>
<event>
 5    0  0.5547141E-005  0.2675705E+03  0.7546771E-02  0.1102678E+00
         21   -1    0    0  502  501  0.00000000000E+00  0.00000000000E+00  0.15185492323E+03  0.15185492323E+03  0.00000000000E+00 0. -1.
         21   -1    0    0  501  502 -0.00000000000E+00 -0.00000000000E+00 -0.47146308777E+03  0.47146308777E+03  0.00000000000E+00 0. -1.
         25    1    1    2    0    0 -0.16600023438E+02 -0.31465268356E+02  0.59864350398E+02  0.14308865902E+03  0.12500000000E+03 0.  0.
         25    1    1    2    0    0  0.76731193848E+02  0.45992563025E+02 -0.21988457303E+03  0.26828570111E+03  0.12500000000E+03 0.  0.
         25    1    1    2    0    0 -0.60131170410E+02 -0.14527294670E+02 -0.15958794191E+03  0.21194365088E+03  0.12500000000E+03 0.  0.
</event>
<event>
 5    0  0.5547141E-005  0.3443750E+03  0.7546771E-02  0.1064948E+00
         21   -1    0    0  502  501  0.00000000000E+00  0.00000000000E+00  0.14455030706E+03  0.14455030706E+03  0.00000000000E+00 0. -1.
         21   -1    0    0  501  502 -0.00000000000E+00 -0.00000000000E+00 -0.82043517615E+03  0.82043517615E+03  0.00000000000E+00 0. -1.
         25    1    1    2    0    0  0.19788736335E+03 -0.82826488531E+02 -0.20397920049E+03  0.32132872577E+03  0.12500000000E+03 0.  0.
         25    1    1    2    0    0 -0.65258948849E+02  0.16712490675E+02 -0.95709517426E+01  0.14231880012E+03  0.12500000000E+03 0.  0.
         25    1    1    2    0    0 -0.13262841450E+03  0.66113997855E+02 -0.46233471685E+03  0.50133795732E+03  0.12500000000E+03 0.  0.
</event>
<event>
 5    0  0.5547141E-005  0.3597585E+03  0.7546771E-02  0.1058680E+00
         21   -1    0    0  502  501  0.00000000000E+00  0.00000000000E+00  0.53715796887E+03  0.53715796887E+03  0.00000000000E+00 0. -1.
         21   -1    0    0  501  502 -0.00000000000E+00 -0.00000000000E+00 -0.24094620431E+03  0.24094620431E+03  0.00000000000E+00 0. -1.
         25    1    1    2    0    0 -0.31427676034E+02  0.12591278857E+03  0.37050048423E+03  0.41199191492E+03  0.12500000000E+03 0.  0.
         25    1    1    2    0    0 -0.89985878516E+02 -0.79546523397E+02 -0.66355650319E+02  0.18561567834E+03  0.12500000000E+03 0.  0.
         25    1    1    2    0    0  0.12141355455E+03 -0.46366265172E+02 -0.79330693532E+01  0.18049657992E+03  0.12500000000E+03 0.  0.
</event>
<event>
 5    0  0.5547141E-005  0.3112452E+03  0.7546771E-02  0.1079751E+00
         21   -1    0    0  502  501  0.00000000000E+00  0.00000000000E+00  0.36068942441E+03  0.36068942441E+03  0.00000000000E+00 0.  1.
         21   -1    0    0  501  502 -0.00000000000E+00 -0.00000000000E+00 -0.26857887556E+03  0.26857887556E+03  0.00000000000E+00 0.  1.
         25    1    1    2    0    0 -0.10981155438E+03  0.16865679588E+03 -0.37193663404E+02  0.23981672350E+03  0.12500000000E+03 0.  0.
         25    1    1    2    0    0  0.75215888443E+02  0.96934610717E+01  0.40439629598E+02  0.15169626463E+03  0.12500000000E+03 0.  0.
         25    1    1    2    0    0  0.34595665937E+02 -0.17835025696E+03  0.88864582650E+02  0.23775531184E+03  0.12500000000E+03 0.  0.
</event>
<event>
 5    0  0.5547141E-005  0.3488399E+03  0.7546771E-02  0.1063092E+00
         21   -1    0    0  502  501  0.00000000000E+00  0.00000000000E+00  0.44072833125E+03  0.44072833125E+03  0.00000000000E+00 0. -1.
         21   -1    0    0  501  502 -0.00000000000E+00 -0.00000000000E+00 -0.27610947090E+03  0.27610947090E+03  0.00000000000E+00 0. -1.
         25    1    1    2    0    0  0.26095747220E+03 -0.60627580167E+02  0.18441324906E+03  0.34843615226E+03  0.12500000000E+03 0.  0.
         25    1    1    2    0    0 -0.13846805789E+03  0.46160071609E+02 -0.14468232428E+02  0.19271347907E+03  0.12500000000E+03 0.  0.
         25    1    1    2    0    0 -0.12248941431E+03  0.14467508559E+02 -0.53261562753E+01  0.17568817081E+03  0.12500000000E+03 0.  0.
</event>
<event>
 5    0  0.6614095E-005  0.4023798E+03  0.7546771E-02  0.1042959E+00
         21   -1    0    0  502  501  0.00000000000E+00  0.00000000000E+00  0.38339296023E+03  0.38339296023E+03  0.00000000000E+00 0. -1.
         21   -1    0    0  501  502 -0.00000000000E+00 -0.00000000000E+00 -0.42230701220E+03  0.42230701220E+03  0.00000000000E+00 0. -1.
         25    1    1    2    0    0 -0.12542089436E+03 -0.11818109650E+02 -0.20554771692E+03  0.27156018189E+03  0.12500000000E+03 0.  0.
         25    1    1    2    0    0  0.21278577880E+03 -0.66841304523E+02 -0.47170714086E+02  0.25999158432E+03  0.12500000000E+03 0.  0.
         25    1    1    2    0    0 -0.87364884438E+02  0.78659414173E+02  0.21380437904E+03  0.27414820621E+03  0.12500000000E+03 0.  0.
</event>
<event>
 5    0  0.5547141E-005  0.2649875E+03  0.7546771E-02  0.1104183E+00
         21   -1    0    0  502  501  0.00000000000E+00  0.00000000000E+00  0.20191524671E+04  0.20191524671E+04  0.00000000000E+00 0. -1.
         21   -1    0    0  501  502 -0.00000000000E+00 -0.00000000000E+00 -0.34776167728E+02  0.34776167728E+02  0.00000000000E+00 0. -1.
         25    1    1    2    0    0 -0.35916469956E+02  0.71680034400E+02  0.66337075146E+03  0.67978950716E+03  0.12500000000E+03 0.  0.
         25    1    1    2    0    0  0.11549763581E+03 -0.14042924737E+02  0.34154320681E+03  0.38185556135E+03  0.12500000000E+03 0.  0.
         25    1    1    2    0    0 -0.79581165853E+02 -0.57637109662E+02  0.97946234113E+03  0.99228356636E+03  0.12500000000E+03 0.  0.
</event>
<event>
 5    0  0.5754937E-005  0.2554882E+03  0.7546771E-02  0.1109885E+00
         21   -1    0    0  502  501  0.00000000000E+00  0.00000000000E+00  0.56742211269E+03  0.56742211269E+03  0.00000000000E+00 0.  1.
         21   -1    0    0  501  502 -0.00000000000E+00 -0.00000000000E+00 -0.11503647730E+03  0.11503647730E+03  0.00000000000E+00 0.  1.
         25    1    1    2    0    0  0.13345004769E+03 -0.19638165996E+02  0.89966503656E+02  0.20472797701E+03  0.12500000000E+03 0.  0.
         25    1    1    2    0    0 -0.46474474255E+02 -0.77316346240E+01  0.25962024371E+03  0.29197144702E+03  0.12500000000E+03 0.  0.
         25    1    1    2    0    0 -0.86975573430E+02  0.27369800620E+02  0.10279888802E+03  0.18575916596E+03  0.12500000000E+03 0.  0.
</event>
<event>
 5    0  0.5547141E-005  0.4426469E+03  0.7546771E-02  0.1029938E+00
         21   -1    0    0  502  501  0.00000000000E+00  0.00000000000E+00  0.48272367762E+03  0.48272367762E+03  0.00000000000E+00 0. -1.
         21   -1    0    0  501  502 -0.00000000000E+00 -0.00000000000E+00 -0.40589732998E+03  0.40589732998E+03  0.00000000000E+00 0. -1.
         25    1    1    2    0    0 -0.15856407405E+02  0.12249019018E+03 -0.12543871487E+03  0.21590540413E+03  0.12500000000E+03 0.  0.
         25    1    1    2    0    0 -0.10805054471E+03 -0.19993549987E+03 -0.12900318901E+03  0.28968249360E+03  0.12500000000E+03 0.  0.
         25    1    1    2    0    0  0.12390695212E+03  0.77445309695E+02  0.33126825154E+03  0.38303310986E+03  0.12500000000E+03 0.  0.
</event>
<event>
 5    0  0.5547141E-005  0.2823722E+03  0.7546771E-02  0.1094400E+00
         21   -1    0    0  502  501  0.00000000000E+00  0.00000000000E+00  0.97870435901E+03  0.97870435901E+03  0.00000000000E+00 0. -1.
         21   -1    0    0  501  502 -0.00000000000E+00 -0.00000000000E+00 -0.81469008267E+02  0.81469008267E+02  0.00000000000E+00 0. -1.
         25    1    1    2    0    0 -0.13348483998E+03  0.74571253407E+02  0.31607013274E+03  0.37269881023E+03  0.12500000000E+03 0.  0.
         25    1    1    2    0    0  0.13764600817E+03  0.77123601032E+01  0.45538155522E+03  0.49193827347E+03  0.12500000000E+03 0.  0.
         25    1    1    2    0    0 -0.41611681910E+01 -0.82283613510E+02  0.12578366278E+03  0.19553628358E+03  0.12500000000E+03 0.  0.
</event>
<event>
 5    0  0.5547141E-005  0.2289315E+03  0.7546771E-02  0.1127394E+00
         21   -1    0    0  502  501  0.00000000000E+00  0.00000000000E+00  0.10193693829E+04  0.10193693829E+04  0.00000000000E+00 0.  1.
         21   -1    0    0  501  502 -0.00000000000E+00 -0.00000000000E+00 -0.51413798673E+02  0.51413798673E+02  0.00000000000E+00 0.  1.
         25    1    1    2    0    0 -0.48562467474E+02 -0.10650236804E+03  0.44019139079E+03  0.47232883479E+03  0.12500000000E+03 0.  0.
         25    1    1    2    0    0  0.37693381275E+02  0.81794781131E+02  0.29985259177E+03  0.33711682545E+03  0.12500000000E+03 0.  0.
         25    1    1    2    0    0  0.10869086199E+02  0.24707586911E+02  0.22791160172E+03  0.26133752139E+03  0.12500000000E+03 0.  0.
</event>
<event>
 5    0  0.5547141E-005  0.2782468E+03  0.7546771E-02  0.1096650E+00
         21   -1    0    0  502  501  0.00000000000E+00  0.00000000000E+00  0.46944264146E+03  0.46944264146E+03  0.00000000000E+00 0.  1.
         21   -1    0    0  501  502 -0.00000000000E+00 -0.00000000000E+00 -0.16492170625E+03  0.16492170625E+03  0.00000000000E+00 0.  1.
         25    1    1    2    0    0  0.11747011272E+03 -0.10180052320E+03  0.12925500929E+02  0.19988657404E+03  0.12500000000E+03 0.  0.
         25    1    1    2    0    0 -0.47645108741E+02 -0.74130922138E+01  0.77724176075E+02  0.15489047056E+03  0.12500000000E+03 0.  0.
         25    1    1    2    0    0 -0.69825003976E+02  0.10921361541E+03  0.21387125821E+03  0.27958730311E+03  0.12500000000E+03 0.  0.
</event>
<event>
 5    0  0.5547141E-005  0.2089304E+03  0.7546771E-02  0.1142416E+00
         21   -1    0    0  502  501  0.00000000000E+00  0.00000000000E+00  0.44518887098E+02  0.44518887098E+02  0.00000000000E+00 0. -1.
         21   -1    0    0  501  502 -0.00000000000E+00 -0.00000000000E+00 -0.98052555689E+03  0.98052555689E+03  0.00000000000E+00 0. -1.
         25    1    1    2    0    0  0.36503464424E+00  0.47262931836E+01 -0.31058015680E+03  0.33482458824E+03  0.12500000000E+03 0.  0.
         25    1    1    2    0    0  0.65921520249E+02 -0.38550096913E+02 -0.31685310316E+03  0.34907398326E+03  0.12500000000E+03 0.  0.
         25    1    1    2    0    0 -0.66286554894E+02  0.33823803730E+02 -0.30857340984E+03  0.34114587249E+03  0.12500000000E+03 0.  0.
</event>
<event>
 5    0  0.5547141E-005  0.2278166E+03  0.7546771E-02  0.1128186E+00
         21   -1    0    0  502  501  0.00000000000E+00  0.00000000000E+00  0.22388611155E+03  0.22388611155E+03  0.00000000000E+00 0.  1.
         21   -1    0    0  501  502 -0.00000000000E+00 -0.00000000000E+00 -0.23181599682E+03  0.23181599682E+03  0.00000000000E+00 0.  1.
         25    1    1    2    0    0  0.42273515188E+02  0.33683526008E+02 -0.54534285410E+02  0.14669907394E+03  0.12500000000E+03 0.  0.
         25    1    1    2    0    0 -0.34067875228E+02  0.34506739433E+02  0.88139267583E+02  0.16045206661E+03  0.12500000000E+03 0.  0.
         25    1    1    2    0    0 -0.82056399601E+01 -0.68190265441E+02 -0.41534867439E+02  0.14855096782E+03  0.12500000000E+03 0.  0.
</event>
<event>
 5    0  0.5547141E-005  0.4585977E+03  0.7546771E-02  0.1025189E+00
         21   -1    0    0  502  501  0.00000000000E+00  0.00000000000E+00  0.81902855421E+03  0.81902855421E+03  0.00000000000E+00 0. -1.
         21   -1    0    0  501  502 -0.00000000000E+00 -0.00000000000E+00 -0.25678206002E+03  0.25678206002E+03  0.00000000000E+00 0.  1.
         25    1    1    2    0    0  0.50110994937E+02 -0.24893489040E+02  0.99953226509E+01  0.13731607366E+03  0.12500000000E+03 0.  0.
         25    1    1    2    0    0  0.24331500626E+03  0.22885578957E+03  0.38439777331E+03  0.52436991982E+03  0.12500000000E+03 0.  0.
         25    1    1    2    0    0 -0.29342600119E+03 -0.20396230053E+03  0.16785339823E+03  0.41412462075E+03  0.12500000000E+03 0.  0.
</event>
<event>
 5    0  0.5547141E-005  0.3163375E+03  0.7546771E-02  0.1077347E+00
         21   -1    0    0  502  501  0.00000000000E+00  0.00000000000E+00  0.12977284754E+04  0.12977284754E+04  0.00000000000E+00 0.  1.
         21   -1    0    0  501  502 -0.00000000000E+00 -0.00000000000E+00 -0.77111223710E+02  0.77111223710E+02  0.00000000000E+00 0.  1.
         25    1    1    2    0    0  0.16521761528E+03 -0.14340314348E+03  0.56605684917E+03  0.61960203232E+03  0.12500000000E+03 0.  0.
         25    1    1    2    0    0 -0.36582804062E+02  0.12199846027E+03  0.43969100109E+03  0.47452618716E+03  0.12500000000E+03 0.  0.
         25    1    1    2    0    0 -0.12863481122E+03  0.21404683210E+02  0.21486940140E+03  0.28071147960E+03  0.12500000000E+03 0.  0.
</event>
<event>
 5    0  0.5547141E-005  0.3381622E+03  0.7546771E-02  0.1067581E+00
         21   -1    0    0  502  501  0.00000000000E+00  0.00000000000E+00  0.50091150634E+03  0.50091150634E+03  0.00000000000E+00 0. -1.
         21   -1    0    0  501  502 -0.00000000000E+00 -0.00000000000E+00 -0.22829123098E+03  0.22829123098E+03  0.00000000000E+00 0. -1.
         25    1    1    2    0    0  0.37460762785E+02 -0.81258008733E+02  0.46217978004E+02  0.16052188082E+03  0.12500000000E+03 0.  0.
         25    1    1    2    0    0 -0.11791532256E+03 -0.10293352486E+03  0.26149423883E+03  0.32939880203E+03  0.12500000000E+03 0.  0.
         25    1    1    2    0    0  0.80454559773E+02  0.18419153360E+03 -0.35091941482E+02  0.23928205448E+03  0.12500000000E+03 0.  0.
</event>
<event>
 5    0  0.5547141E-005  0.3147596E+03  0.7546771E-02  0.1078087E+00
         21   -1    0    0  502  501  0.00000000000E+00  0.00000000000E+00  0.13336202560E+04  0.13336202560E+04  0.00000000000E+00 0.  1.
         21   -1    0    0  501  502 -0.00000000000E+00 -0.00000000000E+00 -0.74289211172E+02  0.74289211172E+02  0.00000000000E+00 0.  1.
         25    1    1    2    0    0 -0.10045554820E+03 -0.12271839248E+03  0.37182334335E+03  0.42311785554E+03  0.12500000000E+03 0.  0.
         25    1    1    2    0    0 -0.98079558325E+02  0.29651971664E+02  0.23542481341E+03  0.28556729847E+03  0.12500000000E+03 0.  0.
         25    1    1    2    0    0  0.19853510653E+03  0.93066420814E+02  0.65208288807E+03  0.69922431316E+03  0.12500000000E+03 0.  0.
</event>
<event>
 5    0  0.5547141E-005  0.2674922E+03  0.7546771E-02  0.1102723E+00
         21   -1    0    0  502  501  0.00000000000E+00  0.00000000000E+00  0.47402943388E+02  0.47402943388E+02  0.00000000000E+00 0.  1.
         21   -1    0    0  501  502 -0.00000000000E+00 -0.00000000000E+00 -0.15094441684E+04  0.15094441684E+04  0.00000000000E+00 0.  1.
         25    1    1    2    0    0 -0.15069583086E+03 -0.73961694221E+02 -0.49951522051E+03  0.54159027057E+03  0.12500000000E+03 0.  0.
         25    1    1    2    0    0  0.42890068801E+02  0.19941525443E+02 -0.57919540296E+03  0.59441529023E+03  0.12500000000E+03 0.  0.
         25    1    1    2    0    0  0.10780576206E+03  0.54020168778E+02 -0.38333060153E+03  0.42084155099E+03  0.12500000000E+03 0.  0.
</event>
<event>
 5    0  0.5547141E-005  0.2790752E+03  0.7546771E-02  0.1096195E+00
         21   -1    0    0  502  501  0.00000000000E+00  0.00000000000E+00  0.10453514631E+04  0.10453514631E+04  0.00000000000E+00 0.  1.
         21   -1    0    0  501  502 -0.00000000000E+00 -0.00000000000E+00 -0.74504083723E+02  0.74504083723E+02  0.00000000000E+00 0.  1.
         25    1    1    2    0    0  0.61950909069E+00  0.49629860522E+02  0.51512516006E+03  0.53239312296E+03  0.12500000000E+03 0.  0.
         25    1    1    2    0    0 -0.11721911456E+03 -0.77286683398E+02  0.30298135199E+03  0.35656170841E+03  0.12500000000E+03 0.  0.
         25    1    1    2    0    0  0.11659960547E+03  0.27656822876E+02  0.15274086732E+03  0.23090071545E+03  0.12500000000E+03 0.  0.
</event>
<event>
 5    0  0.5547141E-005  0.2722115E+03  0.7546771E-02  0.1100021E+00
         21   -1    0    0  502  501  0.00000000000E+00  0.00000000000E+00  0.12657718632E+03  0.12657718632E+03  0.00000000000E+00 0. -1.
         21   -1    0    0  501  502 -0.00000000000E+00 -0.00000000000E+00 -0.58540632113E+03  0.58540632113E+03  0.00000000000E+00 0. -1.
         25    1    1    2    0    0 -0.44922406273E+02 -0.13041530624E+02 -0.31622194886E+03  0.34323377609E+03  0.12500000000E+03 0.  0.
         25    1    1    2    0    0  0.88060067387E+02 -0.31744688218E+02  0.16546750027E+02  0.15703851641E+03  0.12500000000E+03 0.  0.
         25    1    1    2    0    0 -0.43137661113E+02  0.44786218842E+02 -0.15915393598E+03  0.21171121496E+03  0.12500000000E+03 0.  0.
</event>
<event>
 5    0  0.5547141E-005  0.3278025E+03  0.7546771E-02  0.1072113E+00
         21   -1    0    0  502  501  0.00000000000E+00  0.00000000000E+00  0.56398362187E+02  0.56398362187E+02  0.00000000000E+00 0. -1.
         21   -1    0    0  501  502 -0.00000000000E+00 -0.00000000000E+00 -0.19052768993E+04  0.19052768993E+04  0.00000000000E+00 0. -1.
         25    1    1    2    0    0  0.37243347222E+02  0.16313725014E+03 -0.41067070234E+03  0.46073447349E+03  0.12500000000E+03 0.  0.
         25    1    1    2    0    0 -0.15568542925E+03 -0.72428402331E+02 -0.98618630005E+03  0.10087974250E+04  0.12500000000E+03 0.  0.
         25    1    1    2    0    0  0.11844208203E+03 -0.90708847808E+02 -0.45202153476E+03  0.49214336300E+03  0.12500000000E+03 0.  0.
</event>
<event>
 5    0  0.5547141E-005  0.2687537E+03  0.7546771E-02  0.1101995E+00
         21   -1    0    0  502  501  0.00000000000E+00  0.00000000000E+00  0.13038272863E+04  0.13038272863E+04  0.00000000000E+00 0. -1.
         21   -1    0    0  501  502 -0.00000000000E+00 -0.00000000000E+00 -0.55397329551E+02  0.55397329551E+02  0.00000000000E+00 0. -1.
         25    1    1    2    0    0  0.74452234041E+02  0.82318789159E+01  0.39631791015E+03  0.42226032834E+03  0.12500000000E+03 0.  0.
         25    1    1    2    0    0 -0.12365784978E+03 -0.12164721319E+03  0.46522316819E+03  0.51200283642E+03  0.12500000000E+03 0.  0.
         25    1    1    2    0    0  0.49205615741E+02  0.11341533427E+03  0.38688887837E+03  0.42496145104E+03  0.12500000000E+03 0.  0.
</event>
<event>
 5    0  0.5547141E-005  0.3786660E+03  0.7546771E-02  0.1051428E+00
         21   -1    0    0  502  501  0.00000000000E+00  0.00000000000E+00  0.81861807584E+02  0.81861807584E+02  0.00000000000E+00 0. -1.
         21   -1    0    0  501  502 -0.00000000000E+00 -0.00000000000E+00 -0.17515856487E+04  0.17515856487E+04  0.00000000000E+00 0. -1.
         25    1    1    2    0    0  0.66451102184E+02  0.40238652458E+01 -0.58928561541E+03  0.60606474654E+03  0.12500000000E+03 0.  0.
         25    1    1    2    0    0  0.22654402120E+03  0.36036321695E+02 -0.47689709150E+03  0.54376157082E+03  0.12500000000E+03 0.  0.
         25    1    1    2    0    0 -0.29299512338E+03 -0.40060186941E+02 -0.60354113426E+03  0.68362113897E+03  0.12500000000E+03 0.  0.
</event>
<event>
 5    0  0.5547141E-005  0.3013949E+03  0.7546771E-02  0.1084545E+00
         21   -1    0    0  502  501  0.00000000000E+00  0.00000000000E+00  0.24013585154E+04  0.24013585154E+04  0.00000000000E+00 0.  1.
         21   -1    0    0  501  502 -0.00000000000E+00 -0.00000000000E+00 -0.37828126268E+02  0.37828126268E+02  0.00000000000E+00 0.  1.
         25    1    1    2    0    0 -0.15773009780E+03 -0.29533943850E+02  0.68462561608E+03  0.71420464280E+03  0.12500000000E+03 0.  0.
         25    1    1    2    0    0  0.20022356811E+03 -0.36925629142E+02  0.12089721881E+04  0.12323521132E+04  0.12500000000E+03 0.  0.
         25    1    1    2    0    0 -0.42493470307E+02  0.66459572992E+02  0.46993258497E+03  0.49262988570E+03  0.12500000000E+03 0.  0.
</event>
<event>
 5    0  0.5547141E-005  0.3264426E+03  0.7546771E-02  0.1072722E+00
         21   -1    0    0  502  501  0.00000000000E+00  0.00000000000E+00  0.65864764131E+03  0.65864764131E+03  0.00000000000E+00 0. -1.
         21   -1    0    0  501  502 -0.00000000000E+00 -0.00000000000E+00 -0.16179333245E+03  0.16179333245E+03  0.00000000000E+00 0. -1.
         25    1    1    2    0    0  0.76838325563E+02 -0.32181468596E+02 -0.55501008955E+02  0.16014099160E+03  0.12500000000E+03 0.  0.
         25    1    1    2    0    0  0.71310870220E+02  0.76294540684E+02  0.24022090967E+03  0.29023642533E+03  0.12500000000E+03 0.  0.
         25    1    1    2    0    0 -0.14814919578E+03 -0.44113072088E+02  0.31213440815E+03  0.37006355683E+03  0.12500000000E+03 0.  0.
</event>
<event>
 5    0  0.6135365E-005  0.2567668E+03  0.7546771E-02  0.1109102E+00
         21   -1    0    0  502  501  0.00000000000E+00  0.00000000000E+00  0.42962147114E+03  0.42962147114E+03  0.00000000000E+00 0.  1.
         21   -1    0    0  501  502 -0.00000000000E+00 -0.00000000000E+00 -0.15345877247E+03  0.15345877247E+03  0.00000000000E+00 0.  1.
         25    1    1    2    0    0  0.98843179078E+02 -0.48787611846E+02  0.83942890395E+02  0.18660550358E+03  0.12500000000E+03 0.  0.
         25    1    1    2    0    0 -0.14849877990E+03  0.42585976725E+02  0.59557112341E+02  0.20745482080E+03  0.12500000000E+03 0.  0.
         25    1    1    2    0    0  0.49655600819E+02  0.62016351208E+01  0.13266269593E+03  0.18901991922E+03  0.12500000000E+03 0.  0.
</event>
<event>
 5    0  0.5547141E-005  0.2193948E+03  0.7546771E-02  0.1134335E+00
         21   -1    0    0  502  501  0.00000000000E+00  0.00000000000E+00  0.37244930592E+02  0.37244930592E+02  0.00000000000E+00 0. -1.
         21   -1    0    0  501  502 -0.00000000000E+00 -0.00000000000E+00 -0.12923653649E+04  0.12923653649E+04  0.00000000000E+00 0. -1.
         25    1    1    2    0    0  0.58197594371E+02 -0.33032891197E+02 -0.31431875902E+03  0.34481794350E+03  0.12500000000E+03 0.  0.
         25    1    1    2    0    0  0.90182895483E+01  0.16996616290E+02 -0.63239629205E+03  0.64491882025E+03  0.12500000000E+03 0.  0.
         25    1    1    2    0    0 -0.67215883919E+02  0.16036274907E+02 -0.30840538321E+03  0.33987353171E+03  0.12500000000E+03 0.  0.
</event>
<event>
 5    0  0.5547141E-005  0.3591993E+03  0.7546771E-02  0.1058901E+00
         21   -1    0    0  502  501  0.00000000000E+00  0.00000000000E+00  0.32948417235E+03  0.32948417235E+03  0.00000000000E+00 0. -1.
         21   -1    0    0  501  502 -0.00000000000E+00 -0.00000000000E+00 -0.39159439071E+03  0.39159439071E+03  0.00000000000E+00 0. -1.
         25    1    1    2    0    0 -0.29134181443E+02 -0.25197944387E+01  0.40462181786E+01  0.12843878610E+03  0.12500000000E+03 0.  0.
         25    1    1    2    0    0 -0.20483806328E+03  0.14648084179E+03  0.10161062485E+02  0.28132457477E+03  0.12500000000E+03 0.  0.
         25    1    1    2    0    0  0.23397224473E+03 -0.14396104735E+03 -0.76317499018E+02  0.31131520219E+03  0.12500000000E+03 0.  0.
</event>
<event>
 5    0  0.5547141E-005  0.7552542E+03  0.7546771E-02  0.9627143E-01
         21   -1    0    0  502  501  0.00000000000E+00  0.00000000000E+00  0.44348535776E+03  0.44348535776E+03  0.00000000000E+00 0. -1.
         21   -1    0    0  501  502 -0.00000000000E+00 -0.00000000000E+00 -0.12861954724E+04  0.12861954724E+04  0.00000000000E+00 0. -1.
         25    1    1    2    0    0 -0.27200886176E+03  0.47321219820E+03 -0.95571987222E+03  0.11076750785E+04  0.12500000000E+03 0.  0.
         25    1    1    2    0    0  0.11845298538E+03 -0.15063863510E+03  0.68265156777E+01  0.22889890661E+03  0.12500000000E+03 0.  0.
         25    1    1    2    0    0  0.15355587637E+03 -0.32257356310E+03  0.10618324188E+03  0.39310684507E+03  0.12500000000E+03 0.  0.
</event>
<event>
 5    0  0.5547141E-005  0.2791235E+03  0.7546771E-02  0.1096169E+00
         21   -1    0    0  502  501  0.00000000000E+00  0.00000000000E+00  0.28723445686E+03  0.28723445686E+03  0.00000000000E+00 0.  1.
         21   -1    0    0  501  502 -0.00000000000E+00 -0.00000000000E+00 -0.27124157161E+03  0.27124157161E+03  0.00000000000E+00 0.  1.
         25    1    1    2    0    0  0.74857522060E+00 -0.10518221740E+03 -0.69832008610E+02  0.17766645336E+03  0.12500000000E+03 0.  0.
         25    1    1    2    0    0  0.33805574759E+02  0.17383191808E+03  0.13406502688E+02  0.21717524478E+03  0.12500000000E+03 0.  0.
         25    1    1    2    0    0 -0.34554149980E+02 -0.68649700683E+02  0.72418391176E+02  0.16363433034E+03  0.12500000000E+03 0.  0.
</event>
<event>
 5    0  0.5547141E-005  0.4353511E+03  0.7546771E-02  0.1032183E+00
         21   -1    0    0  502  501  0.00000000000E+00  0.00000000000E+00  0.60589947977E+03  0.60589947977E+03  0.00000000000E+00 0.  1.
         21   -1    0    0  501  502 -0.00000000000E+00 -0.00000000000E+00 -0.31280860055E+03  0.31280860055E+03  0.00000000000E+00 0.  1.
         25    1    1    2    0    0  0.22345675221E+02 -0.29351961546E+02  0.39295407644E+01  0.13038906449E+03  0.12500000000E+03 0.  0.
         25    1    1    2    0    0 -0.99012049322E+01 -0.32227447014E+03  0.21630320954E+03  0.40788594781E+03  0.12500000000E+03 0.  0.
         25    1    1    2    0    0 -0.12444470289E+02  0.35162643168E+03  0.72858128914E+02  0.38043306803E+03  0.12500000000E+03 0.  0.
</event>
<event>
 5    0  0.5547141E-005  0.3318037E+03  0.7546771E-02  0.1070342E+00
         21   -1    0    0  502  501  0.00000000000E+00  0.00000000000E+00  0.41329242672E+03  0.41329242672E+03  0.00000000000E+00 0. -1.
         21   -1    0    0  501  502 -0.00000000000E+00 -0.00000000000E+00 -0.26638204055E+03  0.26638204055E+03  0.00000000000E+00 0. -1.
         25    1    1    2    0    0 -0.90256372007E+02  0.76823021205E+02 -0.12904592200E+02  0.17274118726E+03  0.12500000000E+03 0.  0.
         25    1    1    2    0    0  0.68243855470E+02  0.11750805109E+03 -0.52934332712E+02  0.19207396872E+03  0.12500000000E+03 0.  0.
         25    1    1    2    0    0  0.22012516536E+02 -0.19433107230E+03  0.21274931108E+03  0.31485931129E+03  0.12500000000E+03 0.  0.
</event>
<event>
 5    0  0.5547141E-005  0.3419882E+03  0.7546771E-02  0.1065952E+00
         21   -1    0    0  502  501  0.00000000000E+00  0.00000000000E+00  0.73644912274E+02  0.73644912274E+02  0.00000000000E+00 0.  1.
         21   -1    0    0  501  502 -0.00000000000E+00 -0.00000000000E+00 -0.15881057012E+04  0.15881057012E+04  0.00000000000E+00 0.  1.
         25    1    1    2    0    0  0.18745911045E+03 -0.53694864504E+01 -0.64943605015E+03  0.68743140219E+03  0.12500000000E+03 0.  0.
         25    1    1    2    0    0 -0.18531837513E+03  0.79678874357E+02 -0.75651936233E+03  0.79286705617E+03  0.12500000000E+03 0.  0.
         25    1    1    2    0    0 -0.21407353211E+01 -0.74309387907E+02 -0.10850537644E+03  0.18145215511E+03  0.12500000000E+03 0.  0.
</event>
<event>
 5    0  0.5547141E-005  0.2249962E+03  0.7546771E-02  0.1130212E+00
         21   -1    0    0  502  501  0.00000000000E+00  0.00000000000E+00  0.82910825710E+02  0.82910825710E+02  0.00000000000E+00 0. -1.
         21   -1    0    0  501  502 -0.00000000000E+00 -0.00000000000E+00 -0.61057538195E+03  0.61057538195E+03  0.00000000000E+00 0. -1.
         25    1    1    2    0    0  0.67661204353E+01  0.28179401682E+02 -0.18885341391E+03  0.22832098241E+03  0.12500000000E+03 0.  0.
         25    1    1    2    0    0 -0.95741137761E+02  0.15947628176E+02 -0.15204642239E+03  0.21946254091E+03  0.12500000000E+03 0.  0.
         25    1    1    2    0    0  0.88975017326E+02 -0.44127029857E+02 -0.18676471995E+03  0.24570268433E+03  0.12500000000E+03 0.  0.
</event>
<event>
 5    0  0.5547141E-005  0.2719170E+03  0.7546771E-02  0.1100187E+00
         21   -1    0    0  502  501  0.00000000000E+00  0.00000000000E+00  0.26295921901E+03  0.26295921901E+03  0.00000000000E+00 0. -1.
         21   -1    0    0  501  502 -0.00000000000E+00 -0.00000000000E+00 -0.28117991295E+03  0.28117991295E+03  0.00000000000E+00 0. -1.
         25    1    1    2    0    0 -0.56830980731E+02  0.94452649789E+02 -0.11369523301E+03  0.20174902585E+03  0.12500000000E+03 0.  0.
         25    1    1    2    0    0  0.10099405605E+03 -0.10753566921E+03  0.75985551547E+02  0.20775592303E+03  0.12500000000E+03 0.  0.
         25    1    1    2    0    0 -0.44163075320E+02  0.13083019416E+02  0.19488987520E+02  0.13463418308E+03  0.12500000000E+03 0.  0.
</event>
<event>
 5    0  0.5547141E-005  0.2862782E+03  0.7546771E-02  0.1092308E+00
         21   -1    0    0  502  501  0.00000000000E+00  0.00000000000E+00  0.13453264548E+03  0.13453264548E+03  0.00000000000E+00 0.  1.
         21   -1    0    0  501  502 -0.00000000000E+00 -0.00000000000E+00 -0.60918455802E+03  0.60918455802E+03  0.00000000000E+00 0.  1.
         25    1    1    2    0    0 -0.12645569660E+03  0.89405875226E+02 -0.48124958884E+02  0.20475708876E+03  0.12500000000E+03 0.  0.
         25    1    1    2    0    0  0.73888832974E+02 -0.12118850248E+03 -0.26680501727E+03  0.32704148057E+03  0.12500000000E+03 0.  0.
         25    1    1    2    0    0  0.52566863629E+02  0.31782627256E+02 -0.15972193639E+03  0.21191863417E+03  0.12500000000E+03 0.  0.
</event>
<event>
 5    0  0.5547141E-005  0.3966675E+03  0.7546771E-02  0.1044940E+00
         21   -1    0    0  502  501  0.00000000000E+00  0.00000000000E+00  0.88188027604E+02  0.88188027604E+02  0.00000000000E+00 0. -1.
         21   -1    0    0  501  502 -0.00000000000E+00 -0.00000000000E+00 -0.17842006563E+04  0.17842006563E+04  0.00000000000E+00 0. -1.
         25    1    1    2    0    0 -0.21707998483E+03 -0.20283621758E+03 -0.78599431906E+03  0.84951652166E+03  0.12500000000E+03 0.  0.
         25    1    1    2    0    0 -0.27228241365E+01  0.13654318072E+03 -0.23611020373E+03  0.30004080103E+03  0.12500000000E+03 0.  0.
         25    1    1    2    0    0  0.21980280897E+03  0.66293036862E+02 -0.67390810594E+03  0.72283136126E+03  0.12500000000E+03 0.  0.
</event>
<event>
 5    0  0.5547141E-005  0.2650172E+03  0.7546771E-02  0.1104166E+00
         21   -1    0    0  502  501  0.00000000000E+00  0.00000000000E+00  0.61466037701E+03  0.61466037701E+03  0.00000000000E+00 0.  1.
         21   -1    0    0  501  502 -0.00000000000E+00 -0.00000000000E+00 -0.11426490362E+03  0.11426490362E+03  0.00000000000E+00 0.  1.
         25    1    1    2    0    0  0.13785861644E+02 -0.15112043055E+03  0.19228113253E+03  0.27499903352E+03  0.12500000000E+03 0.  0.
         25    1    1    2    0    0 -0.23997589516E+02 -0.28145392384E+01  0.16853376492E+03  0.21121656150E+03  0.12500000000E+03 0.  0.
         25    1    1    2    0    0  0.10211727872E+02  0.15393496979E+03  0.13958057594E+03  0.24270968561E+03  0.12500000000E+03 0.  0.
</event>
<event>
 5    0  0.5547141E-005  0.2582960E+03  0.7546771E-02  0.1108171E+00
         21   -1    0    0  502  501  0.00000000000E+00  0.00000000000E+00  0.33638183974E+03  0.33638183974E+03  0.00000000000E+00 0. -1.
         21   -1    0    0  501  502 -0.00000000000E+00 -0.00000000000E+00 -0.19833663298E+03  0.19833663298E+03  0.00000000000E+00 0. -1.
         25    1    1    2    0    0  0.85477166333E+02 -0.53022006070E+02  0.82266692266E+02  0.18030664921E+03  0.12500000000E+03 0.  0.
         25    1    1    2    0    0 -0.31945085879E+01  0.13050841337E+02  0.13155940727E+03  0.18197089599E+03  0.12500000000E+03 0.  0.
         25    1    1    2    0    0 -0.82282657745E+02  0.39971164733E+02 -0.75780892777E+02  0.17244092752E+03  0.12500000000E+03 0.  0.
</event>
<event>
 5    0  0.5547141E-005  0.3835648E+03  0.7546771E-02  0.1049624E+00
         21   -1    0    0  502  501  0.00000000000E+00  0.00000000000E+00  0.10631101937E+03  0.10631101937E+03  0.00000000000E+00 0.  1.
         21   -1    0    0  501  502 -0.00000000000E+00 -0.00000000000E+00 -0.13838828198E+04  0.13838828198E+04  0.00000000000E+00 0.  1.
         25    1    1    2    0    0  0.55091562964E+02  0.12178818558E+03 -0.32217837192E+03  0.37052846826E+03  0.12500000000E+03 0.  0.
         25    1    1    2    0    0  0.22199255220E+03 -0.90774234865E+02 -0.54061803830E+03  0.60449443197E+03  0.12500000000E+03 0.  0.
         25    1    1    2    0    0 -0.27708411516E+03 -0.31013950711E+02 -0.41477539019E+03  0.51517093894E+03  0.12500000000E+03 0.  0.
</event>
<event>
 5    0  0.5547141E-005  0.3063984E+03  0.7546771E-02  0.1082085E+00
         21   -1    0    0  502  501  0.00000000000E+00  0.00000000000E+00  0.55659098241E+02  0.55659098241E+02  0.00000000000E+00 0. -1.
         21   -1    0    0  501  502 -0.00000000000E+00 -0.00000000000E+00 -0.16866960709E+04  0.16866960709E+04  0.00000000000E+00 0. -1.
         25    1    1    2    0    0 -0.48164202425E+02  0.21100944182E+03 -0.54148734242E+03  0.59638772366E+03  0.12500000000E+03 0.  0.
         25    1    1    2    0    0 -0.19368104890E+02 -0.97187654842E+02 -0.35494793124E+03  0.38914470012E+03  0.12500000000E+03 0.  0.
         25    1    1    2    0    0  0.67532307315E+02 -0.11382178697E+03 -0.73460169902E+03  0.75682274538E+03  0.12500000000E+03 0.  0.
</event>
<event>
 5    0  0.5547141E-005  0.3045758E+03  0.7546771E-02  0.1082975E+00
         21   -1    0    0  502  501  0.00000000000E+00  0.00000000000E+00  0.12466950480E+03  0.12466950480E+03  0.00000000000E+00 0. -1.
         21   -1    0    0  501  502 -0.00000000000E+00 -0.00000000000E+00 -0.74409877536E+03  0.74409877536E+03  0.00000000000E+00 0. -1.
         25    1    1    2    0    0  0.53294113143E+02  0.17857839328E+03 -0.16298667367E+03  0.27734484101E+03  0.12500000000E+03 0.  0.
         25    1    1    2    0    0 -0.73280021512E+01 -0.19042194235E+03 -0.20451440577E+03  0.30621129618E+03  0.12500000000E+03 0.  0.
         25    1    1    2    0    0 -0.45966110992E+02  0.11843549067E+02 -0.25192819112E+03  0.28521214297E+03  0.12500000000E+03 0.  0.
</event>
<event>
 5    0  0.5547141E-005  0.3323873E+03  0.7546771E-02  0.1070085E+00
         21   -1    0    0  502  501  0.00000000000E+00  0.00000000000E+00  0.10233627008E+04  0.10233627008E+04  0.00000000000E+00 0.  1.
         21   -1    0    0  501  502 -0.00000000000E+00 -0.00000000000E+00 -0.10795912148E+03  0.10795912148E+03  0.00000000000E+00 0.  1.
         25    1    1    2    0    0 -0.12932521613E+03  0.18156096178E+00  0.18966761935E+03  0.26138831328E+03  0.12500000000E+03 0.  0.
         25    1    1    2    0    0 -0.43571207084E+02 -0.15494608051E+03  0.41596522294E+03  0.46320492727E+03  0.12500000000E+03 0.  0.
         25    1    1    2    0    0  0.17289642321E+03  0.15476451955E+03  0.30977073701E+03  0.40672858171E+03  0.12500000000E+03 0.  0.
</event>
<event>
 5    0  0.5547141E-005  0.2947952E+03  0.7546771E-02  0.1087872E+00
         21   -1    0    0  502  501  0.00000000000E+00  0.00000000000E+00  0.10948158861E+04  0.10948158861E+04  0.00000000000E+00 0. -1.
         21   -1    0    0  501  502 -0.00000000000E+00 -0.00000000000E+00 -0.79377944142E+02  0.79377944142E+02  0.00000000000E+00 0. -1.
         25    1    1    2    0    0 -0.14633639233E+03 -0.13616318634E+03  0.28729891931E+03  0.37164555973E+03  0.12500000000E+03 0.  0.
         25    1    1    2    0    0  0.11625546600E+03  0.11102375136E+03  0.39093943785E+03  0.44079502130E+03  0.12500000000E+03 0.  0.
         25    1    1    2    0    0  0.30080926332E+02  0.25139434979E+02  0.33719958479E+03  0.36175324920E+03  0.12500000000E+03 0.  0.
</event>
<event>
 5    0  0.6251279E-005  0.3881596E+03  0.7546771E-02  0.1047958E+00
         21   -1    0    0  502  501  0.00000000000E+00  0.00000000000E+00  0.24079151634E+03  0.24079151634E+03  0.00000000000E+00 0. -1.
         21   -1    0    0  501  502 -0.00000000000E+00 -0.00000000000E+00 -0.62571912765E+03  0.62571912765E+03  0.00000000000E+00 0. -1.
         25    1    1    2    0    0  0.19687732645E+03  0.12472405398E+03 -0.10427080869E+03  0.28427833694E+03  0.12500000000E+03 0.  0.
         25    1    1    2    0    0 -0.83982819919E+02 -0.10384148863E+03 -0.35311963174E+03  0.39768661421E+03  0.12500000000E+03 0.  0.
         25    1    1    2    0    0 -0.11289450653E+03 -0.20882565358E+02  0.72462829122E+02  0.18454569284E+03  0.12500000000E+03 0.  0.
</event>
<event>
 5    0  0.5547141E-005  0.2608965E+03  0.7546771E-02  0.1106606E+00
         21   -1    0    0  502  501  0.00000000000E+00  0.00000000000E+00  0.79301801146E+03  0.79301801146E+03  0.00000000000E+00 0.  1.
         21   -1    0    0  501  502 -0.00000000000E+00 -0.00000000000E+00 -0.85832835729E+02  0.85832835729E+02  0.00000000000E+00 0.  1.
         25    1    1    2    0    0 -0.11845913296E+03  0.69197008529E+01  0.38850931302E+03  0.42502345199E+03  0.12500000000E+03 0.  0.
         25    1    1    2    0    0  0.14048032182E+03 -0.25431508856E+02  0.14977186272E+03  0.24173972227E+03  0.12500000000E+03 0.  0.
         25    1    1    2    0    0 -0.22021188859E+02  0.18511808004E+02  0.16890400000E+03  0.21208767293E+03  0.12500000000E+03 0.  0.
</event>
<event>
 5    0  0.5547141E-005  0.4181495E+03  0.7546771E-02  0.1037670E+00
         21   -1    0    0  502  501  0.00000000000E+00  0.00000000000E+00  0.40070322412E+03  0.40070322412E+03  0.00000000000E+00 0.  1.
         21   -1    0    0  501  502 -0.00000000000E+00 -0.00000000000E+00 -0.43635529201E+03  0.43635529201E+03  0.00000000000E+00 0.  1.
         25    1    1    2    0    0 -0.85517175570E+02  0.13512562701E+03 -0.23736024927E+03  0.31230915825E+03  0.12500000000E+03 0.  0.
         25    1    1    2    0    0  0.19600035094E+03 -0.15970722457E+03  0.21638087008E+03  0.35548307426E+03  0.12500000000E+03 0.  0.
         25    1    1    2    0    0 -0.11048317537E+03  0.24581597554E+02 -0.14672688699E+02  0.16926628363E+03  0.12500000000E+03 0.  0.
</event>
<event>
 5    0  0.5547141E-005  0.3143028E+03  0.7546771E-02  0.1078302E+00
         21   -1    0    0  502  501  0.00000000000E+00  0.00000000000E+00  0.36959853832E+03  0.36959853832E+03  0.00000000000E+00 0. -1.
         21   -1    0    0  501  502 -0.00000000000E+00 -0.00000000000E+00 -0.26727990030E+03  0.26727990030E+03  0.00000000000E+00 0. -1.
         25    1    1    2    0    0  0.14633424347E+03  0.23776995131E+02  0.12540394337E+02  0.19432271560E+03  0.12500000000E+03 0.  0.
         25    1    1    2    0    0 -0.13554296406E+03 -0.14880092177E+03 -0.13859129586E+02  0.23734086226E+03  0.12500000000E+03 0.  0.
         25    1    1    2    0    0 -0.10791279409E+02  0.12502392663E+03  0.10363737327E+03  0.20521486077E+03  0.12500000000E+03 0.  0.
</event>
<event>
 5    0  0.5547141E-005  0.2252632E+03  0.7546771E-02  0.1130019E+00
         21   -1    0    0  502  501  0.00000000000E+00  0.00000000000E+00  0.56614196495E+02  0.56614196495E+02  0.00000000000E+00 0. -1.
         21   -1    0    0  501  502 -0.00000000000E+00 -0.00000000000E+00 -0.89630388564E+03  0.89630388564E+03  0.00000000000E+00 0. -1.
         25    1    1    2    0    0 -0.23539916533E+02  0.49045319242E+02 -0.17436026495E+03  0.22132797610E+03  0.12500000000E+03 0.  0.
         25    1    1    2    0    0 -0.15434286473E+02 -0.91925345135E+02 -0.44707011029E+03  0.47348196353E+03  0.12500000000E+03 0.  0.
         25    1    1    2    0    0  0.38974203006E+02  0.42880025894E+02 -0.21825931391E+03  0.25810814251E+03  0.12500000000E+03 0.  0.
</event>
<event>
 5    0  0.5547141E-005  0.3706695E+03  0.7546771E-02  0.1054437E+00
         21   -1    0    0  502  501  0.00000000000E+00  0.00000000000E+00  0.72146433187E+03  0.72146433187E+03  0.00000000000E+00 0. -1.
         21   -1    0    0  501  502 -0.00000000000E+00 -0.00000000000E+00 -0.19044034235E+03  0.19044034235E+03  0.00000000000E+00 0. -1.
         25    1    1    2    0    0  0.17711885133E+02  0.13733436216E+03  0.15525038528E+03  0.24269758968E+03  0.12500000000E+03 0.  0.
         25    1    1    2    0    0 -0.10534661691E+03 -0.29308163087E+03  0.22262713259E+03  0.40271899907E+03  0.12500000000E+03 0.  0.
         25    1    1    2    0    0  0.87634731778E+02  0.15574726871E+03  0.15314647165E+03  0.26648808548E+03  0.12500000000E+03 0.  0.
</event>
<event>
 5    0  0.5547141E-005  0.6893466E+03  0.7546771E-02  0.9735626E-01
         21   -1    0    0  502  501  0.00000000000E+00  0.00000000000E+00  0.17938012200E+04  0.17938012200E+04  0.00000000000E+00 0.  1.
         21   -1    0    0  501  502 -0.00000000000E+00 -0.00000000000E+00 -0.26491157915E+03  0.26491157915E+03  0.00000000000E+00 0.  1.
         25    1    1    2    0    0  0.21246026326E+03 -0.24354418409E+03  0.11769461112E+02  0.34672273258E+03  0.12500000000E+03 0.  0.
         25    1    1    2    0    0 -0.21031044298E+02  0.27055569390E+03  0.16679695967E+03  0.34218257419E+03  0.12500000000E+03 0.  0.
         25    1    1    2    0    0 -0.19142921897E+03 -0.27011509802E+02  0.13503232201E+04  0.13698074924E+04  0.12500000000E+03 0.  0.
</event>
<event>
 5    0  0.5547141E-005  0.2834256E+03  0.7546771E-02  0.1093833E+00
         21   -1    0    0  502  501  0.00000000000E+00  0.00000000000E+00  0.33661910419E+03  0.33661910419E+03  0.00000000000E+00 0.  1.
         21   -1    0    0  501  502 -0.00000000000E+00 -0.00000000000E+00 -0.23863792979E+03  0.23863792979E+03  0.00000000000E+00 0.  1.
         25    1    1    2    0    0  0.16512689366E+03  0.17940544402E+02  0.17576842974E+02  0.20862094706E+03  0.12500000000E+03 0.  0.
         25    1    1    2    0    0 -0.18130092922E+03 -0.42699930648E+02  0.80085560221E+02  0.23818481893E+03  0.12500000000E+03 0.  0.
         25    1    1    2    0    0  0.16174035555E+02  0.24759386245E+02  0.31877120996E+00  0.12845126799E+03  0.12500000000E+03 0.  0.
</event>
<event>
 5    0  0.5547141E-005  0.3766169E+03  0.7546771E-02  0.1052191E+00
         21   -1    0    0  502  501  0.00000000000E+00  0.00000000000E+00  0.53272655210E+03  0.53272655210E+03  0.00000000000E+00 0. -1.
         21   -1    0    0  501  502 -0.00000000000E+00 -0.00000000000E+00 -0.26625339314E+03  0.26625339314E+03  0.00000000000E+00 0.  1.
         25    1    1    2    0    0 -0.17123462274E+03  0.35426774646E+02  0.42054945679E+02  0.21902048042E+03  0.12500000000E+03 0.  0.
         25    1    1    2    0    0  0.20371969439E+03 -0.18326277261E+03  0.23700129324E+03  0.38325131533E+03  0.12500000000E+03 0.  0.
         25    1    1    2    0    0 -0.32485071657E+02  0.14783599796E+03 -0.12583079964E+02  0.19670814949E+03  0.12500000000E+03 0.  0.
</event>
<event>
 5    0  0.5547141E-005  0.2480532E+03  0.7546771E-02  0.1114541E+00
         21   -1    0    0  502  501  0.00000000000E+00  0.00000000000E+00  0.73596970081E+03  0.73596970081E+03  0.00000000000E+00 0.  1.
         21   -1    0    0  501  502 -0.00000000000E+00 -0.00000000000E+00 -0.83604535639E+02  0.83604535639E+02  0.00000000000E+00 0.  1.
         25    1    1    2    0    0  0.24396580421E+02  0.74676549818E+02  0.12129060645E+03  0.19107116853E+03  0.12500000000E+03 0.  0.
         25    1    1    2    0    0  0.92544290026E+02 -0.48765623202E+02  0.25699626706E+03  0.30432649064E+03  0.12500000000E+03 0.  0.
         25    1    1    2    0    0 -0.11694087045E+03 -0.25910926616E+02  0.27407829167E+03  0.32417657729E+03  0.12500000000E+03 0.  0.
</event>
<event>
 5    0  0.5987689E-005  0.2828223E+03  0.7546771E-02  0.1094157E+00
         21   -1    0    0  502  501  0.00000000000E+00  0.00000000000E+00  0.15719101579E+03  0.15719101579E+03  0.00000000000E+00 0. -1.
         21   -1    0    0  501  502 -0.00000000000E+00 -0.00000000000E+00 -0.50886147623E+03  0.50886147623E+03  0.00000000000E+00 0. -1.
         25    1    1    2    0    0  0.12800512391E+03  0.40593856004E+02 -0.27865234737E+03  0.33362449489E+03  0.12500000000E+03 0.  0.
         25    1    1    2    0    0 -0.37402799539E+02 -0.53293525517E+00  0.40548065486E+02  0.13663234993E+03  0.12500000000E+03 0.  0.
         25    1    1    2    0    0 -0.90602324369E+02 -0.40060920748E+02 -0.11356617856E+03  0.19579564720E+03  0.12500000000E+03 0.  0.
</event>
<event>
 5    0  0.5547141E-005  0.2417866E+03  0.7546771E-02  0.1118608E+00
         21   -1    0    0  502  501  0.00000000000E+00  0.00000000000E+00  0.53008355375E+03  0.53008355375E+03  0.00000000000E+00 0.  1.
         21   -1    0    0  501  502 -0.00000000000E+00 -0.00000000000E+00 -0.11028592794E+03  0.11028592794E+03  0.00000000000E+00 0.  1.
         25    1    1    2    0    0  0.69631243697E+02 -0.62817946213E+02  0.27028775323E+02  0.15858801708E+03  0.12500000000E+03 0.  0.
         25    1    1    2    0    0  0.65255386252E+01  0.34888104125E+02  0.17821732814E+03  0.22055878698E+03  0.12500000000E+03 0.  0.
         25    1    1    2    0    0 -0.76156782322E+02  0.27929842088E+02  0.21455152234E+03  0.26122267763E+03  0.12500000000E+03 0.  0.
</event>
<event>
 5    0  0.5547141E-005  0.2276120E+03  0.7546771E-02  0.1128332E+00
         21   -1    0    0  502  501  0.00000000000E+00  0.00000000000E+00  0.36340374733E+03  0.36340374733E+03  0.00000000000E+00 0.  1.
         21   -1    0    0  501  502 -0.00000000000E+00 -0.00000000000E+00 -0.14256108381E+03  0.14256108381E+03  0.00000000000E+00 0.  1.
         25    1    1    2    0    0 -0.28130278365E+02  0.36854787171E+02  0.14095802490E+03  0.19401998011E+03  0.12500000000E+03 0.  0.
         25    1    1    2    0    0  0.85892162946E+02 -0.52206571028E+02  0.22467405138E+02  0.16196534817E+03  0.12500000000E+03 0.  0.
         25    1    1    2    0    0 -0.57761884581E+02  0.15351783857E+02  0.57417233480E+02  0.14997950286E+03  0.12500000000E+03 0.  0.
</event>
<event>
 5    0  0.5547141E-005  0.3476647E+03  0.7546771E-02  0.1063578E+00
         21   -1    0    0  502  501  0.00000000000E+00  0.00000000000E+00  0.12223117364E+04  0.12223117364E+04  0.00000000000E+00 0. -1.
         21   -1    0    0  501  502 -0.00000000000E+00 -0.00000000000E+00 -0.98886992381E+02  0.98886992381E+02  0.00000000000E+00 0. -1.
         25    1    1    2    0    0  0.17857729290E+02  0.13121919367E+03  0.57981418565E+03  0.60773914236E+03  0.12500000000E+03 0.  0.
         25    1    1    2    0    0  0.61896980177E+02  0.84158622069E+02  0.35640227688E+03  0.39186922920E+03  0.12500000000E+03 0.  0.
         25    1    1    2    0    0 -0.79754709466E+02 -0.21537781574E+03  0.18720828146E+03  0.32159035720E+03  0.12500000000E+03 0.  0.
</event>
<event>
 5    0  0.5547141E-005  0.5404759E+03  0.7546771E-02  0.1003723E+00
         21   -1    0    0  502  501  0.00000000000E+00  0.00000000000E+00  0.23737741014E+04  0.23737741014E+04  0.00000000000E+00 0. -1.
         21   -1    0    0  501  502 -0.00000000000E+00 -0.00000000000E+00 -0.12305897552E+03  0.12305897552E+03  0.00000000000E+00 0. -1.
         25    1    1    2    0    0  0.28649075081E+03  0.16066198986E+03  0.61873442868E+03  0.71158029661E+03  0.12500000000E+03 0.  0.
         25    1    1    2    0    0 -0.81764727468E+02  0.16065604851E+03  0.19543628068E+03  0.29379614767E+03  0.12500000000E+03 0.  0.
         25    1    1    2    0    0 -0.20472602335E+03 -0.32131803836E+03  0.14365444165E+04  0.14914566327E+04  0.12500000000E+03 0.  0.
</event>
<event>
 5    0  0.5547141E-005  0.3193395E+03  0.7546771E-02  0.1075954E+00
         21   -1    0    0  502  501  0.00000000000E+00  0.00000000000E+00  0.33373374194E+03  0.33373374194E+03  0.00000000000E+00 0.  1.
         21   -1    0    0  501  502 -0.00000000000E+00 -0.00000000000E+00 -0.30556608009E+03  0.30556608009E+03  0.00000000000E+00 0.  1.
         25    1    1    2    0    0 -0.13568192817E+03 -0.15274511374E+01 -0.89825262266E+02  0.20519623895E+03  0.12500000000E+03 0.  0.
         25    1    1    2    0    0  0.95926523925E+02  0.13603695148E+03  0.13070069599E+03  0.24579589519E+03  0.12500000000E+03 0.  0.
         25    1    1    2    0    0  0.39755404245E+02 -0.13450950035E+03 -0.12707771872E+02  0.18830768788E+03  0.12500000000E+03 0.  0.
</event>
<event>
 5    0  0.5547141E-005  0.2288787E+03  0.7546771E-02  0.1127432E+00
         21   -1    0    0  502  501  0.00000000000E+00  0.00000000000E+00  0.26568639025E+03  0.26568639025E+03  0.00000000000E+00 0. -1.
         21   -1    0    0  501  502 -0.00000000000E+00 -0.00000000000E+00 -0.19717021676E+03  0.19717021676E+03  0.00000000000E+00 0. -1.
         25    1    1    2    0    0  0.74315073359E+02  0.15418947798E+02 -0.42721602423E+01  0.14630012110E+03  0.12500000000E+03 0.  0.
         25    1    1    2    0    0 -0.98918840254E-02  0.65885410208E+02  0.38653384934E+02  0.14649222349E+03  0.12500000000E+03 0.  0.
         25    1    1    2    0    0 -0.74305181475E+02 -0.81304358006E+02  0.34134948797E+02  0.17006426242E+03  0.12500000000E+03 0.  0.
</event>
<event>
 5    0  0.5731284E-005  0.4027215E+03  0.7546771E-02  0.1042841E+00
         21   -1    0    0  502  501  0.00000000000E+00  0.00000000000E+00  0.94354266650E+03  0.94354266650E+03  0.00000000000E+00 0. -1.
         21   -1    0    0  501  502 -0.00000000000E+00 -0.00000000000E+00 -0.17188899478E+03  0.17188899478E+03  0.00000000000E+00 0. -1.
         25    1    1    2    0    0 -0.11435282101E+03  0.15549525437E+03  0.64127301874E+02  0.23873133990E+03  0.12500000000E+03 0.  0.
         25    1    1    2    0    0  0.79482513736E+02  0.69070457110E+02  0.54879836942E+03  0.57261928741E+03  0.12500000000E+03 0.  0.
         25    1    1    2    0    0  0.34870307275E+02 -0.22456571148E+03  0.15872800043E+03  0.30408103397E+03  0.12500000000E+03 0.  0.
</event>
<event>
 5    0  0.5547141E-005  0.2830503E+03  0.7546771E-02  0.1094034E+00
         21   -1    0    0  502  501  0.00000000000E+00  0.00000000000E+00  0.89125320277E+03  0.89125320277E+03  0.00000000000E+00 0. -1.
         21   -1    0    0  501  502 -0.00000000000E+00 -0.00000000000E+00 -0.89893073270E+02  0.89893073270E+02  0.00000000000E+00 0. -1.
         25    1    1    2    0    0  0.85116017128E+02  0.59289495726E+02  0.55912055853E+03  0.58223773464E+03  0.12500000000E+03 0.  0.
         25    1    1    2    0    0 -0.63379513009E+02  0.20243444339E+01  0.21301902831E+03  0.25499640598E+03  0.12500000000E+03 0.  0.
         25    1    1    2    0    0 -0.21736504119E+02 -0.61313840160E+02  0.29220542662E+02  0.14391213542E+03  0.12500000000E+03 0.  0.
</event>
<event>
 5    0  0.5547141E-005  0.3902476E+03  0.7546771E-02  0.1047210E+00
         21   -1    0    0  502  501  0.00000000000E+00  0.00000000000E+00  0.69747120495E+03  0.69747120495E+03  0.00000000000E+00 0.  1.
         21   -1    0    0  501  502 -0.00000000000E+00 -0.00000000000E+00 -0.21835049347E+03  0.21835049347E+03  0.00000000000E+00 0.  1.
         25    1    1    2    0    0 -0.18568336533E+03  0.23230458017E+03  0.16753758554E+03  0.36350732138E+03  0.12500000000E+03 0.  0.
         25    1    1    2    0    0  0.20774091090E+03 -0.80112211075E+02  0.14647317389E+03  0.29436990861E+03  0.12500000000E+03 0.  0.
         25    1    1    2    0    0 -0.22057545569E+02 -0.15219236909E+03  0.16510995205E+03  0.25794446843E+03  0.12500000000E+03 0.  0.
</event>
<event>
 5    0  0.5547141E-005  0.3089831E+03  0.7546771E-02  0.1080834E+00
         21   -1    0    0  502  501  0.00000000000E+00  0.00000000000E+00  0.23574009390E+03  0.23574009390E+03  0.00000000000E+00 0.  1.
         21   -1    0    0  501  502 -0.00000000000E+00 -0.00000000000E+00 -0.40498229750E+03  0.40498229750E+03  0.00000000000E+00 0.  1.
         25    1    1    2    0    0  0.45401939646E+02 -0.99636946767E+02 -0.66513236261E+02  0.17899125086E+03  0.12500000000E+03 0.  0.
         25    1    1    2    0    0 -0.18416176150E+03  0.10248703653E+03  0.69321632472E+01  0.24513710846E+03  0.12500000000E+03 0.  0.
         25    1    1    2    0    0  0.13875982185E+03 -0.28500897637E+01 -0.10966113059E+03  0.21659403208E+03  0.12500000000E+03 0.  0.
</event>
<event>
 5    0  0.5547141E-005  0.3964734E+03  0.7546771E-02  0.1045008E+00
         21   -1    0    0  502  501  0.00000000000E+00  0.00000000000E+00  0.28933091744E+03  0.28933091744E+03  0.00000000000E+00 0. -1.
         21   -1    0    0  501  502 -0.00000000000E+00 -0.00000000000E+00 -0.54329195208E+03  0.54329195208E+03  0.00000000000E+00 0. -1.
         25    1    1    2    0    0 -0.34869102848E+02  0.26973454632E+03  0.21868963888E+02  0.30012635905E+03  0.12500000000E+03 0.  0.
         25    1    1    2    0    0 -0.81785837876E+01  0.26535477189E+02 -0.51259381675E+02  0.13792586774E+03  0.12500000000E+03 0.  0.
         25    1    1    2    0    0  0.43047686636E+02 -0.29627002351E+03 -0.22457061684E+03  0.39457064273E+03  0.12500000000E+03 0.  0.
</event>
<event>
 5    0  0.5547141E-005  0.2921292E+03  0.7546771E-02  0.1089243E+00
         21   -1    0    0  502  501  0.00000000000E+00  0.00000000000E+00  0.16566624957E+03  0.16566624957E+03  0.00000000000E+00 0.  1.
         21   -1    0    0  501  502 -0.00000000000E+00 -0.00000000000E+00 -0.51512904523E+03  0.51512904523E+03  0.00000000000E+00 0.  1.
         25    1    1    2    0    0  0.84399919227E+02 -0.76122426298E+02 -0.19022907230E+03  0.25442104885E+03  0.12500000000E+03 0.  0.
         25    1    1    2    0    0 -0.13552975657E+03  0.14477696983E+03 -0.50253767861E+02  0.23974804920E+03  0.12500000000E+03 0.  0.
         25    1    1    2    0    0  0.51129837340E+02 -0.68654543534E+02 -0.10897995550E+03  0.18662619675E+03  0.12500000000E+03 0.  0.
</event>
<event>
 5    0  0.5547141E-005  0.5500730E+03  0.7546771E-02  0.1001477E+00
         21   -1    0    0  502  501  0.00000000000E+00  0.00000000000E+00  0.11174546607E+04  0.11174546607E+04  0.00000000000E+00 0. -1.
         21   -1    0    0  501  502 -0.00000000000E+00 -0.00000000000E+00 -0.27077634460E+03  0.27077634460E+03  0.00000000000E+00 0. -1.
         25    1    1    2    0    0 -0.34711646637E+02  0.30395099424E+03  0.41997418510E+03  0.53441034932E+03  0.12500000000E+03 0.  0.
         25    1    1    2    0    0  0.87860884066E+02 -0.39279533015E+03  0.51784213132E+03  0.66767745155E+03  0.12500000000E+03 0.  0.
         25    1    1    2    0    0 -0.53149237429E+02  0.88844335911E+02 -0.91138000303E+02  0.18614320445E+03  0.12500000000E+03 0.  0.
</event>
<event>
 5    0  0.5547141E-005  0.4054869E+03  0.7546771E-02  0.1041896E+00
         21   -1    0    0  502  501  0.00000000000E+00  0.00000000000E+00  0.14621423655E+04  0.14621423655E+04  0.00000000000E+00 0.  1.
         21   -1    0    0  501  502 -0.00000000000E+00 -0.00000000000E+00 -0.11245116089E+03  0.11245116089E+03  0.00000000000E+00 0.  1.
         25    1    1    2    0    0  0.32908062342E+03  0.18396507238E+02  0.59389369315E+03  0.69062812493E+03  0.12500000000E+03 0.  0.
         25    1    1    2    0    0 -0.81762218632E+02 -0.20345615573E+02  0.43322746950E+03  0.45870474687E+03  0.12500000000E+03 0.  0.
         25    1    1    2    0    0 -0.24731840479E+03  0.19491083349E+01  0.32257004199E+03  0.42526065461E+03  0.12500000000E+03 0.  0.
</event>
<event>
 5    0  0.5547141E-005  0.2426979E+03  0.7546771E-02  0.1118009E+00
         21   -1    0    0  502  501  0.00000000000E+00  0.00000000000E+00  0.93756335300E+02  0.93756335300E+02  0.00000000000E+00 0.  1.
         21   -1    0    0  501  502 -0.00000000000E+00 -0.00000000000E+00 -0.62824823490E+03  0.62824823490E+03  0.00000000000E+00 0.  1.
         25    1    1    2    0    0  0.83490527995E+02  0.29643867375E+02 -0.44524469190E+02  0.15955204635E+03  0.12500000000E+03 0.  0.
         25    1    1    2    0    0 -0.81450005502E+02 -0.21651251043E+02 -0.25782811975E+03  0.29866908009E+03  0.12500000000E+03 0.  0.
         25    1    1    2    0    0 -0.20405224931E+01 -0.79926163311E+01 -0.23213931067E+03  0.26378344376E+03  0.12500000000E+03 0.  0.
</event>
<event>
 5    0  0.5547141E-005  0.3716531E+03  0.7546771E-02  0.1054063E+00
         21   -1    0    0  502  501  0.00000000000E+00  0.00000000000E+00  0.15307125243E+03  0.15307125243E+03  0.00000000000E+00 0.  1.
         21   -1    0    0  501  502 -0.00000000000E+00 -0.00000000000E+00 -0.90236421030E+03  0.90236421030E+03  0.00000000000E+00 0.  1.
         25    1    1    2    0    0 -0.16264036926E+02  0.77447125795E+02 -0.28575391700E+02  0.15067889435E+03  0.12500000000E+03 0.  0.
         25    1    1    2    0    0  0.76874657036E+01 -0.17654980531E+03 -0.59459644434E+02  0.22447578978E+03  0.12500000000E+03 0.  0.
         25    1    1    2    0    0  0.85765712221E+01  0.99102679512E+02 -0.66125792174E+03  0.68028077859E+03  0.12500000000E+03 0.  0.
</event>
<event>
 5    0  0.5547141E-005  0.3545161E+03  0.7546771E-02  0.1060777E+00
         21   -1    0    0  502  501  0.00000000000E+00  0.00000000000E+00  0.36607307888E+03  0.36607307888E+03  0.00000000000E+00 0. -1.
         21   -1    0    0  501  502 -0.00000000000E+00 -0.00000000000E+00 -0.34332393174E+03  0.34332393174E+03  0.00000000000E+00 0. -1.
         25    1    1    2    0    0  0.12751473746E+03  0.15929979557E+03 -0.61776204017E+02  0.24713909549E+03  0.12500000000E+03 0.  0.
         25    1    1    2    0    0 -0.11261947407E+03 -0.14497314608E+03  0.19394190665E+03  0.29485389972E+03  0.12500000000E+03 0.  0.
         25    1    1    2    0    0 -0.14895263394E+02 -0.14326649492E+02 -0.10941655550E+03  0.16740401541E+03  0.12500000000E+03 0.  0.
</event>
<event>
 5    0  0.5547141E-005  0.4698062E+03  0.7546771E-02  0.1021975E+00
         21   -1    0    0  502  501  0.00000000000E+00  0.00000000000E+00  0.18263897148E+03  0.18263897148E+03  0.00000000000E+00 0.  1.
         21   -1    0    0  501  502 -0.00000000000E+00 -0.00000000000E+00 -0.12084926270E+04  0.12084926270E+04  0.00000000000E+00 0.  1.
         25    1    1    2    0    0  0.57928668996E+02  0.37851081300E+02 -0.80048034124E+02  0.16377155679E+03  0.12500000000E+03 0.  0.
         25    1    1    2    0    0 -0.69817873355E+02 -0.17907147264E+03 -0.10038320710E+04  0.10296819676E+04  0.12500000000E+03 0.  0.
         25    1    1    2    0    0  0.11889204360E+02  0.14122039134E+03  0.58026449569E+02  0.19767807405E+03  0.12500000000E+03 0.  0.
</event>
<event>
 5    0  0.5547141E-005  0.7146956E+03  0.7546771E-02  0.9692426E-01
         21   -1    0    0  502  501  0.00000000000E+00  0.00000000000E+00  0.22781432201E+04  0.22781432201E+04  0.00000000000E+00 0. -1.
         21   -1    0    0  501  502 -0.00000000000E+00 -0.00000000000E+00 -0.22421317796E+03  0.22421317796E+03  0.00000000000E+00 0. -1.
         25    1    1    2    0    0 -0.90159332930E+02 -0.62953957283E+02  0.20397336252E+03  0.26329078729E+03  0.12500000000E+03 0.  0.
         25    1    1    2    0    0 -0.41498740735E+02  0.22043958521E+03 -0.99099312829E+02  0.27524794280E+03  0.12500000000E+03 0.  0.
         25    1    1    2    0    0  0.13165807366E+03 -0.15748562793E+03  0.19490559925E+04  0.19638176680E+04  0.12500000000E+03 0.  0.
</event>
<event>
 5    0  0.5547141E-005  0.2965044E+03  0.7546771E-02  0.1087001E+00
         21   -1    0    0  502  501  0.00000000000E+00  0.00000000000E+00  0.62401983164E+02  0.62401983164E+02  0.00000000000E+00 0.  1.
         21   -1    0    0  501  502 -0.00000000000E+00 -0.00000000000E+00 -0.14088475538E+04  0.14088475538E+04  0.00000000000E+00 0.  1.
         25    1    1    2    0    0  0.74038077323E+02  0.10129104159E+03 -0.74693358493E+03  0.76764333664E+03  0.12500000000E+03 0.  0.
         25    1    1    2    0    0 -0.25327726234E+02 -0.84414919208E+02 -0.52989054353E+03  0.55152185852E+03  0.12500000000E+03 0.  0.
         25    1    1    2    0    0 -0.48710351089E+02 -0.16876122377E+02 -0.69621442173E+02  0.15208434180E+03  0.12500000000E+03 0.  0.
</event>
<event>
 5    0  0.5547141E-005  0.3394503E+03  0.7546771E-02  0.1067030E+00
         21   -1    0    0  502  501  0.00000000000E+00  0.00000000000E+00  0.66017477630E+03  0.66017477630E+03  0.00000000000E+00 0. -1.
         21   -1    0    0  501  502 -0.00000000000E+00 -0.00000000000E+00 -0.17453939425E+03  0.17453939425E+03  0.00000000000E+00 0. -1.
         25    1    1    2    0    0 -0.25672043122E+01  0.15396653870E+03  0.39373109182E+03  0.44086444429E+03  0.12500000000E+03 0.  0.
         25    1    1    2    0    0  0.97463860112E+02 -0.15323746395E+03  0.20472676177E+02  0.22141602213E+03  0.12500000000E+03 0.  0.
         25    1    1    2    0    0 -0.94896655800E+02 -0.72907474562E+00  0.71431614065E+02  0.17243370413E+03  0.12500000000E+03 0.  0.
</event>
<event>
 5    0  0.5547141E-005  0.4071416E+03  0.7546771E-02  0.1041334E+00
         21   -1    0    0  502  501  0.00000000000E+00  0.00000000000E+00  0.34757716447E+03  0.34757716447E+03  0.00000000000E+00 0.  1.
         21   -1    0    0  501  502 -0.00000000000E+00 -0.00000000000E+00 -0.47691355597E+03  0.47691355597E+03  0.00000000000E+00 0.  1.
         25    1    1    2    0    0  0.21990634645E+03  0.15263831496E+03 -0.17881592635E+03  0.34533663565E+03  0.12500000000E+03 0.  0.
         25    1    1    2    0    0  0.59388712141E+02 -0.26203284459E+02  0.45600671819E+02  0.14804746711E+03  0.12500000000E+03 0.  0.
         25    1    1    2    0    0 -0.27929505860E+03 -0.12643503050E+03  0.38788630246E+01  0.33110661768E+03  0.12500000000E+03 0.  0.
</event>
<event>
 5    0  0.6143231E-005  0.3757698E+03  0.7546771E-02  0.1052508E+00
         21   -1    0    0  502  501  0.00000000000E+00  0.00000000000E+00  0.60830093478E+03  0.60830093478E+03  0.00000000000E+00 0.  1.
         21   -1    0    0  501  502 -0.00000000000E+00 -0.00000000000E+00 -0.23212680793E+03  0.23212680793E+03  0.00000000000E+00 0.  1.
         25    1    1    2    0    0 -0.17913276628E+03 -0.69789339426E+02  0.39219247878E+02  0.23264189059E+03  0.12500000000E+03 0.  0.
         25    1    1    2    0    0  0.25703031041E+03  0.44198492446E+02  0.63445692855E+02  0.29608857315E+03  0.12500000000E+03 0.  0.
         25    1    1    2    0    0 -0.77897544134E+02  0.25590846980E+02  0.27350918612E+03  0.31169727898E+03  0.12500000000E+03 0.  0.
</event>
<event>
 5    0  0.5547141E-005  0.4142734E+03  0.7546771E-02  0.1038946E+00
         21   -1    0    0  502  501  0.00000000000E+00  0.00000000000E+00  0.11796565678E+04  0.11796565678E+04  0.00000000000E+00 0.  1.
         21   -1    0    0  501  502 -0.00000000000E+00 -0.00000000000E+00 -0.14548512891E+03  0.14548512891E+03  0.00000000000E+00 0.  1.
         25    1    1    2    0    0 -0.30199157258E+03  0.93030689137E+02  0.58431935602E+03  0.67594950170E+03  0.12500000000E+03 0.  0.
         25    1    1    2    0    0  0.32146332468E+02 -0.39844658683E+02  0.25826152958E+03  0.29145325728E+03  0.12500000000E+03 0.  0.
         25    1    1    2    0    0  0.26984524011E+03 -0.53186030453E+02  0.19159055325E+03  0.35773893769E+03  0.12500000000E+03 0.  0.
</event>
<event>
 5    0  0.5547141E-005  0.2563907E+03  0.7546771E-02  0.1109331E+00
         21   -1    0    0  502  501  0.00000000000E+00  0.00000000000E+00  0.39442731357E+03  0.39442731357E+03  0.00000000000E+00 0. -1.
         21   -1    0    0  501  502 -0.00000000000E+00 -0.00000000000E+00 -0.16666237913E+03  0.16666237913E+03  0.00000000000E+00 0. -1.
         25    1    1    2    0    0 -0.34889818811E+02  0.84150000335E+02  0.13198925717E+03  0.20333392737E+03  0.12500000000E+03 0.  0.
         25    1    1    2    0    0  0.91135250605E+02 -0.52077866922E+02 -0.33501012187E+02  0.16662849679E+03  0.12500000000E+03 0.  0.
         25    1    1    2    0    0 -0.56245431794E+02 -0.32072133413E+02  0.12927668945E+03  0.19112726853E+03  0.12500000000E+03 0.  0.
</event>
<event>
 5    0  0.5547141E-005  0.2827373E+03  0.7546771E-02  0.1094203E+00
         21   -1    0    0  502  501  0.00000000000E+00  0.00000000000E+00  0.19162542176E+03  0.19162542176E+03  0.00000000000E+00 0.  1.
         21   -1    0    0  501  502 -0.00000000000E+00 -0.00000000000E+00 -0.41717004108E+03  0.41717004108E+03  0.00000000000E+00 0.  1.
         25    1    1    2    0    0  0.55319743073E+02 -0.10058291920E+03 -0.37284183690E+02  0.17375933921E+03  0.12500000000E+03 0.  0.
         25    1    1    2    0    0 -0.10316236924E+03  0.21030254293E+02 -0.22205175117E+03  0.27571130956E+03  0.12500000000E+03 0.  0.
         25    1    1    2    0    0  0.47842626165E+02  0.79552664907E+02  0.33791315542E+02  0.15932481407E+03  0.12500000000E+03 0.  0.
</event>
<event>
 5    0  0.5547141E-005  0.2745437E+03  0.7546771E-02  0.1098707E+00
         21   -1    0    0  502  501  0.00000000000E+00  0.00000000000E+00  0.84488918271E+03  0.84488918271E+03  0.00000000000E+00 0.  1.
         21   -1    0    0  501  502 -0.00000000000E+00 -0.00000000000E+00 -0.89212003249E+02  0.89212003249E+02  0.00000000000E+00 0.  1.
         25    1    1    2    0    0 -0.97414007959E+02 -0.13587876218E+02  0.26312959947E+03  0.30746756811E+03  0.12500000000E+03 0.  0.
         25    1    1    2    0    0  0.18695620210E+03  0.21416277908E+02  0.23079854469E+03  0.32296167991E+03  0.12500000000E+03 0.  0.
         25    1    1    2    0    0 -0.89542194136E+02 -0.78284016903E+01  0.26174903531E+03  0.30367193793E+03  0.12500000000E+03 0.  0.
</event>
<event>
 5    0  0.5547141E-005  0.3396895E+03  0.7546771E-02  0.1066928E+00
         21   -1    0    0  502  501  0.00000000000E+00  0.00000000000E+00  0.31924493139E+03  0.31924493139E+03  0.00000000000E+00 0. -1.
         21   -1    0    0  501  502 -0.00000000000E+00 -0.00000000000E+00 -0.36144333477E+03  0.36144333477E+03  0.00000000000E+00 0.  1.
         25    1    1    2    0    0  0.11516776891E+03 -0.21059975710E+02  0.50141153355E+02  0.17845524042E+03  0.12500000000E+03 0.  0.
         25    1    1    2    0    0 -0.26105335753E+03  0.63277039985E+02 -0.42369730658E+02  0.29928754292E+03  0.12500000000E+03 0.  0.
         25    1    1    2    0    0  0.14588558862E+03 -0.42217064275E+02 -0.49969826072E+02  0.20294548283E+03  0.12500000000E+03 0.  0.
</event>
<event>
 5    0  0.5547141E-005  0.2720895E+03  0.7546771E-02  0.1100090E+00
         21   -1    0    0  502  501  0.00000000000E+00  0.00000000000E+00  0.94767177156E+02  0.94767177156E+02  0.00000000000E+00 0. -1.
         21   -1    0    0  501  502 -0.00000000000E+00 -0.00000000000E+00 -0.78120599672E+03  0.78120599672E+03  0.00000000000E+00 0. -1.
         25    1    1    2    0    0  0.71146392268E+02 -0.31412381441E+02 -0.11309336912E+03  0.18564389831E+03  0.12500000000E+03 0.  0.
         25    1    1    2    0    0 -0.14104809534E+03  0.46071184758E+02 -0.48262803852E+03  0.52016530337E+03  0.12500000000E+03 0.  0.
         25    1    1    2    0    0  0.69901703071E+02 -0.14658803318E+02 -0.90717411913E+02  0.17016397219E+03  0.12500000000E+03 0.  0.
</event>
<event>
 5    0  0.5547141E-005  0.2739199E+03  0.7546771E-02  0.1099057E+00
         21   -1    0    0  502  501  0.00000000000E+00  0.00000000000E+00  0.32353365697E+03  0.32353365697E+03  0.00000000000E+00 0. -1.
         21   -1    0    0  501  502 -0.00000000000E+00 -0.00000000000E+00 -0.23191431879E+03  0.23191431879E+03  0.00000000000E+00 0. -1.
         25    1    1    2    0    0  0.85863845181E+02 -0.57972048261E+02 -0.30877812475E+02  0.16526281370E+03  0.12500000000E+03 0.  0.
         25    1    1    2    0    0 -0.51836056322E+02 -0.59958694411E+02 -0.37764843412E+02  0.15275210365E+03  0.12500000000E+03 0.  0.
         25    1    1    2    0    0 -0.34027788859E+02  0.11793074267E+03  0.16026199407E+03  0.23743305841E+03  0.12500000000E+03 0.  0.
</event>
<event>
 5    0  0.5547141E-005  0.2468620E+03  0.7546771E-02  0.1115304E+00
         21   -1    0    0  502  501  0.00000000000E+00  0.00000000000E+00  0.19101842340E+03  0.19101842340E+03  0.00000000000E+00 0. -1.
         21   -1    0    0  501  502 -0.00000000000E+00 -0.00000000000E+00 -0.31903126436E+03  0.31903126436E+03  0.00000000000E+00 0. -1.
         25    1    1    2    0    0  0.89880016063E+02  0.57055356817E+02  0.48730060063E+02  0.17126981574E+03  0.12500000000E+03 0.  0.
         25    1    1    2    0    0 -0.40388971184E+02  0.21683050858E+02 -0.85416582218E+02  0.15818475339E+03  0.12500000000E+03 0.  0.
         25    1    1    2    0    0 -0.49491044880E+02 -0.78738407676E+02 -0.91326318812E+02  0.18059511863E+03  0.12500000000E+03 0.  0.
</event>
<event>
 5    0  0.5547141E-005  0.3335666E+03  0.7546771E-02  0.1069570E+00
         21   -1    0    0  502  501  0.00000000000E+00  0.00000000000E+00  0.54494550384E+02  0.54494550384E+02  0.00000000000E+00 0.  1.
         21   -1    0    0  501  502 -0.00000000000E+00 -0.00000000000E+00 -0.20417940645E+04  0.20417940645E+04  0.00000000000E+00 0.  1.
         25    1    1    2    0    0  0.10450941507E+03 -0.61295921507E+02 -0.90717416111E+03  0.92372580694E+03  0.12500000000E+03 0.  0.
         25    1    1    2    0    0 -0.11247754573E+03  0.13240412018E+03 -0.96421874605E+03  0.98768661000E+03  0.12500000000E+03 0.  0.
         25    1    1    2    0    0  0.79681306563E+01 -0.71108198669E+02 -0.11590660692E+03  0.18487619790E+03  0.12500000000E+03 0.  0.
</event>
<event>
 5    0  0.5547141E-005  0.4446073E+03  0.7546771E-02  0.1029343E+00
         21   -1    0    0  502  501  0.00000000000E+00  0.00000000000E+00  0.44712059925E+03  0.44712059925E+03  0.00000000000E+00 0.  1.
         21   -1    0    0  501  502 -0.00000000000E+00 -0.00000000000E+00 -0.44210808225E+03  0.44210808225E+03  0.00000000000E+00 0.  1.
         25    1    1    2    0    0 -0.88553866058E+02 -0.16207533280E+03  0.75882849736E+02  0.23557038774E+03  0.12500000000E+03 0.  0.
         25    1    1    2    0    0  0.26184301154E+03  0.19327936760E+03  0.11668809428E+03  0.36764084101E+03  0.12500000000E+03 0.  0.
         25    1    1    2    0    0 -0.17328914548E+03 -0.31204034803E+02 -0.18755842702E+03  0.28601745275E+03  0.12500000000E+03 0.  0.
</event>
<event>
 5    0  0.5547141E-005  0.3966723E+03  0.7546771E-02  0.1044938E+00
         21   -1    0    0  502  501  0.00000000000E+00  0.00000000000E+00  0.18798923713E+04  0.18798923713E+04  0.00000000000E+00 0.  1.
         21   -1    0    0  501  502 -0.00000000000E+00 -0.00000000000E+00 -0.83701003483E+02  0.83701003483E+02  0.00000000000E+00 0.  1.
         25    1    1    2    0    0 -0.10881151689E+03  0.17484821892E+03  0.71379785449E+03  0.75335530989E+03  0.12500000000E+03 0.  0.
         25    1    1    2    0    0 -0.11298759465E+03 -0.22550480659E+03  0.58311919800E+03  0.64751186353E+03  0.12500000000E+03 0.  0.
         25    1    1    2    0    0  0.22179911153E+03  0.50656587679E+02  0.49927431534E+03  0.56272620137E+03  0.12500000000E+03 0.  0.
</event>
<event>
 5    0  0.5547141E-005  0.2227581E+03  0.7546771E-02  0.1131843E+00
         21   -1    0    0  502  501  0.00000000000E+00  0.00000000000E+00  0.88495851015E+02  0.88495851015E+02  0.00000000000E+00 0. -1.
         21   -1    0    0  501  502 -0.00000000000E+00 -0.00000000000E+00 -0.56071773392E+03  0.56071773392E+03  0.00000000000E+00 0. -1.
         25    1    1    2    0    0  0.43017769410E+02 -0.65842184430E+02 -0.75261482633E+02  0.16575588226E+03  0.12500000000E+03 0.  0.
         25    1    1    2    0    0 -0.21506759616E+01  0.23364549813E+02 -0.12463309496E+03  0.17807003104E+03  0.12500000000E+03 0.  0.
         25    1    1    2    0    0 -0.40867093448E+02  0.42477634617E+02 -0.27232730531E+03  0.30538767164E+03  0.12500000000E+03 0.  0.
</event>
<event>
 5    0  0.5547141E-005  0.2880409E+03  0.7546771E-02  0.1091376E+00
         21   -1    0    0  502  501  0.00000000000E+00  0.00000000000E+00  0.10702492745E+03  0.10702492745E+03  0.00000000000E+00 0. -1.
         21   -1    0    0  501  502 -0.00000000000E+00 -0.00000000000E+00 -0.77521689699E+03  0.77521689699E+03  0.00000000000E+00 0. -1.
         25    1    1    2    0    0  0.10794610670E+03 -0.11578240741E+03 -0.22265466908E+03  0.30042974134E+03  0.12500000000E+03 0.  0.
         25    1    1    2    0    0 -0.12901603846E+03  0.15052951861E+03 -0.22389451691E+03  0.32412656302E+03  0.12500000000E+03 0.  0.
         25    1    1    2    0    0  0.21069931755E+02 -0.34747111197E+02 -0.22164278355E+03  0.25768552008E+03  0.12500000000E+03 0.  0.
</event>
<event>
 5    0  0.5547141E-005  0.3096358E+03  0.7546771E-02  0.1080521E+00
         21   -1    0    0  502  501  0.00000000000E+00  0.00000000000E+00  0.32574058778E+02  0.32574058778E+02  0.00000000000E+00 0. -1.
         21   -1    0    0  501  502 -0.00000000000E+00 -0.00000000000E+00 -0.29432730953E+04  0.29432730953E+04  0.00000000000E+00 0. -1.
         25    1    1    2    0    0 -0.11096304411E+02 -0.22677625544E+02 -0.16988628477E+03  0.21242352136E+03  0.12500000000E+03 0.  0.
         25    1    1    2    0    0 -0.50756310136E+02 -0.20330468953E+02 -0.51291859551E+03  0.53075419603E+03  0.12500000000E+03 0.  0.
         25    1    1    2    0    0  0.61852614546E+02  0.43008094496E+02 -0.22278941562E+04  0.22326694367E+04  0.12500000000E+03 0.  0.
</event>
<event>
 5    0  0.5547141E-005  0.5938903E+03  0.7546771E-02  0.9918163E-01
         21   -1    0    0  502  501  0.00000000000E+00  0.00000000000E+00  0.90260648989E+03  0.90260648989E+03  0.00000000000E+00 0.  1.
         21   -1    0    0  501  502 -0.00000000000E+00 -0.00000000000E+00 -0.39076351126E+03  0.39076351126E+03  0.00000000000E+00 0.  1.
         25    1    1    2    0    0 -0.25357047265E+03  0.45098694207E+03  0.16404688084E+03  0.55697718591E+03  0.12500000000E+03 0.  0.
         25    1    1    2    0    0  0.40025637510E+02  0.36245157652E+01  0.77694231925E+02  0.15256664920E+03  0.12500000000E+03 0.  0.
         25    1    1    2    0    0  0.21354483514E+03 -0.45461145783E+03  0.27010186586E+03  0.58382616604E+03  0.12500000000E+03 0.  0.
</event>
<event>
 5    0  0.5547141E-005  0.3036233E+03  0.7546771E-02  0.1083443E+00
         21   -1    0    0  502  501  0.00000000000E+00  0.00000000000E+00  0.99499575411E+03  0.99499575411E+03  0.00000000000E+00 0.  1.
         21   -1    0    0  501  502 -0.00000000000E+00 -0.00000000000E+00 -0.92650747876E+02  0.92650747876E+02  0.00000000000E+00 0.  1.
         25    1    1    2    0    0 -0.12011595561E+03  0.28313335596E+02  0.62812192295E+03  0.65222054388E+03  0.12500000000E+03 0.  0.
         25    1    1    2    0    0 -0.21707788963E+02  0.23186378059E+02  0.51739770623E+02  0.13896344877E+03  0.12500000000E+03 0.  0.
         25    1    1    2    0    0  0.14182374458E+03 -0.51499713655E+02  0.22248331266E+03  0.29646250934E+03  0.12500000000E+03 0.  0.
</event>
<event>
 5    0  0.5547141E-005  0.2498917E+03  0.7546771E-02  0.1113373E+00
         21   -1    0    0  502  501  0.00000000000E+00  0.00000000000E+00  0.12841674132E+03  0.12841674132E+03  0.00000000000E+00 0.  1.
         21   -1    0    0  501  502 -0.00000000000E+00 -0.00000000000E+00 -0.48627495416E+03  0.48627495416E+03  0.00000000000E+00 0.  1.
         25    1    1    2    0    0  0.45250946925E+02  0.44243906626E+02  0.17187463000E+02  0.14115799784E+03  0.12500000000E+03 0.  0.
         25    1    1    2    0    0 -0.73143910719E+02  0.18817748000E+02 -0.20026300781E+03  0.24785966112E+03  0.12500000000E+03 0.  0.
         25    1    1    2    0    0  0.27892963794E+02 -0.63061654626E+02 -0.17478266803E+03  0.22567403651E+03  0.12500000000E+03 0.  0.
</event>
<event>
 5    0  0.5547141E-005  0.2713586E+03  0.7546771E-02  0.1100505E+00
         21   -1    0    0  502  501  0.00000000000E+00  0.00000000000E+00  0.19175397175E+03  0.19175397175E+03  0.00000000000E+00 0. -1.
         21   -1    0    0  501  502 -0.00000000000E+00 -0.00000000000E+00 -0.38401015970E+03  0.38401015970E+03  0.00000000000E+00 0. -1.
         25    1    1    2    0    0 -0.13002177859E+02 -0.10938631983E+03 -0.17815732083E+03  0.24392510031E+03  0.12500000000E+03 0.  0.
         25    1    1    2    0    0  0.36955102031E+02  0.28766264940E+02  0.78637190341E+02  0.15492574115E+03  0.12500000000E+03 0.  0.
         25    1    1    2    0    0 -0.23952924173E+02  0.80620054889E+02 -0.92736057455E+02  0.17691329000E+03  0.12500000000E+03 0.  0.
</event>
<event>
 5    0  0.5547141E-005  0.2680063E+03  0.7546771E-02  0.1102426E+00
         21   -1    0    0  502  501  0.00000000000E+00  0.00000000000E+00  0.88104699343E+02  0.88104699343E+02  0.00000000000E+00 0. -1.
         21   -1    0    0  501  502 -0.00000000000E+00 -0.00000000000E+00 -0.81525050153E+03  0.81525050153E+03  0.00000000000E+00 0. -1.
         25    1    1    2    0    0  0.40203744207E+02  0.98013756834E+02 -0.11191798757E+03  0.19842800589E+03  0.12500000000E+03 0.  0.
         25    1    1    2    0    0 -0.10292762810E+03  0.17312245161E+02 -0.29066055420E+03  0.33317017908E+03  0.12500000000E+03 0.  0.
         25    1    1    2    0    0  0.62723883891E+02 -0.11532600200E+03 -0.32456726041E+03  0.37175701591E+03  0.12500000000E+03 0.  0.
</event>
<event>
 5    0  0.5547141E-005  0.3041153E+03  0.7546771E-02  0.1083201E+00
         21   -1    0    0  502  501  0.00000000000E+00  0.00000000000E+00  0.84226184353E+03  0.84226184353E+03  0.00000000000E+00 0. -1.
         21   -1    0    0  501  502 -0.00000000000E+00 -0.00000000000E+00 -0.10980688109E+03  0.10980688109E+03  0.00000000000E+00 0. -1.
         25    1    1    2    0    0  0.88416835045E+02  0.11441178268E+03  0.29622945908E+03  0.35254004760E+03  0.12500000000E+03 0.  0.
         25    1    1    2    0    0  0.70157577900E+02 -0.14838188114E+03  0.22833396805E+03  0.30773473862E+03  0.12500000000E+03 0.  0.
         25    1    1    2    0    0 -0.15857441294E+03  0.33970098463E+02  0.20789153530E+03  0.29179393839E+03  0.12500000000E+03 0.  0.
</event>
<event>
 5    0  0.5547141E-005  0.3219565E+03  0.7546771E-02  0.1074752E+00
         21   -1    0    0  502  501  0.00000000000E+00  0.00000000000E+00  0.29291868856E+03  0.29291868856E+03  0.00000000000E+00 0.  1.
         21   -1    0    0  501  502 -0.00000000000E+00 -0.00000000000E+00 -0.35387294589E+03  0.35387294589E+03  0.00000000000E+00 0.  1.
         25    1    1    2    0    0  0.60746687065E+02  0.87449736740E+02  0.10413115583E+02  0.16453282171E+03  0.12500000000E+03 0.  0.
         25    1    1    2    0    0 -0.15261240734E+03 -0.12785690242E+03  0.92867186295E+02  0.25275927018E+03  0.12500000000E+03 0.  0.
         25    1    1    2    0    0  0.91865720274E+02  0.40407165678E+02 -0.16423455921E+03  0.22949954257E+03  0.12500000000E+03 0.  0.
</event>
<event>
 5    0  0.5547141E-005  0.4228148E+03  0.7546771E-02  0.1036154E+00
         21   -1    0    0  502  501  0.00000000000E+00  0.00000000000E+00  0.73920126423E+03  0.73920126423E+03  0.00000000000E+00 0.  1.
         21   -1    0    0  501  502 -0.00000000000E+00 -0.00000000000E+00 -0.24184535370E+03  0.24184535370E+03  0.00000000000E+00 0.  1.
         25    1    1    2    0    0  0.14566136531E+03  0.30642271904E+03  0.18189188517E+03  0.40474902592E+03  0.12500000000E+03 0.  0.
         25    1    1    2    0    0  0.16469762071E+02 -0.20952949396E+02  0.11443871917E+03  0.17155611209E+03  0.12500000000E+03 0.  0.
         25    1    1    2    0    0 -0.16213112738E+03 -0.28546976964E+03  0.20102530619E+03  0.40474147993E+03  0.12500000000E+03 0.  0.
</event>
<event>
 5    0  0.5547141E-005  0.2467896E+03  0.7546771E-02  0.1115351E+00
         21   -1    0    0  502  501  0.00000000000E+00  0.00000000000E+00  0.31224793584E+02  0.31224793584E+02  0.00000000000E+00 0.  1.
         21   -1    0    0  501  502 -0.00000000000E+00 -0.00000000000E+00 -0.19505360641E+04  0.19505360641E+04  0.00000000000E+00 0.  1.
         25    1    1    2    0    0 -0.49178852615E+02 -0.18324379440E+02 -0.20495478192E+03  0.24573523365E+03  0.12500000000E+03 0.  0.
         25    1    1    2    0    0  0.36914054999E+02  0.67188623949E+01 -0.11694924327E+04  0.11767520302E+04  0.12500000000E+03 0.  0.
         25    1    1    2    0    0  0.12264797616E+02  0.11605517045E+02 -0.54486405587E+03  0.55927359375E+03  0.12500000000E+03 0.  0.
</event>
<event>
 5    0  0.5547141E-005  0.5906970E+03  0.7546771E-02  0.9924897E-01
         21   -1    0    0  502  501  0.00000000000E+00  0.00000000000E+00  0.79939351073E+03  0.79939351073E+03  0.00000000000E+00 0.  1.
         21   -1    0    0  501  502 -0.00000000000E+00 -0.00000000000E+00 -0.43648456357E+03  0.43648456357E+03  0.00000000000E+00 0.  1.
         25    1    1    2    0    0 -0.14300141956E+03 -0.34502064631E+03 -0.15362989384E+03  0.42274791147E+03  0.12500000000E+03 0.  0.
         25    1    1    2    0    0  0.10554398511E+03  0.19459694019E+03  0.55486951817E+03  0.61033817193E+03  0.12500000000E+03 0.  0.
         25    1    1    2    0    0  0.37457434450E+02  0.15042370612E+03 -0.38330677170E+02  0.20279199090E+03  0.12500000000E+03 0.  0.
</event>
<event>
 5    0  0.5547141E-005  0.4137011E+03  0.7546771E-02  0.1039136E+00
         21   -1    0    0  502  501  0.00000000000E+00  0.00000000000E+00  0.12131341596E+04  0.12131341596E+04  0.00000000000E+00 0.  1.
         21   -1    0    0  501  502 -0.00000000000E+00 -0.00000000000E+00 -0.14107968804E+03  0.14107968804E+03  0.00000000000E+00 0.  1.
         25    1    1    2    0    0 -0.38953220688E+02 -0.12593565421E+03 -0.40169259875E+02  0.18605298127E+03  0.12500000000E+03 0.  0.
         25    1    1    2    0    0  0.10950927367E+03  0.42390563814E+02  0.37344871871E+03  0.41094791206E+03  0.12500000000E+03 0.  0.
         25    1    1    2    0    0 -0.70556052984E+02  0.83545090391E+02  0.73877501275E+03  0.75721295433E+03  0.12500000000E+03 0.  0.
</event>
<event>
 5    0  0.5547141E-005  0.3596965E+03  0.7546771E-02  0.1058704E+00
         21   -1    0    0  502  501  0.00000000000E+00  0.00000000000E+00  0.12417952490E+03  0.12417952490E+03  0.00000000000E+00 0.  1.
         21   -1    0    0  501  502 -0.00000000000E+00 -0.00000000000E+00 -0.10418915258E+04  0.10418915258E+04  0.00000000000E+00 0.  1.
         25    1    1    2    0    0  0.20087081604E+03 -0.91271211642E+02 -0.19114834951E+03  0.31755662540E+03  0.12500000000E+03 0.  0.
         25    1    1    2    0    0  0.53370721206E+02  0.62625671634E+02 -0.19878504197E+03  0.24881901362E+03  0.12500000000E+03 0.  0.
         25    1    1    2    0    0 -0.25424153725E+03  0.28645540008E+02 -0.52777860946E+03  0.59969541172E+03  0.12500000000E+03 0.  0.
</event>
<event>
 5    0  0.5547141E-005  0.3978611E+03  0.7546771E-02  0.1044523E+00
         21   -1    0    0  502  501  0.00000000000E+00  0.00000000000E+00  0.21864955601E+03  0.21864955601E+03  0.00000000000E+00 0. -1.
         21   -1    0    0  501  502 -0.00000000000E+00 -0.00000000000E+00 -0.72395964494E+03  0.72395964494E+03  0.00000000000E+00 0. -1.
         25    1    1    2    0    0 -0.30726508223E+02 -0.10117203946E+03 -0.36404128421E+03  0.39916281952E+03  0.12500000000E+03 0.  0.
         25    1    1    2    0    0  0.26768845118E+02 -0.17719861636E+03 -0.76282347588E+02  0.23143015634E+03  0.12500000000E+03 0.  0.
         25    1    1    2    0    0  0.39576631048E+01  0.27837065582E+03 -0.64986457131E+02  0.31201622510E+03  0.12500000000E+03 0.  0.
</event>
<event>
 5    0  0.5547141E-005  0.3111729E+03  0.7546771E-02  0.1079785E+00
         21   -1    0    0  502  501  0.00000000000E+00  0.00000000000E+00  0.22480086764E+03  0.22480086764E+03  0.00000000000E+00 0.  1.
         21   -1    0    0  501  502 -0.00000000000E+00 -0.00000000000E+00 -0.43073041855E+03  0.43073041855E+03  0.00000000000E+00 0.  1.
         25    1    1    2    0    0  0.57523477917E+02 -0.20366568743E+02  0.47734850979E+02  0.14706244807E+03  0.12500000000E+03 0.  0.
         25    1    1    2    0    0 -0.18129700348E+03  0.96805682575E+02 -0.18947312594E+03  0.30621072663E+03  0.12500000000E+03 0.  0.
         25    1    1    2    0    0  0.12377352557E+03 -0.76439113832E+02 -0.64191275956E+02  0.20225811149E+03  0.12500000000E+03 0.  0.
</event>
<event>
 5    0  0.5547141E-005  0.2851608E+03  0.7546771E-02  0.1092903E+00
         21   -1    0    0  502  501  0.00000000000E+00  0.00000000000E+00  0.37461549818E+03  0.37461549818E+03  0.00000000000E+00 0.  1.
         21   -1    0    0  501  502 -0.00000000000E+00 -0.00000000000E+00 -0.21706701269E+03  0.21706701269E+03  0.00000000000E+00 0.  1.
         25    1    1    2    0    0 -0.49513879711E+02 -0.11714008719E+03  0.19237550781E+03  0.26231042739E+03  0.12500000000E+03 0.  0.
         25    1    1    2    0    0  0.26540068385E+01  0.17548281493E+02  0.57734428236E+02  0.13882813166E+03  0.12500000000E+03 0.  0.
         25    1    1    2    0    0  0.46859872872E+02  0.99591805699E+02 -0.92561450558E+02  0.19054395183E+03  0.12500000000E+03 0.  0.
</event>
<event>
 5    0  0.5547141E-005  0.6123973E+03  0.7546771E-02  0.9880014E-01
         21   -1    0    0  502  501  0.00000000000E+00  0.00000000000E+00  0.15947053849E+03  0.15947053849E+03  0.00000000000E+00 0. -1.
         21   -1    0    0  501  502 -0.00000000000E+00 -0.00000000000E+00 -0.23517223704E+04  0.23517223704E+04  0.00000000000E+00 0. -1.
         25    1    1    2    0    0 -0.35297290793E+02  0.28763890615E+03 -0.32830697362E+03  0.45540367586E+03  0.12500000000E+03 0.  0.
         25    1    1    2    0    0  0.23487967319E+03 -0.41675513307E+03 -0.67401297248E+03  0.83592570776E+03  0.12500000000E+03 0.  0.
         25    1    1    2    0    0 -0.19958238240E+03  0.12911622692E+03 -0.11899318858E+04  0.12198635252E+04  0.12500000000E+03 0.  0.
</event>
<event>
 5    0  0.5547141E-005  0.3284054E+03  0.7546771E-02  0.1071845E+00
         21   -1    0    0  502  501  0.00000000000E+00  0.00000000000E+00  0.18028021230E+04  0.18028021230E+04  0.00000000000E+00 0.  1.
         21   -1    0    0  501  502 -0.00000000000E+00 -0.00000000000E+00 -0.59823584040E+02  0.59823584040E+02  0.00000000000E+00 0.  1.
         25    1    1    2    0    0 -0.99755606062E+02 -0.20822243212E+03  0.63256385274E+03  0.68488669864E+03  0.12500000000E+03 0.  0.
         25    1    1    2    0    0 -0.21485292778E+02  0.13619060348E+03  0.37605600732E+03  0.41958624730E+03  0.12500000000E+03 0.  0.
         25    1    1    2    0    0  0.12124089884E+03  0.72031828644E+02  0.73435867891E+03  0.75815276111E+03  0.12500000000E+03 0.  0.
</event>
<event>
 5    0  0.5547141E-005  0.2928485E+03  0.7546771E-02  0.1088871E+00
         21   -1    0    0  502  501  0.00000000000E+00  0.00000000000E+00  0.26070489051E+03  0.26070489051E+03  0.00000000000E+00 0. -1.
         21   -1    0    0  501  502 -0.00000000000E+00 -0.00000000000E+00 -0.32895532596E+03  0.32895532596E+03  0.00000000000E+00 0. -1.
         25    1    1    2    0    0 -0.16707535057E+03  0.55423415213E+00 -0.13538328809E+03  0.24873301879E+03  0.12500000000E+03 0.  0.
         25    1    1    2    0    0 -0.69346943834E+00  0.13481702757E+01  0.26833948791E+02  0.12785679204E+03  0.12500000000E+03 0.  0.
         25    1    1    2    0    0  0.16776882001E+03 -0.19024044279E+01  0.40298903854E+02  0.21307040564E+03  0.12500000000E+03 0.  0.
</event>
<event>
 5    0  0.5547141E-005  0.4202163E+03  0.7546771E-02  0.1036996E+00
         21   -1    0    0  502  501  0.00000000000E+00  0.00000000000E+00  0.17552977165E+03  0.17552977165E+03  0.00000000000E+00 0. -1.
         21   -1    0    0  501  502 -0.00000000000E+00 -0.00000000000E+00 -0.10059930152E+04  0.10059930152E+04  0.00000000000E+00 0. -1.
         25    1    1    2    0    0 -0.13636939870E+02  0.13275503848E+03 -0.17320261720E+03  0.25186109857E+03  0.12500000000E+03 0.  0.
         25    1    1    2    0    0  0.18661008540E+03  0.88608304845E+02 -0.46532796097E+02  0.24589643506E+03  0.12500000000E+03 0.  0.
         25    1    1    2    0    0 -0.17297314553E+03 -0.22136334332E+03 -0.61072783022E+03  0.68376525317E+03  0.12500000000E+03 0.  0.
</event>
<event>
 5    0  0.5547141E-005  0.2239067E+03  0.7546771E-02  0.1131004E+00
         21   -1    0    0  502  501  0.00000000000E+00  0.00000000000E+00  0.42167411448E+03  0.42167411448E+03  0.00000000000E+00 0. -1.
         21   -1    0    0  501  502 -0.00000000000E+00 -0.00000000000E+00 -0.11889323784E+03  0.11889323784E+03  0.00000000000E+00 0. -1.
         25    1    1    2    0    0  0.47420594546E+02  0.52212573719E+02  0.52517676577E+02  0.15283315084E+03  0.12500000000E+03 0.  0.
         25    1    1    2    0    0 -0.49463614401E+02  0.36833984813E+02  0.14797478385E+03  0.20328533701E+03  0.12500000000E+03 0.  0.
         25    1    1    2    0    0  0.20430198553E+01 -0.89046558532E+02  0.10228841622E+03  0.18444886448E+03  0.12500000000E+03 0.  0.
</event>
<event>
 5    0  0.5547141E-005  0.3580056E+03  0.7546771E-02  0.1059376E+00
         21   -1    0    0  502  501  0.00000000000E+00  0.00000000000E+00  0.15906291707E+04  0.15906291707E+04  0.00000000000E+00 0.  1.
         21   -1    0    0  501  502 -0.00000000000E+00 -0.00000000000E+00 -0.80576924584E+02  0.80576924584E+02  0.00000000000E+00 0.  1.
         25    1    1    2    0    0  0.61797887205E+02  0.36716433661E+02  0.27745991098E+03  0.31269166532E+03  0.12500000000E+03 0.  0.
         25    1    1    2    0    0 -0.34252224973E+02  0.14905544968E+03  0.10496164200E+04  0.10680404351E+04  0.12500000000E+03 0.  0.
         25    1    1    2    0    0 -0.27545662231E+02 -0.18577188334E+03  0.18297591519E+03  0.29047399486E+03  0.12500000000E+03 0.  0.
</event>
<event>
 5    0  0.5547141E-005  0.3602455E+03  0.7546771E-02  0.1058487E+00
         21   -1    0    0  502  501  0.00000000000E+00  0.00000000000E+00  0.30615836549E+03  0.30615836549E+03  0.00000000000E+00 0. -1.
         21   -1    0    0  501  502 -0.00000000000E+00 -0.00000000000E+00 -0.42388793087E+03  0.42388793087E+03  0.00000000000E+00 0. -1.
         25    1    1    2    0    0  0.10554975147E+03  0.25662274439E+02  0.82309169503E+01  0.16580726871E+03  0.12500000000E+03 0.  0.
         25    1    1    2    0    0 -0.11756582045E+03  0.15618450566E+03  0.95920348203E+02  0.25107973862E+03  0.12500000000E+03 0.  0.
         25    1    1    2    0    0  0.12016068980E+02 -0.18184678010E+03 -0.22188083053E+03  0.31315928903E+03  0.12500000000E+03 0.  0.
</event>
<event>
 5    0  0.5547141E-005  0.2792686E+03  0.7546771E-02  0.1096089E+00
         21   -1    0    0  502  501  0.00000000000E+00  0.00000000000E+00  0.38707895247E+02  0.38707895247E+02  0.00000000000E+00 0. -1.
         21   -1    0    0  501  502 -0.00000000000E+00 -0.00000000000E+00 -0.20148584887E+04  0.20148584887E+04  0.00000000000E+00 0. -1.
         25    1    1    2    0    0 -0.42513996695E+02  0.13996787270E+03 -0.50882761713E+03  0.54399355627E+03  0.12500000000E+03 0.  0.
         25    1    1    2    0    0 -0.29453316476E+01  0.64971214366E+01 -0.29194718545E+03  0.31766184325E+03  0.12500000000E+03 0.  0.
         25    1    1    2    0    0  0.45459328342E+02 -0.14646499413E+03 -0.11753757909E+04  0.11919109844E+04  0.12500000000E+03 0.  0.
</event>
<event>
 5    0  0.5547141E-005  0.2756790E+03  0.7546771E-02  0.1098073E+00
         21   -1    0    0  502  501  0.00000000000E+00  0.00000000000E+00  0.96773933015E+03  0.96773933015E+03  0.00000000000E+00 0.  1.
         21   -1    0    0  501  502 -0.00000000000E+00 -0.00000000000E+00 -0.78532437054E+02  0.78532437054E+02  0.00000000000E+00 0.  1.
         25    1    1    2    0    0 -0.71566323014E+02  0.32350713147E+02  0.19996525838E+03  0.24855464548E+03  0.12500000000E+03 0.  0.
         25    1    1    2    0    0  0.99196018892E+02 -0.15043746575E+03  0.46200117831E+03  0.51141115556E+03  0.12500000000E+03 0.  0.
         25    1    1    2    0    0 -0.27629695878E+02  0.11808675261E+03  0.22724045640E+03  0.28630596616E+03  0.12500000000E+03 0.  0.
</event>
<event>
 5    0  0.5547141E-005  0.3289402E+03  0.7546771E-02  0.1071607E+00
         21   -1    0    0  502  501  0.00000000000E+00  0.00000000000E+00  0.15715810491E+04  0.15715810491E+04  0.00000000000E+00 0.  1.
         21   -1    0    0  501  502 -0.00000000000E+00 -0.00000000000E+00 -0.68848924702E+02  0.68848924702E+02  0.00000000000E+00 0.  1.
         25    1    1    2    0    0 -0.17222248433E+03  0.17867448338E+03  0.53717467952E+03  0.60478656685E+03  0.12500000000E+03 0.  0.
         25    1    1    2    0    0  0.92261011677E+02 -0.19850864760E+02  0.43170220165E+03  0.45923625947E+03  0.12500000000E+03 0.  0.
         25    1    1    2    0    0  0.79961472657E+02 -0.15882361862E+03  0.53385524322E+03  0.57640714747E+03  0.12500000000E+03 0.  0.
</event>
<event>
 5    0  0.5547141E-005  0.2959036E+03  0.7546771E-02  0.1087306E+00
         21   -1    0    0  502  501  0.00000000000E+00  0.00000000000E+00  0.51148217653E+02  0.51148217653E+02  0.00000000000E+00 0. -1.
         21   -1    0    0  501  502 -0.00000000000E+00 -0.00000000000E+00 -0.17118668344E+04  0.17118668344E+04  0.00000000000E+00 0. -1.
         25    1    1    2    0    0  0.71823298609E+01 -0.12613941738E+03 -0.56182652319E+03  0.58926800408E+03  0.12500000000E+03 0.  0.
         25    1    1    2    0    0 -0.13172227568E+03  0.99126698069E+02 -0.79334720144E+03  0.81987904121E+03  0.12500000000E+03 0.  0.
         25    1    1    2    0    0  0.12453994582E+03  0.27012719313E+02 -0.30554489211E+03  0.35386800676E+03  0.12500000000E+03 0.  0.
</event>
<event>
 5    0  0.5547141E-005  0.3427737E+03  0.7546771E-02  0.1065621E+00
         21   -1    0    0  502  501  0.00000000000E+00  0.00000000000E+00  0.76706278644E+03  0.76706278644E+03  0.00000000000E+00 0. -1.
         21   -1    0    0  501  502 -0.00000000000E+00 -0.00000000000E+00 -0.15317364110E+03  0.15317364110E+03  0.00000000000E+00 0. -1.
         25    1    1    2    0    0  0.23948415879E+03 -0.76508794236E+02  0.24932424895E+03  0.37549146332E+03  0.12500000000E+03 0.  0.
         25    1    1    2    0    0 -0.22263544544E+03  0.10217891272E+03  0.22978471487E+03  0.35837562272E+03  0.12500000000E+03 0.  0.
         25    1    1    2    0    0 -0.16848713351E+02 -0.25670118483E+02  0.13478018151E+03  0.18636934150E+03  0.12500000000E+03 0.  0.
</event>
<event>
 5    0  0.5547141E-005  0.3699228E+03  0.7546771E-02  0.1054722E+00
         21   -1    0    0  502  501  0.00000000000E+00  0.00000000000E+00  0.23227083910E+03  0.23227083910E+03  0.00000000000E+00 0. -1.
         21   -1    0    0  501  502 -0.00000000000E+00 -0.00000000000E+00 -0.58915216331E+03  0.58915216331E+03  0.00000000000E+00 0. -1.
         25    1    1    2    0    0  0.43288915851E+02 -0.26851242361E+03 -0.21420530762E+03  0.36807847761E+03  0.12500000000E+03 0.  0.
         25    1    1    2    0    0  0.31979015590E+02  0.11424282904E+03  0.35735026361E+02  0.17600020891E+03  0.12500000000E+03 0.  0.
         25    1    1    2    0    0 -0.75267931440E+02  0.15426959456E+03 -0.17841104296E+03  0.27734431590E+03  0.12500000000E+03 0.  0.
</event>
<event>
 5    0  0.5547141E-005  0.2712705E+03  0.7546771E-02  0.1100555E+00
         21   -1    0    0  502  501  0.00000000000E+00  0.00000000000E+00  0.63750914045E+03  0.63750914045E+03  0.00000000000E+00 0.  1.
         21   -1    0    0  501  502 -0.00000000000E+00 -0.00000000000E+00 -0.11542997920E+03  0.11542997920E+03  0.00000000000E+00 0.  1.
         25    1    1    2    0    0 -0.17467026133E+01  0.11444778307E+03  0.19107881301E+03  0.25541624616E+03  0.12500000000E+03 0.  0.
         25    1    1    2    0    0 -0.45463066213E+02  0.54198888244E+02  0.19786767536E+03  0.24450158860E+03  0.12500000000E+03 0.  0.
         25    1    1    2    0    0  0.47209768826E+02 -0.16864667132E+03  0.13313267288E+03  0.25302128489E+03  0.12500000000E+03 0.  0.
</event>
<event>
 5    0  0.5547141E-005  0.2193168E+03  0.7546771E-02  0.1134393E+00
         21   -1    0    0  502  501  0.00000000000E+00  0.00000000000E+00  0.56767343460E+02  0.56767343460E+02  0.00000000000E+00 0. -1.
         21   -1    0    0  501  502 -0.00000000000E+00 -0.00000000000E+00 -0.84731529522E+03  0.84731529522E+03  0.00000000000E+00 0. -1.
         25    1    1    2    0    0 -0.37268343459E+02 -0.32689840745E+00 -0.19807343477E+03  0.23716475676E+03  0.12500000000E+03 0.  0.
         25    1    1    2    0    0  0.37682360117E+02  0.44622005401E+02 -0.14477576603E+03  0.19999026491E+03  0.12500000000E+03 0.  0.
         25    1    1    2    0    0 -0.41401665754E+00 -0.44295106993E+02 -0.44769875096E+03  0.46692761701E+03  0.12500000000E+03 0.  0.
</event>
<event>
 5    0  0.5547141E-005  0.2250440E+03  0.7546771E-02  0.1130177E+00
         21   -1    0    0  502  501  0.00000000000E+00  0.00000000000E+00  0.15667697674E+03  0.15667697674E+03  0.00000000000E+00 0. -1.
         21   -1    0    0  501  502 -0.00000000000E+00 -0.00000000000E+00 -0.32324355971E+03  0.32324355971E+03  0.00000000000E+00 0. -1.
         25    1    1    2    0    0 -0.23964320297E+02  0.43532705495E+02 -0.58531824250E+02  0.14669819203E+03  0.12500000000E+03 0.  0.
         25    1    1    2    0    0  0.67116762572E+02  0.46478726466E+02 -0.19999953685E+02  0.15063176949E+03  0.12500000000E+03 0.  0.
         25    1    1    2    0    0 -0.43152442274E+02 -0.90011431961E+02 -0.88034805033E+02  0.18259057493E+03  0.12500000000E+03 0.  0.
</event>
<event>
 5    0  0.5547141E-005  0.3733913E+03  0.7546771E-02  0.1053404E+00
         21   -1    0    0  502  501  0.00000000000E+00  0.00000000000E+00  0.82384297909E+03  0.82384297909E+03  0.00000000000E+00 0. -1.
         21   -1    0    0  501  502 -0.00000000000E+00 -0.00000000000E+00 -0.16923253109E+03  0.16923253109E+03  0.00000000000E+00 0.  1.
         25    1    1    2    0    0 -0.21450103821E+03  0.43442438061E+02  0.81976557692E+02  0.26503414276E+03  0.12500000000E+03 0.  0.
         25    1    1    2    0    0  0.24329040217E+03 -0.75880250792E+02  0.50533157197E+03  0.57959729975E+03  0.12500000000E+03 0.  0.
         25    1    1    2    0    0 -0.28789363962E+02  0.32437812731E+02  0.67302318338E+02  0.14844406767E+03  0.12500000000E+03 0.  0.
</event>
<event>
 5    0  0.5547141E-005  0.3379749E+03  0.7546771E-02  0.1067662E+00
         21   -1    0    0  502  501  0.00000000000E+00  0.00000000000E+00  0.77798075950E+02  0.77798075950E+02  0.00000000000E+00 0.  1.
         21   -1    0    0  501  502 -0.00000000000E+00 -0.00000000000E+00 -0.14682500637E+04  0.14682500637E+04  0.00000000000E+00 0.  1.
         25    1    1    2    0    0  0.77838210980E+02 -0.30472829587E+01 -0.52882058398E+03  0.54894834280E+03  0.12500000000E+03 0.  0.
         25    1    1    2    0    0 -0.24162974007E+03 -0.63384828206E+02 -0.56024460266E+03  0.62602043300E+03  0.12500000000E+03 0.  0.
         25    1    1    2    0    0  0.16379152909E+03  0.66432111165E+02 -0.30138680116E+03  0.37107936389E+03  0.12500000000E+03 0.  0.
</event>
<event>
 5    0  0.5547141E-005  0.3593405E+03  0.7546771E-02  0.1058845E+00
         21   -1    0    0  502  501  0.00000000000E+00  0.00000000000E+00  0.49133437487E+03  0.49133437487E+03  0.00000000000E+00 0.  1.
         21   -1    0    0  501  502 -0.00000000000E+00 -0.00000000000E+00 -0.26280588922E+03  0.26280588922E+03  0.00000000000E+00 0.  1.
         25    1    1    2    0    0 -0.23946271186E+03 -0.32463183174E+02  0.20320327759E+03  0.33957741483E+03  0.12500000000E+03 0.  0.
         25    1    1    2    0    0  0.21390091167E+03 -0.38376249911E+02  0.72873682772E+02  0.26107836029E+03  0.12500000000E+03 0.  0.
         25    1    1    2    0    0  0.25561800196E+02  0.70839433085E+02 -0.47548474721E+02  0.15348448898E+03  0.12500000000E+03 0.  0.
</event>
<event>
 5    0  0.5547141E-005  0.3918469E+03  0.7546771E-02  0.1046640E+00
         21   -1    0    0  502  501  0.00000000000E+00  0.00000000000E+00  0.42632512538E+03  0.42632512538E+03  0.00000000000E+00 0.  1.
         21   -1    0    0  501  502 -0.00000000000E+00 -0.00000000000E+00 -0.36015700275E+03  0.36015700275E+03  0.00000000000E+00 0.  1.
         25    1    1    2    0    0 -0.14407312616E+03 -0.11581098631E+03  0.97292844399E+02  0.24343407280E+03  0.12500000000E+03 0.  0.
         25    1    1    2    0    0  0.28200630910E+03  0.80635804998E+02 -0.11079566244E+03  0.33753573179E+03  0.12500000000E+03 0.  0.
         25    1    1    2    0    0 -0.13793318294E+03  0.35175181307E+02  0.79670940676E+02  0.20551232354E+03  0.12500000000E+03 0.  0.
</event>
<event>
 5    0  0.5684766E-005  0.2824356E+03  0.7546771E-02  0.1094366E+00
         21   -1    0    0  502  501  0.00000000000E+00  0.00000000000E+00  0.12885643985E+03  0.12885643985E+03  0.00000000000E+00 0.  1.
         21   -1    0    0  501  502 -0.00000000000E+00 -0.00000000000E+00 -0.61905996451E+03  0.61905996451E+03  0.00000000000E+00 0.  1.
         25    1    1    2    0    0  0.50213630676E+02  0.30868632188E+02 -0.28207884037E+03  0.31411423614E+03  0.12500000000E+03 0.  0.
         25    1    1    2    0    0  0.18601250667E+02 -0.93336568618E+02  0.19152635195E+02  0.15827048052E+03  0.12500000000E+03 0.  0.
         25    1    1    2    0    0 -0.68814881343E+02  0.62467936430E+02 -0.22727731949E+03  0.27553168770E+03  0.12500000000E+03 0.  0.
</event>
<event>
 5    0  0.5547141E-005  0.2537079E+03  0.7546771E-02  0.1110984E+00
         21   -1    0    0  502  501  0.00000000000E+00  0.00000000000E+00  0.58459093214E+03  0.58459093214E+03  0.00000000000E+00 0.  1.
         21   -1    0    0  501  502 -0.00000000000E+00 -0.00000000000E+00 -0.11010723712E+03  0.11010723712E+03  0.00000000000E+00 0.  1.
         25    1    1    2    0    0 -0.11203380025E+03 -0.86993321327E+02  0.28200089409E+03  0.33951276061E+03  0.12500000000E+03 0.  0.
         25    1    1    2    0    0  0.30955988384E+02  0.25663141899E+02  0.51346637265E+02  0.14099059269E+03  0.12500000000E+03 0.  0.
         25    1    1    2    0    0  0.81077811864E+02  0.61330179428E+02  0.14113616367E+03  0.21419481595E+03  0.12500000000E+03 0.  0.
</event>
<event>
 5    0  0.5547141E-005  0.3585549E+03  0.7546771E-02  0.1059158E+00
         21   -1    0    0  502  501  0.00000000000E+00  0.00000000000E+00  0.41874239383E+03  0.41874239383E+03  0.00000000000E+00 0. -1.
         21   -1    0    0  501  502 -0.00000000000E+00 -0.00000000000E+00 -0.30701847091E+03  0.30701847091E+03  0.00000000000E+00 0. -1.
         25    1    1    2    0    0  0.13732464006E+02 -0.98208521252E+02  0.29885899240E+02  0.16233194753E+03  0.12500000000E+03 0.  0.
         25    1    1    2    0    0  0.46271782629E+02  0.46148039634E+02  0.28148209327E+03  0.31484581665E+03  0.12500000000E+03 0.  0.
         25    1    1    2    0    0 -0.60004246635E+02  0.52060481617E+02 -0.19964406960E+03  0.24858310057E+03  0.12500000000E+03 0.  0.
</event>
<event>
 5    0  0.5547141E-005  0.4022542E+03  0.7546771E-02  0.1043002E+00
         21   -1    0    0  502  501  0.00000000000E+00  0.00000000000E+00  0.70834475817E+02  0.70834475817E+02  0.00000000000E+00 0.  1.
         21   -1    0    0  501  502 -0.00000000000E+00 -0.00000000000E+00 -0.22843177490E+04  0.22843177490E+04  0.00000000000E+00 0.  1.
         25    1    1    2    0    0 -0.75979541483E+02  0.25079993049E+01 -0.98495566422E+03  0.99576194005E+03  0.12500000000E+03 0.  0.
         25    1    1    2    0    0 -0.50550546605E+02 -0.17650834375E+03 -0.19257030604E+03  0.29397087602E+03  0.12500000000E+03 0.  0.
         25    1    1    2    0    0  0.12653008809E+03  0.17400034445E+03 -0.10359573029E+04  0.10654194088E+04  0.12500000000E+03 0.  0.
</event>
<event>
 5    0  0.5547141E-005  0.4864672E+03  0.7546771E-02  0.1017373E+00
         21   -1    0    0  502  501  0.00000000000E+00  0.00000000000E+00  0.12722841445E+04  0.12722841445E+04  0.00000000000E+00 0. -1.
         21   -1    0    0  501  502 -0.00000000000E+00 -0.00000000000E+00 -0.18600428346E+03  0.18600428346E+03  0.00000000000E+00 0.  1.
         25    1    1    2    0    0  0.84912991608E+01  0.11448737764E+02  0.77258353001E+01  0.12604707172E+03  0.12500000000E+03 0.  0.
         25    1    1    2    0    0  0.31829151233E+03 -0.66147973798E+02  0.82849280138E+03  0.89872707938E+03  0.12500000000E+03 0.  0.
         25    1    1    2    0    0 -0.32678281149E+03  0.54699236034E+02  0.25006122434E+03  0.43351427684E+03  0.12500000000E+03 0.  0.
</event>
<event>
 5    0  0.5547141E-005  0.2295909E+03  0.7546771E-02  0.1126928E+00
         21   -1    0    0  502  501  0.00000000000E+00  0.00000000000E+00  0.14793208469E+03  0.14793208469E+03  0.00000000000E+00 0. -1.
         21   -1    0    0  501  502 -0.00000000000E+00 -0.00000000000E+00 -0.35632557477E+03  0.35632557477E+03  0.00000000000E+00 0. -1.
         25    1    1    2    0    0 -0.64223961261E+02  0.43787017946E+02 -0.16902620520E+03  0.22413584762E+03  0.12500000000E+03 0.  0.
         25    1    1    2    0    0  0.77073716072E+02 -0.10516993858E+02 -0.25114049839E+02  0.14935421108E+03  0.12500000000E+03 0.  0.
         25    1    1    2    0    0 -0.12849754810E+02 -0.33270024088E+02 -0.14253235038E+02  0.13076760077E+03  0.12500000000E+03 0.  0.
</event>
<event>
 5    0  0.5547141E-005  0.2931953E+03  0.7546771E-02  0.1088693E+00
         21   -1    0    0  502  501  0.00000000000E+00  0.00000000000E+00  0.85726436669E+02  0.85726436669E+02  0.00000000000E+00 0. -1.
         21   -1    0    0  501  502 -0.00000000000E+00 -0.00000000000E+00 -0.10027650858E+04  0.10027650858E+04  0.00000000000E+00 0. -1.
         25    1    1    2    0    0 -0.17997331397E+02  0.12470842308E+02  0.64525686487E+01  0.12706715346E+03  0.12500000000E+03 0.  0.
         25    1    1    2    0    0  0.18783263823E+02 -0.43749397686E+02 -0.37959407124E+03  0.40247171295E+03  0.12500000000E+03 0.  0.
         25    1    1    2    0    0 -0.78593242548E+00  0.31278555378E+02 -0.54389714655E+03  0.55895265608E+03  0.12500000000E+03 0.  0.
</event>
<event>
 5    0  0.5547141E-005  0.2873257E+03  0.7546771E-02  0.1091754E+00
         21   -1    0    0  502  501  0.00000000000E+00  0.00000000000E+00  0.17080021917E+03  0.17080021917E+03  0.00000000000E+00 0.  1.
         21   -1    0    0  501  502 -0.00000000000E+00 -0.00000000000E+00 -0.48334860057E+03  0.48334860057E+03  0.00000000000E+00 0.  1.
         25    1    1    2    0    0  0.15317504513E+03  0.69058675745E+02 -0.15858293980E+03  0.26268849222E+03  0.12500000000E+03 0.  0.
         25    1    1    2    0    0 -0.17132883776E+02  0.68477705519E+01 -0.14385775328E+03  0.19146926867E+03  0.12500000000E+03 0.  0.
         25    1    1    2    0    0 -0.13604216135E+03 -0.75906446297E+02 -0.10107688314E+02  0.19999105885E+03  0.12500000000E+03 0.  0.
</event>
<event>
 5    0  0.5547141E-005  0.2149869E+03  0.7546771E-02  0.1137677E+00
         21   -1    0    0  502  501  0.00000000000E+00  0.00000000000E+00  0.17164650597E+03  0.17164650597E+03  0.00000000000E+00 0.  1.
         21   -1    0    0  501  502 -0.00000000000E+00 -0.00000000000E+00 -0.26927066044E+03  0.26927066044E+03  0.00000000000E+00 0.  1.
         25    1    1    2    0    0  0.52968656293E+01 -0.48784275021E+02 -0.71614332818E+02  0.15218927341E+03  0.12500000000E+03 0.  0.
         25    1    1    2    0    0  0.55508269019E+02  0.25226132999E+02  0.19812858861E+02  0.14048158275E+03  0.12500000000E+03 0.  0.
         25    1    1    2    0    0 -0.60805134648E+02  0.23558142022E+02 -0.45822680509E+02  0.14824631025E+03  0.12500000000E+03 0.  0.
</event>
<event>
 5    0  0.5547141E-005  0.4778718E+03  0.7546771E-02  0.1019722E+00
         21   -1    0    0  502  501  0.00000000000E+00  0.00000000000E+00  0.15402442853E+03  0.15402442853E+03  0.00000000000E+00 0.  1.
         21   -1    0    0  501  502 -0.00000000000E+00 -0.00000000000E+00 -0.14826316316E+04  0.14826316316E+04  0.00000000000E+00 0.  1.
         25    1    1    2    0    0  0.37887324952E+02 -0.39715236694E+03 -0.62071537492E+03  0.74838361060E+03  0.12500000000E+03 0.  0.
         25    1    1    2    0    0  0.72299108544E+02  0.32372480609E+03 -0.46447111811E+03  0.58428018171E+03  0.12500000000E+03 0.  0.
         25    1    1    2    0    0 -0.11018643350E+03  0.73427560845E+02 -0.24342071005E+03  0.30399226783E+03  0.12500000000E+03 0.  0.
</event>
<event>
 5    0  0.5547141E-005  0.3084413E+03  0.7546771E-02  0.1081095E+00
         21   -1    0    0  502  501  0.00000000000E+00  0.00000000000E+00  0.12989917792E+04  0.12989917792E+04  0.00000000000E+00 0. -1.
         21   -1    0    0  501  502 -0.00000000000E+00 -0.00000000000E+00 -0.73238372299E+02  0.73238372299E+02  0.00000000000E+00 0. -1.
         25    1    1    2    0    0 -0.15206565598E+02 -0.30391222509E+02  0.17770614822E+03  0.21990757412E+03  0.12500000000E+03 0.  0.
         25    1    1    2    0    0 -0.14770961919E+03 -0.21315840507E+02  0.20344698188E+03  0.28158155319E+03  0.12500000000E+03 0.  0.
         25    1    1    2    0    0  0.16291618479E+03  0.51707063017E+02  0.84460027677E+03  0.87074102416E+03  0.12500000000E+03 0.  0.
</event>
<event>
 5    0  0.5547141E-005  0.4086162E+03  0.7546771E-02  0.1040836E+00
         21   -1    0    0  502  501  0.00000000000E+00  0.00000000000E+00  0.44119252915E+03  0.44119252915E+03  0.00000000000E+00 0.  1.
         21   -1    0    0  501  502 -0.00000000000E+00 -0.00000000000E+00 -0.37844517337E+03  0.37844517337E+03  0.00000000000E+00 0.  1.
         25    1    1    2    0    0  0.50487399125E+02  0.23875322380E+03  0.13186392733E+03  0.30424525416E+03  0.12500000000E+03 0.  0.
         25    1    1    2    0    0  0.70366812656E+02 -0.28800511361E+02 -0.17039219052E+03  0.22458730233E+03  0.12500000000E+03 0.  0.
         25    1    1    2    0    0 -0.12085421178E+03 -0.20995271244E+03  0.10127561897E+03  0.29080514604E+03  0.12500000000E+03 0.  0.
</event>
<event>
 5    0  0.5547141E-005  0.3067031E+03  0.7546771E-02  0.1081937E+00
         21   -1    0    0  502  501  0.00000000000E+00  0.00000000000E+00  0.14108860969E+04  0.14108860969E+04  0.00000000000E+00 0.  1.
         21   -1    0    0  501  502 -0.00000000000E+00 -0.00000000000E+00 -0.66672138332E+02  0.66672138332E+02  0.00000000000E+00 0.  1.
         25    1    1    2    0    0 -0.19252077154E+02  0.80383203418E+02  0.14703406083E+03  0.20994312780E+03  0.12500000000E+03 0.  0.
         25    1    1    2    0    0  0.14535922280E+03  0.70882751122E+01  0.36646106466E+03  0.41364025337E+03  0.12500000000E+03 0.  0.
         25    1    1    2    0    0 -0.12610714564E+03 -0.87471478530E+02  0.83071883313E+03  0.85397485411E+03  0.12500000000E+03 0.  0.
</event>
<event>
 5    0  0.5547141E-005  0.3304397E+03  0.7546771E-02  0.1070942E+00
         21   -1    0    0  502  501  0.00000000000E+00  0.00000000000E+00  0.26283940650E+03  0.26283940650E+03  0.00000000000E+00 0.  1.
         21   -1    0    0  501  502 -0.00000000000E+00 -0.00000000000E+00 -0.41542637208E+03  0.41542637208E+03  0.00000000000E+00 0.  1.
         25    1    1    2    0    0  0.57000475543E+02 -0.10335870470E+03 -0.11755793623E+03  0.20827132404E+03  0.12500000000E+03 0.  0.
         25    1    1    2    0    0 -0.11726600644E+03  0.17354193899E+03  0.10041384639E+03  0.26377274575E+03  0.12500000000E+03 0.  0.
         25    1    1    2    0    0  0.60265530893E+02 -0.70183234287E+02 -0.13544287574E+03  0.20622170879E+03  0.12500000000E+03 0.  0.
</event>
<event>
 5    0  0.5547141E-005  0.1969794E+03  0.7546771E-02  0.1152313E+00
         21   -1    0    0  502  501  0.00000000000E+00  0.00000000000E+00  0.34775315780E+03  0.34775315780E+03  0.00000000000E+00 0. -1.
         21   -1    0    0  501  502 -0.00000000000E+00 -0.00000000000E+00 -0.11157593502E+03  0.11157593502E+03  0.00000000000E+00 0. -1.
         25    1    1    2    0    0  0.13241294907E+01  0.22832743783E+02  0.55510478082E+02  0.13867047517E+03  0.12500000000E+03 0.  0.
         25    1    1    2    0    0 -0.90930506505E+01  0.29399694742E+02  0.97694963810E+02  0.16160548127E+03  0.12500000000E+03 0.  0.
         25    1    1    2    0    0  0.77689211598E+01 -0.52232438525E+02  0.82971780879E+02  0.15905313638E+03  0.12500000000E+03 0.  0.
</event>
<event>
 5    0  0.5547141E-005  0.2986360E+03  0.7546771E-02  0.1085924E+00
         21   -1    0    0  502  501  0.00000000000E+00  0.00000000000E+00  0.32442871106E+03  0.32442871106E+03  0.00000000000E+00 0.  1.
         21   -1    0    0  501  502 -0.00000000000E+00 -0.00000000000E+00 -0.27489377370E+03  0.27489377370E+03  0.00000000000E+00 0.  1.
         25    1    1    2    0    0  0.22049530147E+01  0.75172698499E+02  0.19970049891E+03  0.24730767413E+03  0.12500000000E+03 0.  0.
         25    1    1    2    0    0 -0.85303276593E+01 -0.70647649005E+02  0.15131179732E+02  0.14462990493E+03  0.12500000000E+03 0.  0.
         25    1    1    2    0    0  0.63253746447E+01 -0.45250494940E+01 -0.16529674128E+03  0.20738490571E+03  0.12500000000E+03 0.  0.
</event>
<event>
 5    0  0.5547141E-005  0.3613001E+03  0.7546771E-02  0.1058070E+00
         21   -1    0    0  502  501  0.00000000000E+00  0.00000000000E+00  0.70782514112E+03  0.70782514112E+03  0.00000000000E+00 0.  1.
         21   -1    0    0  501  502 -0.00000000000E+00 -0.00000000000E+00 -0.18442088279E+03  0.18442088279E+03  0.00000000000E+00 0.  1.
         25    1    1    2    0    0 -0.18810770703E+03 -0.16604534253E+03  0.41917980226E+03  0.50427400473E+03  0.12500000000E+03 0.  0.
         25    1    1    2    0    0  0.16556503958E+03  0.95095241065E+02  0.65111448529E+02  0.23731706204E+03  0.12500000000E+03 0.  0.
         25    1    1    2    0    0  0.22542667442E+02  0.70950101466E+02  0.39113007541E+02  0.15065495715E+03  0.12500000000E+03 0.  0.
</event>
<event>
 5    0  0.5547141E-005  0.5506317E+03  0.7546771E-02  0.1001348E+00
         21   -1    0    0  502  501  0.00000000000E+00  0.00000000000E+00  0.16926518058E+03  0.16926518058E+03  0.00000000000E+00 0. -1.
         21   -1    0    0  501  502 -0.00000000000E+00 -0.00000000000E+00 -0.17912443364E+04  0.17912443364E+04  0.00000000000E+00 0. -1.
         25    1    1    2    0    0 -0.42067594148E+02 -0.19276837800E+03 -0.70956014863E+03  0.74701401229E+03  0.12500000000E+03 0.  0.
         25    1    1    2    0    0  0.12584096838E+03 -0.13871203036E+03 -0.80210644102E+03  0.83311266910E+03  0.12500000000E+03 0.  0.
         25    1    1    2    0    0 -0.83773374233E+02  0.33148040836E+03 -0.11031256616E+03  0.38038283558E+03  0.12500000000E+03 0.  0.
</event>
<event>
 5    0  0.5547141E-005  0.2705925E+03  0.7546771E-02  0.1100941E+00
         21   -1    0    0  502  501  0.00000000000E+00  0.00000000000E+00  0.21779063714E+04  0.21779063714E+04  0.00000000000E+00 0. -1.
         21   -1    0    0  501  502 -0.00000000000E+00 -0.00000000000E+00 -0.33619584913E+02  0.33619584913E+02  0.00000000000E+00 0. -1.
         25    1    1    2    0    0 -0.63230593022E+01  0.12931642621E+02  0.23078018579E+03  0.26285300571E+03  0.12500000000E+03 0.  0.
         25    1    1    2    0    0  0.13103252981E+03 -0.26451676378E+02  0.11790060687E+04  0.11931259469E+04  0.12500000000E+03 0.  0.
         25    1    1    2    0    0 -0.12470947051E+03  0.13520033758E+02  0.73450053203E+03  0.75554700377E+03  0.12500000000E+03 0.  0.
</event>
<event>
 5    0  0.5547141E-005  0.5490052E+03  0.7546771E-02  0.1001724E+00
         21   -1    0    0  502  501  0.00000000000E+00  0.00000000000E+00  0.24791871922E+04  0.24791871922E+04  0.00000000000E+00 0. -1.
         21   -1    0    0  501  502 -0.00000000000E+00 -0.00000000000E+00 -0.12157480735E+03  0.12157480735E+03  0.00000000000E+00 0. -1.
         25    1    1    2    0    0 -0.31380167849E+03  0.26498316424E+03  0.12746463370E+04  0.13450040354E+04  0.12500000000E+03 0.  0.
         25    1    1    2    0    0  0.53315343404E+02 -0.75224067980E+02  0.78246332478E+03  0.79773118334E+03  0.12500000000E+03 0.  0.
         25    1    1    2    0    0  0.26048633509E+03 -0.18975909626E+03  0.30050272303E+03  0.45802678080E+03  0.12500000000E+03 0.  0.
</event>
<event>
 5    0  0.5547141E-005  0.2804371E+03  0.7546771E-02  0.1095450E+00
         21   -1    0    0  502  501  0.00000000000E+00  0.00000000000E+00  0.10271932264E+03  0.10271932264E+03  0.00000000000E+00 0. -1.
         21   -1    0    0  501  502 -0.00000000000E+00 -0.00000000000E+00 -0.76562976000E+03  0.76562976000E+03  0.00000000000E+00 0. -1.
         25    1    1    2    0    0 -0.14495093546E+03 -0.60544569215E+02 -0.12261028891E+03  0.23523329164E+03  0.12500000000E+03 0.  0.
         25    1    1    2    0    0  0.89926634782E+02 -0.80437410731E+01 -0.15510592878E+03  0.21871065488E+03  0.12500000000E+03 0.  0.
         25    1    1    2    0    0  0.55024300677E+02  0.68588310288E+02 -0.38519421968E+03  0.41440513612E+03  0.12500000000E+03 0.  0.
</event>
<event>
 5    0  0.5547141E-005  0.4106162E+03  0.7546771E-02  0.1040164E+00
         21   -1    0    0  502  501  0.00000000000E+00  0.00000000000E+00  0.14943188835E+03  0.14943188835E+03  0.00000000000E+00 0.  1.
         21   -1    0    0  501  502 -0.00000000000E+00 -0.00000000000E+00 -0.11283112321E+04  0.11283112321E+04  0.00000000000E+00 0.  1.
         25    1    1    2    0    0  0.63825499619E+02 -0.49173262651E+02 -0.70426081514E+03  0.71979163645E+03  0.12500000000E+03 0.  0.
         25    1    1    2    0    0 -0.40066530449E+02  0.42509068856E+02 -0.37253204803E+03  0.39726247571E+03  0.12500000000E+03 0.  0.
         25    1    1    2    0    0 -0.23758969170E+02  0.66641937951E+01  0.97913519430E+02  0.16068900828E+03  0.12500000000E+03 0.  0.
</event>
<event>
 5    0  0.5547141E-005  0.2931777E+03  0.7546771E-02  0.1088702E+00
         21   -1    0    0  502  501  0.00000000000E+00  0.00000000000E+00  0.86911759973E+03  0.86911759973E+03  0.00000000000E+00 0.  1.
         21   -1    0    0  501  502 -0.00000000000E+00 -0.00000000000E+00 -0.98897078512E+02  0.98897078512E+02  0.00000000000E+00 0.  1.
         25    1    1    2    0    0 -0.39232883676E+02  0.51911415691E+02  0.12744680391E+03  0.19000447907E+03  0.12500000000E+03 0.  0.
         25    1    1    2    0    0  0.19388881659E+03 -0.60844382880E+02  0.37228206298E+03  0.44216947717E+03  0.12500000000E+03 0.  0.
         25    1    1    2    0    0 -0.15465593292E+03  0.89329671885E+01  0.27049165433E+03  0.33584072200E+03  0.12500000000E+03 0.  0.
</event>
<event>
 5    0  0.5547141E-005  0.2787194E+03  0.7546771E-02  0.1096390E+00
         21   -1    0    0  502  501  0.00000000000E+00  0.00000000000E+00  0.28829014340E+03  0.28829014340E+03  0.00000000000E+00 0. -1.
         21   -1    0    0  501  502 -0.00000000000E+00 -0.00000000000E+00 -0.26946644645E+03  0.26946644645E+03  0.00000000000E+00 0. -1.
         25    1    1    2    0    0  0.10666609456E+03 -0.33848985288E+02  0.36776090100E+02  0.17175823222E+03  0.12500000000E+03 0.  0.
         25    1    1    2    0    0 -0.86704273745E+02  0.78747505885E+00  0.12156585654E+03  0.19473445684E+03  0.12500000000E+03 0.  0.
         25    1    1    2    0    0 -0.19961820813E+02  0.33061510229E+02 -0.13951824969E+03  0.19126390079E+03  0.12500000000E+03 0.  0.
</event>
<event>
 5    0  0.5547141E-005  0.2674146E+03  0.7546771E-02  0.1102768E+00
         21   -1    0    0  502  501  0.00000000000E+00  0.00000000000E+00  0.19352450772E+04  0.19352450772E+04  0.00000000000E+00 0.  1.
         21   -1    0    0  501  502 -0.00000000000E+00 -0.00000000000E+00 -0.36951693287E+02  0.36951693287E+02  0.00000000000E+00 0.  1.
         25    1    1    2    0    0 -0.43767177010E+01 -0.90240231600E+02  0.44449693919E+03  0.47049440380E+03  0.12500000000E+03 0.  0.
         25    1    1    2    0    0  0.31685436442E+02  0.10040508688E+03  0.30741639734E+03  0.34815943145E+03  0.12500000000E+03 0.  0.
         25    1    1    2    0    0 -0.27308718741E+02 -0.10164855277E+02  0.11463800474E+04  0.11535429352E+04  0.12500000000E+03 0.  0.
</event>
<event>
 5    0  0.5547141E-005  0.2471694E+03  0.7546771E-02  0.1115107E+00
         21   -1    0    0  502  501  0.00000000000E+00  0.00000000000E+00  0.17394680168E+03  0.17394680168E+03  0.00000000000E+00 0.  1.
         21   -1    0    0  501  502 -0.00000000000E+00 -0.00000000000E+00 -0.35121488911E+03  0.35121488911E+03  0.00000000000E+00 0.  1.
         25    1    1    2    0    0 -0.71104360172E+02 -0.10262908703E+02 -0.19641111521E+03  0.24364622613E+03  0.12500000000E+03 0.  0.
         25    1    1    2    0    0  0.31328054697E+02 -0.19923714989E+02 -0.37192356783E+02  0.13559746618E+03  0.12500000000E+03 0.  0.
         25    1    1    2    0    0  0.39776305474E+02  0.30186623692E+02  0.56335384561E+02  0.14591799848E+03  0.12500000000E+03 0.  0.
</event>
<event>
 5    0  0.5547141E-005  0.2509269E+03  0.7546771E-02  0.1112720E+00
         21   -1    0    0  502  501  0.00000000000E+00  0.00000000000E+00  0.61416575846E+02  0.61416575846E+02  0.00000000000E+00 0. -1.
         21   -1    0    0  501  502 -0.00000000000E+00 -0.00000000000E+00 -0.10252005984E+04  0.10252005984E+04  0.00000000000E+00 0. -1.
         25    1    1    2    0    0  0.46970487851E+02 -0.17239809368E+02 -0.86421897654E+02  0.15999119398E+03  0.12500000000E+03 0.  0.
         25    1    1    2    0    0  0.31837874120E+02  0.20015428867E+02 -0.58065477184E+03  0.59514639517E+03  0.12500000000E+03 0.  0.
         25    1    1    2    0    0 -0.78808361971E+02 -0.27756194989E+01 -0.29670735307E+03  0.33147958512E+03  0.12500000000E+03 0.  0.
</event>
<event>
 5    0  0.5547141E-005  0.2662193E+03  0.7546771E-02  0.1103463E+00
         21   -1    0    0  502  501  0.00000000000E+00  0.00000000000E+00  0.16953883048E+03  0.16953883048E+03  0.00000000000E+00 0.  1.
         21   -1    0    0  501  502 -0.00000000000E+00 -0.00000000000E+00 -0.41803243607E+03  0.41803243607E+03  0.00000000000E+00 0.  1.
         25    1    1    2    0    0 -0.87028773409E+01 -0.73406194877E+02 -0.18239097045E+02  0.14636213370E+03  0.12500000000E+03 0.  0.
         25    1    1    2    0    0  0.24165609608E+02 -0.41666395428E+02 -0.23504379924E+03  0.27053771042E+03  0.12500000000E+03 0.  0.
         25    1    1    2    0    0 -0.15462732267E+02  0.11507259031E+03  0.47892907082E+01  0.17067142243E+03  0.12500000000E+03 0.  0.
</event>
<event>
 5    0  0.5547141E-005  0.4669325E+03  0.7546771E-02  0.1022790E+00
         21   -1    0    0  502  501  0.00000000000E+00  0.00000000000E+00  0.65123716184E+03  0.65123716184E+03  0.00000000000E+00 0.  1.
         21   -1    0    0  501  502 -0.00000000000E+00 -0.00000000000E+00 -0.33478739769E+03  0.33478739769E+03  0.00000000000E+00 0.  1.
         25    1    1    2    0    0  0.94733180819E+02 -0.71738643828E+02  0.39367715064E+03  0.42979938053E+03  0.12500000000E+03 0.  0.
         25    1    1    2    0    0 -0.64289256162E+02 -0.17079691340E+03  0.85416591750E+02  0.23711956526E+03  0.12500000000E+03 0.  0.
         25    1    1    2    0    0 -0.30443924658E+02  0.24253555723E+03 -0.16264397824E+03  0.31910561375E+03  0.12500000000E+03 0.  0.
</event>
<event>
 5    0  0.5547141E-005  0.3238088E+03  0.7546771E-02  0.1073910E+00
         21   -1    0    0  502  501  0.00000000000E+00  0.00000000000E+00  0.13717256813E+03  0.13717256813E+03  0.00000000000E+00 0. -1.
         21   -1    0    0  501  502 -0.00000000000E+00 -0.00000000000E+00 -0.76438134015E+03  0.76438134015E+03  0.00000000000E+00 0. -1.
         25    1    1    2    0    0 -0.18383067413E+03 -0.28725249382E+02 -0.36240246143E+03  0.42612134510E+03  0.12500000000E+03 0.  0.
         25    1    1    2    0    0  0.21199344976E+03 -0.39643499761E+02 -0.15757575969E+03  0.29490328899E+03  0.12500000000E+03 0.  0.
         25    1    1    2    0    0 -0.28162775633E+02  0.68368749143E+02 -0.10723055090E+03  0.18052927418E+03  0.12500000000E+03 0.  0.
</event>
<event>
 5    0  0.5547141E-005  0.2751423E+03  0.7546771E-02  0.1098372E+00
         21   -1    0    0  502  501  0.00000000000E+00  0.00000000000E+00  0.16730941781E+03  0.16730941781E+03  0.00000000000E+00 0. -1.
         21   -1    0    0  501  502 -0.00000000000E+00 -0.00000000000E+00 -0.45247476062E+03  0.45247476062E+03  0.00000000000E+00 0. -1.
         25    1    1    2    0    0  0.87384425344E+02 -0.37936507377E+02  0.16288170218E+01  0.15717146506E+03  0.12500000000E+03 0.  0.
         25    1    1    2    0    0  0.39852084439E+02 -0.72260641133E+02 -0.15177546122E+03  0.21323831625E+03  0.12500000000E+03 0.  0.
         25    1    1    2    0    0 -0.12723650978E+03  0.11019714851E+03 -0.13501869861E+03  0.24937439712E+03  0.12500000000E+03 0.  0.
</event>
<event>
 5    0  0.5547141E-005  0.3081907E+03  0.7546771E-02  0.1081216E+00
         21   -1    0    0  502  501  0.00000000000E+00  0.00000000000E+00  0.25058532714E+03  0.25058532714E+03  0.00000000000E+00 0.  1.
         21   -1    0    0  501  502 -0.00000000000E+00 -0.00000000000E+00 -0.37903856656E+03  0.37903856656E+03  0.00000000000E+00 0.  1.
         25    1    1    2    0    0  0.75252988336E+02 -0.84808381301E+02 -0.17321614182E+03  0.24183528605E+03  0.12500000000E+03 0.  0.
         25    1    1    2    0    0  0.38868396637E+02  0.74616892230E+01  0.12862295945E+03  0.18367170376E+03  0.12500000000E+03 0.  0.
         25    1    1    2    0    0 -0.11412138497E+03  0.77346692078E+02 -0.83860057051E+02  0.20411690389E+03  0.12500000000E+03 0.  0.
</event>
<event>
 5    0  0.5547141E-005  0.3703244E+03  0.7546771E-02  0.1054569E+00
         21   -1    0    0  502  501  0.00000000000E+00  0.00000000000E+00  0.97011535204E+03  0.97011535204E+03  0.00000000000E+00 0.  1.
         21   -1    0    0  501  502 -0.00000000000E+00 -0.00000000000E+00 -0.14136481701E+03  0.14136481701E+03  0.00000000000E+00 0.  1.
         25    1    1    2    0    0 -0.73545743995E+02 -0.67672343766E+02 -0.17979651431E+02  0.16104903116E+03  0.12500000000E+03 0.  0.
         25    1    1    2    0    0 -0.12140278132E+03  0.73553959269E+02  0.27709241839E+03  0.33549072799E+03  0.12500000000E+03 0.  0.
         25    1    1    2    0    0  0.19494852532E+03 -0.58816155032E+01  0.56963776806E+03  0.61494040990E+03  0.12500000000E+03 0.  0.
</event>
<event>
 5    0  0.5547141E-005  0.5409019E+03  0.7546771E-02  0.1003622E+00
         21   -1    0    0  502  501  0.00000000000E+00  0.00000000000E+00  0.13147776655E+03  0.13147776655E+03  0.00000000000E+00 0.  1.
         21   -1    0    0  501  502 -0.00000000000E+00 -0.00000000000E+00 -0.22252805565E+04  0.22252805565E+04  0.00000000000E+00 0.  1.
         25    1    1    2    0    0  0.34699219513E+03 -0.11860513990E+01 -0.12995198794E+04  0.13508448864E+04  0.12500000000E+03 0.  0.
         25    1    1    2    0    0 -0.16895851146E+03  0.21301645903E+03 -0.50221854856E+03  0.58461223125E+03  0.12500000000E+03 0.  0.
         25    1    1    2    0    0 -0.17803368367E+03 -0.21183040763E+03 -0.29206436203E+03  0.42130120542E+03  0.12500000000E+03 0.  0.
</event>
<event>
 5    0  0.5547141E-005  0.3244214E+03  0.7546771E-02  0.1073632E+00
         21   -1    0    0  502  501  0.00000000000E+00  0.00000000000E+00  0.55546712671E+03  0.55546712671E+03  0.00000000000E+00 0. -1.
         21   -1    0    0  501  502 -0.00000000000E+00 -0.00000000000E+00 -0.18947876354E+03  0.18947876354E+03  0.00000000000E+00 0. -1.
         25    1    1    2    0    0  0.15848651038E+02 -0.71452593022E+01 -0.41896150937E+02  0.13297564414E+03  0.12500000000E+03 0.  0.
         25    1    1    2    0    0 -0.19573040974E+03  0.19696029553E+02  0.24907956351E+03  0.34112161443E+03  0.12500000000E+03 0.  0.
         25    1    1    2    0    0  0.17988175870E+03 -0.12550770251E+02  0.15880495060E+03  0.27084863168E+03  0.12500000000E+03 0.  0.
</event>
<event>
 5    0  0.5547141E-005  0.3889261E+03  0.7546771E-02  0.1047683E+00
         21   -1    0    0  502  501  0.00000000000E+00  0.00000000000E+00  0.12905533517E+03  0.12905533517E+03  0.00000000000E+00 0. -1.
         21   -1    0    0  501  502 -0.00000000000E+00 -0.00000000000E+00 -0.11720828876E+04  0.11720828876E+04  0.00000000000E+00 0. -1.
         25    1    1    2    0    0  0.45946584816E+02  0.18198211775E+03 -0.29329923298E+03  0.36997029597E+03  0.12500000000E+03 0.  0.
         25    1    1    2    0    0 -0.48476241717E+02  0.97716584074E+02 -0.52671583826E+03  0.55222554368E+03  0.12500000000E+03 0.  0.
         25    1    1    2    0    0  0.25296569015E+01 -0.27969870183E+03 -0.22301248120E+03  0.37894238314E+03  0.12500000000E+03 0.  0.
</event>
<event>
 5    0  0.5547141E-005  0.6075674E+03  0.7546771E-02  0.9889829E-01
         21   -1    0    0  502  501  0.00000000000E+00  0.00000000000E+00  0.14181795779E+04  0.14181795779E+04  0.00000000000E+00 0.  1.
         21   -1    0    0  501  502 -0.00000000000E+00 -0.00000000000E+00 -0.26029013450E+03  0.26029013450E+03  0.00000000000E+00 0.  1.
         25    1    1    2    0    0 -0.30025989451E+03  0.13819069175E+03  0.96157660685E+03  0.10244546073E+04  0.12500000000E+03 0.  0.
         25    1    1    2    0    0  0.12088769274E+03  0.47738847516E+02 -0.12785641177E+03  0.22105450425E+03  0.12500000000E+03 0.  0.
         25    1    1    2    0    0  0.17937220177E+03 -0.18592953927E+03  0.32416924831E+03  0.43296060085E+03  0.12500000000E+03 0.  0.
</event>
<event>
 5    0  0.5547141E-005  0.4140971E+03  0.7546771E-02  0.1039005E+00
         21   -1    0    0  502  501  0.00000000000E+00  0.00000000000E+00  0.97236007868E+03  0.97236007868E+03  0.00000000000E+00 0.  1.
         21   -1    0    0  501  502 -0.00000000000E+00 -0.00000000000E+00 -0.17635071099E+03  0.17635071099E+03  0.00000000000E+00 0.  1.
         25    1    1    2    0    0  0.18741682185E+03  0.86436063961E+02  0.36391650851E+03  0.43664228314E+03  0.12500000000E+03 0.  0.
         25    1    1    2    0    0 -0.41688997122E+02  0.13282570827E+03 -0.44851219250E+01  0.18715169670E+03  0.12500000000E+03 0.  0.
         25    1    1    2    0    0 -0.14572782473E+03 -0.21926177223E+03  0.43657798111E+03  0.52491680984E+03  0.12500000000E+03 0.  0.
</event>
<event>
 5    0  0.5547141E-005  0.4670443E+03  0.7546771E-02  0.1022758E+00
         21   -1    0    0  502  501  0.00000000000E+00  0.00000000000E+00  0.10227305349E+04  0.10227305349E+04  0.00000000000E+00 0. -1.
         21   -1    0    0  501  502 -0.00000000000E+00 -0.00000000000E+00 -0.21328237247E+03  0.21328237247E+03  0.00000000000E+00 0. -1.
         25    1    1    2    0    0 -0.27854205951E+03 -0.47333194400E+02  0.44477800648E+02  0.31213680488E+03  0.12500000000E+03 0.  0.
         25    1    1    2    0    0  0.25117075869E+03  0.15526328146E+03  0.34113285736E+03  0.46817738407E+03  0.12500000000E+03 0.  0.
         25    1    1    2    0    0  0.27371300828E+02 -0.10793008706E+03  0.42383750439E+03  0.45569871838E+03  0.12500000000E+03 0.  0.
</event>
<event>
 5    0  0.5547141E-005  0.2394410E+03  0.7546771E-02  0.1120166E+00
         21   -1    0    0  502  501  0.00000000000E+00  0.00000000000E+00  0.30079464505E+03  0.30079464505E+03  0.00000000000E+00 0. -1.
         21   -1    0    0  501  502 -0.00000000000E+00 -0.00000000000E+00 -0.19060173519E+03  0.19060173519E+03  0.00000000000E+00 0. -1.
         25    1    1    2    0    0  0.13017057983E+02 -0.33157880854E+02  0.27770533235E+02  0.13291008757E+03  0.12500000000E+03 0.  0.
         25    1    1    2    0    0  0.66155756403E+02 -0.79529587769E+02  0.49232862451E+02  0.16955947093E+03  0.12500000000E+03 0.  0.
         25    1    1    2    0    0 -0.79172814386E+02  0.11268746862E+03  0.33189514170E+02  0.18892682174E+03  0.12500000000E+03 0.  0.
</event>
<event>
 5    0  0.5547141E-005  0.2560511E+03  0.7546771E-02  0.1109539E+00
         21   -1    0    0  502  501  0.00000000000E+00  0.00000000000E+00  0.93791185712E+02  0.93791185712E+02  0.00000000000E+00 0. -1.
         21   -1    0    0  501  502 -0.00000000000E+00 -0.00000000000E+00 -0.69902252328E+03  0.69902252328E+03  0.00000000000E+00 0. -1.
         25    1    1    2    0    0  0.20101050216E+02  0.35984292304E+02 -0.35930162688E+02  0.13643642513E+03  0.12500000000E+03 0.  0.
         25    1    1    2    0    0 -0.94360479182E+02 -0.45387061967E+02 -0.40603511290E+03  0.43755388049E+03  0.12500000000E+03 0.  0.
         25    1    1    2    0    0  0.74259428966E+02  0.94027696623E+01 -0.16326606199E+03  0.21882340338E+03  0.12500000000E+03 0.  0.
</event>
<event>
 5    0  0.5547141E-005  0.2725945E+03  0.7546771E-02  0.1099804E+00
         21   -1    0    0  502  501  0.00000000000E+00  0.00000000000E+00  0.16013432822E+04  0.16013432822E+04  0.00000000000E+00 0.  1.
         21   -1    0    0  501  502 -0.00000000000E+00 -0.00000000000E+00 -0.46403398298E+02  0.46403398298E+02  0.00000000000E+00 0.  1.
         25    1    1    2    0    0  0.13014053333E+03 -0.96906448334E+02  0.62324538896E+03  0.65603904839E+03  0.12500000000E+03 0.  0.
         25    1    1    2    0    0  0.16351437650E+02  0.11987914025E+02  0.29190696091E+03  0.31819137861E+03  0.12500000000E+03 0.  0.
         25    1    1    2    0    0 -0.14649197098E+03  0.84918534309E+02  0.63978753406E+03  0.67351625353E+03  0.12500000000E+03 0.  0.
</event>
<event>
 5    0  0.5547141E-005  0.4480430E+03  0.7546771E-02  0.1028307E+00
         21   -1    0    0  502  501  0.00000000000E+00  0.00000000000E+00  0.25207790604E+03  0.25207790604E+03  0.00000000000E+00 0. -1.
         21   -1    0    0  501  502 -0.00000000000E+00 -0.00000000000E+00 -0.79635102228E+03  0.79635102228E+03  0.00000000000E+00 0. -1.
         25    1    1    2    0    0  0.35112447860E+03 -0.14765765013E+03 -0.33255253624E+03  0.52087174091E+03  0.12500000000E+03 0.  0.
         25    1    1    2    0    0 -0.18977596049E+03  0.11395227485E+03 -0.37230985131E+02  0.25692641432E+03  0.12500000000E+03 0.  0.
         25    1    1    2    0    0 -0.16134851812E+03  0.33705375275E+02 -0.17448959487E+03  0.27063077308E+03  0.12500000000E+03 0.  0.
</event>
<event>
 5    0  0.5547141E-005  0.4757681E+03  0.7546771E-02  0.1020305E+00
         21   -1    0    0  502  501  0.00000000000E+00  0.00000000000E+00  0.35684846198E+03  0.35684846198E+03  0.00000000000E+00 0.  1.
         21   -1    0    0  501  502 -0.00000000000E+00 -0.00000000000E+00 -0.63431762547E+03  0.63431762547E+03  0.00000000000E+00 0.  1.
         25    1    1    2    0    0 -0.77083484157E+02  0.16777394534E+03 -0.13354561102E+03  0.25990265579E+03  0.12500000000E+03 0.  0.
         25    1    1    2    0    0 -0.15522118678E+03  0.16438316004E+03 -0.16505769705E+03  0.30656888865E+03  0.12500000000E+03 0.  0.
         25    1    1    2    0    0  0.23230467093E+03 -0.33215710538E+03  0.21134144583E+02  0.42469454301E+03  0.12500000000E+03 0.  0.
</event>
<event>
 5    0  0.5547141E-005  0.3577060E+03  0.7546771E-02  0.1059496E+00
         21   -1    0    0  502  501  0.00000000000E+00  0.00000000000E+00  0.42661781764E+03  0.42661781764E+03  0.00000000000E+00 0. -1.
         21   -1    0    0  501  502 -0.00000000000E+00 -0.00000000000E+00 -0.29992547050E+03  0.29992547050E+03  0.00000000000E+00 0. -1.
         25    1    1    2    0    0  0.46382565430E+02  0.11145028059E+03 -0.12282158360E+02  0.17420780359E+03  0.12500000000E+03 0.  0.
         25    1    1    2    0    0 -0.65538430285E+02 -0.23715463420E+03  0.22338800499E+03  0.35505606197E+03  0.12500000000E+03 0.  0.
         25    1    1    2    0    0  0.19155864856E+02  0.12570435362E+03 -0.84413499481E+02  0.19727942257E+03  0.12500000000E+03 0.  0.
</event>
<event>
 5    0  0.5547141E-005  0.2901577E+03  0.7546771E-02  0.1090267E+00
         21   -1    0    0  502  501  0.00000000000E+00  0.00000000000E+00  0.52754240281E+02  0.52754240281E+02  0.00000000000E+00 0. -1.
         21   -1    0    0  501  502 -0.00000000000E+00 -0.00000000000E+00 -0.15959190836E+04  0.15959190836E+04  0.00000000000E+00 0. -1.
         25    1    1    2    0    0 -0.80200531028E+02  0.11752249115E+03 -0.65498119654E+03  0.68181304543E+03  0.12500000000E+03 0.  0.
         25    1    1    2    0    0 -0.38462921375E+02 -0.15778011098E+03 -0.46541102980E+03  0.50853356468E+03  0.12500000000E+03 0.  0.
         25    1    1    2    0    0  0.11866345240E+03  0.40257619836E+02 -0.42277261700E+03  0.45832671379E+03  0.12500000000E+03 0.  0.
</event>
<event>
 5    0  0.5547141E-005  0.2896483E+03  0.7546771E-02  0.1090533E+00
         21   -1    0    0  502  501  0.00000000000E+00  0.00000000000E+00  0.21074199093E+04  0.21074199093E+04  0.00000000000E+00 0.  1.
         21   -1    0    0  501  502 -0.00000000000E+00 -0.00000000000E+00 -0.39809888365E+02  0.39809888365E+02  0.00000000000E+00 0. -1.
         25    1    1    2    0    0 -0.18835604761E+03  0.12439264761E+01  0.91799649856E+03  0.94542166222E+03  0.12500000000E+03 0.  0.
         25    1    1    2    0    0  0.11804417738E+03 -0.52716272403E+02  0.42732106721E+03  0.46361808384E+03  0.12500000000E+03 0.  0.
         25    1    1    2    0    0  0.70311870235E+02  0.51472345927E+02  0.72229245520E+03  0.73819005163E+03  0.12500000000E+03 0.  0.
</event>
<event>
 5    0  0.5547141E-005  0.2493679E+03  0.7546771E-02  0.1113705E+00
         21   -1    0    0  502  501  0.00000000000E+00  0.00000000000E+00  0.10161270151E+03  0.10161270151E+03  0.00000000000E+00 0.  1.
         21   -1    0    0  501  502 -0.00000000000E+00 -0.00000000000E+00 -0.61197419891E+03  0.61197419891E+03  0.00000000000E+00 0.  1.
         25    1    1    2    0    0 -0.30874027538E+02  0.37469784688E+02 -0.64933925982E+02  0.14899196315E+03  0.12500000000E+03 0.  0.
         25    1    1    2    0    0  0.92393619314E+02 -0.99196465234E+02 -0.31018010176E+03  0.36085068260E+03  0.12500000000E+03 0.  0.
         25    1    1    2    0    0 -0.61519591776E+02  0.61726680546E+02 -0.13524746966E+03  0.20374425467E+03  0.12500000000E+03 0.  0.
</event>
<event>
 5    0  0.5547141E-005  0.3491575E+03  0.7546771E-02  0.1062961E+00
         21   -1    0    0  502  501  0.00000000000E+00  0.00000000000E+00  0.28549019219E+04  0.28549019219E+04  0.00000000000E+00 0. -1.
         21   -1    0    0  501  502 -0.00000000000E+00 -0.00000000000E+00 -0.42702322875E+02  0.42702322875E+02  0.00000000000E+00 0. -1.
         25    1    1    2    0    0 -0.90364634481E+02 -0.14399818698E+03  0.55878292678E+03  0.59729775178E+03  0.12500000000E+03 0.  0.
         25    1    1    2    0    0  0.42820009752E+02  0.23362512886E+03  0.95679054319E+03  0.99372400474E+03  0.12500000000E+03 0.  0.
         25    1    1    2    0    0  0.47544624729E+02 -0.89626941880E+02  0.12966261290E+04  0.13065824882E+04  0.12500000000E+03 0.  0.
</event>
<event>
 5    0  0.5547141E-005  0.3455302E+03  0.7546771E-02  0.1064465E+00
         21   -1    0    0  502  501  0.00000000000E+00  0.00000000000E+00  0.46072354553E+03  0.46072354553E+03  0.00000000000E+00 0. -1.
         21   -1    0    0  501  502 -0.00000000000E+00 -0.00000000000E+00 -0.25913823997E+03  0.25913823997E+03  0.00000000000E+00 0. -1.
         25    1    1    2    0    0 -0.99543700665E+02  0.22876032673E+03  0.32153485108E+02  0.28088980407E+03  0.12500000000E+03 0.  0.
         25    1    1    2    0    0  0.12602016737E+03 -0.11136841764E+03  0.20930626953E+02  0.21058750717E+03  0.12500000000E+03 0.  0.
         25    1    1    2    0    0 -0.26476466705E+02 -0.11739190909E+03  0.14850119350E+03  0.22838447425E+03  0.12500000000E+03 0.  0.
</event>
<event>
 5    0  0.5547141E-005  0.2378290E+03  0.7546771E-02  0.1121248E+00
         21   -1    0    0  502  501  0.00000000000E+00  0.00000000000E+00  0.11104393980E+03  0.11104393980E+03  0.00000000000E+00 0.  1.
         21   -1    0    0  501  502 -0.00000000000E+00 -0.00000000000E+00 -0.50937146458E+03  0.50937146458E+03  0.00000000000E+00 0.  1.
         25    1    1    2    0    0 -0.45958949274E+02 -0.71325946476E+02 -0.92039085763E+02  0.17690621517E+03  0.12500000000E+03 0.  0.
         25    1    1    2    0    0  0.11808173357E+02  0.28080506646E+02 -0.27464287603E+03  0.30328477899E+03  0.12500000000E+03 0.  0.
         25    1    1    2    0    0  0.34150775918E+02  0.43245439830E+02 -0.31645562985E+02  0.14022441021E+03  0.12500000000E+03 0.  0.
</event>
<event>
 5    0  0.5547141E-005  0.2460437E+03  0.7546771E-02  0.1115831E+00
         21   -1    0    0  502  501  0.00000000000E+00  0.00000000000E+00  0.19824092006E+03  0.19824092006E+03  0.00000000000E+00 0.  1.
         21   -1    0    0  501  502 -0.00000000000E+00 -0.00000000000E+00 -0.30537337221E+03  0.30537337221E+03  0.00000000000E+00 0.  1.
         25    1    1    2    0    0  0.12331161912E+02  0.65882179064E+02 -0.89739038222E+02  0.16784103805E+03  0.12500000000E+03 0.  0.
         25    1    1    2    0    0 -0.10179817460E+03 -0.24346029866E+02 -0.55179083805E+02  0.17212009997E+03  0.12500000000E+03 0.  0.
         25    1    1    2    0    0  0.89467012690E+02 -0.41536149198E+02  0.37785669880E+02  0.16365315426E+03  0.12500000000E+03 0.  0.
</event>
<event>
 5    0  0.5547141E-005  0.2229230E+03  0.7546771E-02  0.1131722E+00
         21   -1    0    0  502  501  0.00000000000E+00  0.00000000000E+00  0.19158076669E+03  0.19158076669E+03  0.00000000000E+00 0.  1.
         21   -1    0    0  501  502 -0.00000000000E+00 -0.00000000000E+00 -0.25939276731E+03  0.25939276731E+03  0.00000000000E+00 0.  1.
         25    1    1    2    0    0 -0.33926992196E+02  0.48524128122E+02 -0.11855103334E+03  0.18216744856E+03  0.12500000000E+03 0.  0.
         25    1    1    2    0    0  0.26909006527E+02 -0.38920540741E+02  0.75390152653E+00  0.13365803938E+03  0.12500000000E+03 0.  0.
         25    1    1    2    0    0  0.70179856690E+01 -0.96035873811E+01  0.49985131192E+02  0.13514804606E+03  0.12500000000E+03 0.  0.
</event>
<event>
 5    0  0.5547141E-005  0.4104478E+03  0.7546771E-02  0.1040221E+00
         21   -1    0    0  502  501  0.00000000000E+00  0.00000000000E+00  0.39986439395E+03  0.39986439395E+03  0.00000000000E+00 0.  1.
         21   -1    0    0  501  502 -0.00000000000E+00 -0.00000000000E+00 -0.42131125220E+03  0.42131125220E+03  0.00000000000E+00 0.  1.
         25    1    1    2    0    0  0.87483871022E+02 -0.17040716751E+03 -0.27279546422E+03  0.35599774680E+03  0.12500000000E+03 0.  0.
         25    1    1    2    0    0 -0.51789982344E+02  0.21479129420E+03  0.15584804188E+03  0.29787768378E+03  0.12500000000E+03 0.  0.
         25    1    1    2    0    0 -0.35693888678E+02 -0.44384126694E+02  0.95500564090E+02  0.16730021558E+03  0.12500000000E+03 0.  0.
</event>
<event>
 5    0  0.5547141E-005  0.2722170E+03  0.7546771E-02  0.1100017E+00
         21   -1    0    0  502  501  0.00000000000E+00  0.00000000000E+00  0.43127666011E+03  0.43127666011E+03  0.00000000000E+00 0.  1.
         21   -1    0    0  501  502 -0.00000000000E+00 -0.00000000000E+00 -0.17182030315E+03  0.17182030315E+03  0.00000000000E+00 0.  1.
         25    1    1    2    0    0  0.10666964099E+03  0.16591033926E+02  0.45126449559E+02  0.17121644537E+03  0.12500000000E+03 0.  0.
         25    1    1    2    0    0 -0.69354867375E+02  0.11057439981E+03  0.16105034182E+03  0.24207232003E+03  0.12500000000E+03 0.  0.
         25    1    1    2    0    0 -0.37314773614E+02 -0.12716543374E+03  0.53279565583E+02  0.18980819787E+03  0.12500000000E+03 0.  0.
</event>
<event>
 5    0  0.5547141E-005  0.4347131E+03  0.7546771E-02  0.1032381E+00
         21   -1    0    0  502  501  0.00000000000E+00  0.00000000000E+00  0.28873044658E+03  0.28873044658E+03  0.00000000000E+00 0. -1.
         21   -1    0    0  501  502 -0.00000000000E+00 -0.00000000000E+00 -0.65450480402E+03  0.65450480402E+03  0.00000000000E+00 0. -1.
         25    1    1    2    0    0 -0.10553118818E+03  0.24126865896E+03 -0.29665711034E+03  0.41590604539E+03  0.12500000000E+03 0.  0.
         25    1    1    2    0    0  0.86840784873E+02  0.47451450190E+02 -0.13074885618E+03  0.20618735518E+03  0.12500000000E+03 0.  0.
         25    1    1    2    0    0  0.18690403310E+02 -0.28872010915E+03  0.61631609075E+02  0.32114185003E+03  0.12500000000E+03 0.  0.
</event>
<event>
 5    0  0.5547141E-005  0.2593281E+03  0.7546771E-02  0.1107548E+00
         21   -1    0    0  502  501  0.00000000000E+00  0.00000000000E+00  0.45393723904E+03  0.45393723904E+03  0.00000000000E+00 0. -1.
         21   -1    0    0  501  502 -0.00000000000E+00 -0.00000000000E+00 -0.14815052728E+03  0.14815052728E+03  0.00000000000E+00 0. -1.
         25    1    1    2    0    0 -0.39195450814E+02  0.47438155250E+02  0.43411794584E+02  0.14593233311E+03  0.12500000000E+03 0.  0.
         25    1    1    2    0    0  0.32076889607E+02  0.10697068158E+03  0.16340959834E+03  0.23409261072E+03  0.12500000000E+03 0.  0.
         25    1    1    2    0    0  0.71185612078E+01 -0.15440883683E+03  0.98965318834E+02  0.22206282250E+03  0.12500000000E+03 0.  0.
</event>
<event>
 5    0  0.5547141E-005  0.4859785E+03  0.7546771E-02  0.1017505E+00
         21   -1    0    0  502  501  0.00000000000E+00  0.00000000000E+00  0.61792512188E+03  0.61792512188E+03  0.00000000000E+00 0.  1.
         21   -1    0    0  501  502 -0.00000000000E+00 -0.00000000000E+00 -0.38220662219E+03  0.38220662219E+03  0.00000000000E+00 0.  1.
         25    1    1    2    0    0 -0.23161376184E+03 -0.20243092915E+03 -0.20195121520E+02  0.33265005439E+03  0.12500000000E+03 0.  0.
         25    1    1    2    0    0 -0.11414986767E+03 -0.35345284861E+02  0.11433272321E+03  0.20730762901E+03  0.12500000000E+03 0.  0.
         25    1    1    2    0    0  0.34576362951E+03  0.23777621401E+03  0.14158089800E+03  0.46017406068E+03  0.12500000000E+03 0.  0.
</event>
<event>
 5    0  0.5547141E-005  0.2408735E+03  0.7546771E-02  0.1119212E+00
         21   -1    0    0  502  501  0.00000000000E+00  0.00000000000E+00  0.69209342904E+02  0.69209342904E+02  0.00000000000E+00 0.  1.
         21   -1    0    0  501  502 -0.00000000000E+00 -0.00000000000E+00 -0.83832665957E+03  0.83832665957E+03  0.00000000000E+00 0.  1.
         25    1    1    2    0    0  0.41141529642E+02 -0.19355287167E+02 -0.19721826799E+03  0.23788084797E+03  0.12500000000E+03 0.  0.
         25    1    1    2    0    0 -0.52678812480E+02 -0.85471406158E+02 -0.16013809993E+03  0.22660456660E+03  0.12500000000E+03 0.  0.
         25    1    1    2    0    0  0.11537282838E+02  0.10482669332E+03 -0.41176094875E+03  0.44305058791E+03  0.12500000000E+03 0.  0.
</event>
<event>
 5    0  0.5547141E-005  0.2940257E+03  0.7546771E-02  0.1088266E+00
         21   -1    0    0  502  501  0.00000000000E+00  0.00000000000E+00  0.17140832450E+03  0.17140832450E+03  0.00000000000E+00 0. -1.
         21   -1    0    0  501  502 -0.00000000000E+00 -0.00000000000E+00 -0.50435776600E+03  0.50435776600E+03  0.00000000000E+00 0. -1.
         25    1    1    2    0    0  0.19482364490E+02 -0.31960151682E+02  0.16784272652E+02  0.13155882954E+03  0.12500000000E+03 0.  0.
         25    1    1    2    0    0  0.36037931275E+02  0.49258640723E+02  0.28181200878E+02  0.14193070936E+03  0.12500000000E+03 0.  0.
         25    1    1    2    0    0 -0.55520295765E+02 -0.17298489042E+02 -0.37791491503E+03  0.40227655160E+03  0.12500000000E+03 0.  0.
</event>
<event>
 5    0  0.5547141E-005  0.2645605E+03  0.7546771E-02  0.1104434E+00
         21   -1    0    0  502  501  0.00000000000E+00  0.00000000000E+00  0.12209063520E+03  0.12209063520E+03  0.00000000000E+00 0.  1.
         21   -1    0    0  501  502 -0.00000000000E+00 -0.00000000000E+00 -0.57328109692E+03  0.57328109692E+03  0.00000000000E+00 0.  1.
         25    1    1    2    0    0  0.11349513844E+03 -0.22783022913E+02 -0.32329869371E+02  0.17340828422E+03  0.12500000000E+03 0.  0.
         25    1    1    2    0    0 -0.10629365619E+03 -0.36932726543E+02 -0.27317583231E+03  0.32079963060E+03  0.12500000000E+03 0.  0.
         25    1    1    2    0    0 -0.72014822479E+01  0.59715749456E+02 -0.14568476005E+03  0.20116381730E+03  0.12500000000E+03 0.  0.
</event>
<event>
 5    0  0.5547141E-005  0.2051808E+03  0.7546771E-02  0.1145440E+00
         21   -1    0    0  502  501  0.00000000000E+00  0.00000000000E+00  0.63264430886E+02  0.63264430886E+02  0.00000000000E+00 0.  1.
         21   -1    0    0  501  502 -0.00000000000E+00 -0.00000000000E+00 -0.66544744330E+03  0.66544744330E+03  0.00000000000E+00 0.  1.
         25    1    1    2    0    0  0.16563526781E+02 -0.39606888811E+02 -0.18456557257E+03  0.22700772374E+03  0.12500000000E+03 0.  0.
         25    1    1    2    0    0 -0.18971528440E+02  0.52623805532E+02 -0.13455674988E+03  0.19198880889E+03  0.12500000000E+03 0.  0.
         25    1    1    2    0    0  0.24080016594E+01 -0.13016916721E+02 -0.28306068996E+03  0.30971534155E+03  0.12500000000E+03 0.  0.
</event>
<event>
 5    0  0.5547141E-005  0.3761177E+03  0.7546771E-02  0.1052378E+00
         21   -1    0    0  502  501  0.00000000000E+00  0.00000000000E+00  0.16839525080E+03  0.16839525080E+03  0.00000000000E+00 0. -1.
         21   -1    0    0  501  502 -0.00000000000E+00 -0.00000000000E+00 -0.84007417754E+03  0.84007417754E+03  0.00000000000E+00 0. -1.
         25    1    1    2    0    0  0.16616125888E+03 -0.10682068412E+02  0.58984470705E+02  0.21639740831E+03  0.12500000000E+03 0.  0.
         25    1    1    2    0    0 -0.10126391742E+03 -0.83280330377E+01 -0.43910216952E+03  0.46771727826E+03  0.12500000000E+03 0.  0.
         25    1    1    2    0    0 -0.64897341460E+02  0.19010101450E+02 -0.29156122792E+03  0.32435474178E+03  0.12500000000E+03 0.  0.
</event>
<event>
 5    0  0.6117803E-005  0.2878679E+03  0.7546771E-02  0.1091468E+00
         21   -1    0    0  502  501  0.00000000000E+00  0.00000000000E+00  0.94697947832E+02  0.94697947832E+02  0.00000000000E+00 0.  1.
         21   -1    0    0  501  502 -0.00000000000E+00 -0.00000000000E+00 -0.87507658331E+03  0.87507658331E+03  0.00000000000E+00 0.  1.
         25    1    1    2    0    0 -0.71554909929E+02  0.15318545517E+02 -0.86140974353E-01  0.14484395187E+03  0.12500000000E+03 0.  0.
         25    1    1    2    0    0  0.63549259511E+02 -0.95486883932E+01 -0.36519051842E+03  0.39130397466E+03  0.12500000000E+03 0.  0.
         25    1    1    2    0    0  0.80056504180E+01 -0.57698571242E+01 -0.41510197608E+03  0.43362660462E+03  0.12500000000E+03 0.  0.
</event>
<event>
 5    0  0.5547141E-005  0.3247875E+03  0.7546771E-02  0.1073467E+00
         21   -1    0    0  502  501  0.00000000000E+00  0.00000000000E+00  0.25734313321E+03  0.25734313321E+03  0.00000000000E+00 0.  1.
         21   -1    0    0  501  502 -0.00000000000E+00 -0.00000000000E+00 -0.40990767330E+03  0.40990767330E+03  0.00000000000E+00 0.  1.
         25    1    1    2    0    0 -0.14698398963E+03  0.32863418558E+02  0.63878707009E+02  0.20588780123E+03  0.12500000000E+03 0.  0.
         25    1    1    2    0    0 -0.36468484373E+02  0.68841509010E+02 -0.14561602545E+03  0.20711863891E+03  0.12500000000E+03 0.  0.
         25    1    1    2    0    0  0.18345247400E+03 -0.10170492757E+03 -0.70827221653E+02  0.25424436638E+03  0.12500000000E+03 0.  0.
</event>
<event>
 5    0  0.5547141E-005  0.3004005E+03  0.7546771E-02  0.1085041E+00
         21   -1    0    0  502  501  0.00000000000E+00  0.00000000000E+00  0.82013903451E+02  0.82013903451E+02  0.00000000000E+00 0.  1.
         21   -1    0    0  501  502 -0.00000000000E+00 -0.00000000000E+00 -0.11003069276E+04  0.11003069276E+04  0.00000000000E+00 0.  1.
         25    1    1    2    0    0  0.46645603388E+02 -0.11471587912E+02 -0.48124571321E+02  0.14229681658E+03  0.12500000000E+03 0.  0.
         25    1    1    2    0    0  0.52501538594E+02 -0.54149876094E+02 -0.72918084777E+03  0.74365202171E+03  0.12500000000E+03 0.  0.
         25    1    1    2    0    0 -0.99147141981E+02  0.65621464006E+02 -0.24098760505E+03  0.29637199276E+03  0.12500000000E+03 0.  0.
</event>
<event>
 5    0  0.5547141E-005  0.2248937E+03  0.7546771E-02  0.1130286E+00
         21   -1    0    0  502  501  0.00000000000E+00  0.00000000000E+00  0.12072608719E+03  0.12072608719E+03  0.00000000000E+00 0. -1.
         21   -1    0    0  501  502 -0.00000000000E+00 -0.00000000000E+00 -0.41894149538E+03  0.41894149538E+03  0.00000000000E+00 0. -1.
         25    1    1    2    0    0 -0.52606240605E+02  0.17223884999E+00 -0.12472061935E+03  0.18424895958E+03  0.12500000000E+03 0.  0.
         25    1    1    2    0    0 -0.54258178988E+02 -0.35217551752E+02 -0.62896197383E+02  0.15415951993E+03  0.12500000000E+03 0.  0.
         25    1    1    2    0    0  0.10686441959E+03  0.35045312902E+02 -0.11059859147E+03  0.20125910306E+03  0.12500000000E+03 0.  0.
</event>
<event>
 5    0  0.5547141E-005  0.2650214E+03  0.7546771E-02  0.1104163E+00
         21   -1    0    0  502  501  0.00000000000E+00  0.00000000000E+00  0.45216296596E+03  0.45216296596E+03  0.00000000000E+00 0.  1.
         21   -1    0    0  501  502 -0.00000000000E+00 -0.00000000000E+00 -0.15533409479E+03  0.15533409479E+03  0.00000000000E+00 0.  1.
         25    1    1    2    0    0 -0.71192128916E+02  0.32301058070E+02  0.22415103704E+03  0.26829156710E+03  0.12500000000E+03 0.  0.
         25    1    1    2    0    0  0.96045168022E+02 -0.80572716768E+02 -0.14171788537E+02  0.17760201738E+03  0.12500000000E+03 0.  0.
         25    1    1    2    0    0 -0.24853039106E+02  0.48271658697E+02  0.86849622662E+02  0.16160347627E+03  0.12500000000E+03 0.  0.
</event>
<event>
 5    0  0.5547141E-005  0.3539091E+03  0.7546771E-02  0.1061022E+00
         21   -1    0    0  502  501  0.00000000000E+00  0.00000000000E+00  0.17310078599E+03  0.17310078599E+03  0.00000000000E+00 0. -1.
         21   -1    0    0  501  502 -0.00000000000E+00 -0.00000000000E+00 -0.72357652087E+03  0.72357652087E+03  0.00000000000E+00 0. -1.
         25    1    1    2    0    0  0.15423611035E+03 -0.51260296700E+02  0.54810713573E+02  0.21223951111E+03  0.12500000000E+03 0.  0.
         25    1    1    2    0    0 -0.98008940231E+02  0.37999764635E+02 -0.43982871289E+03  0.46917377501E+03  0.12500000000E+03 0.  0.
         25    1    1    2    0    0 -0.56227170116E+02  0.13260532066E+02 -0.16545773556E+03  0.21526402075E+03  0.12500000000E+03 0.  0.
</event>
<event>
 5    0  0.5547141E-005  0.2363144E+03  0.7546771E-02  0.1122273E+00
         21   -1    0    0  502  501  0.00000000000E+00  0.00000000000E+00  0.12623663372E+03  0.12623663372E+03  0.00000000000E+00 0.  1.
         21   -1    0    0  501  502 -0.00000000000E+00 -0.00000000000E+00 -0.44237938833E+03  0.44237938833E+03  0.00000000000E+00 0.  1.
         25    1    1    2    0    0 -0.18628986693E+02  0.58134174231E+02 -0.28066741477E+02  0.14191322467E+03  0.12500000000E+03 0.  0.
         25    1    1    2    0    0  0.11622954773E+02  0.63042541342E+02 -0.12421429999E+03  0.18751972541E+03  0.12500000000E+03 0.  0.
         25    1    1    2    0    0  0.70060319207E+01 -0.12117671557E+03 -0.16386171314E+03  0.23918307196E+03  0.12500000000E+03 0.  0.
</event>
<event>
 5    0  0.5547141E-005  0.2652132E+03  0.7546771E-02  0.1104051E+00
         21   -1    0    0  502  501  0.00000000000E+00  0.00000000000E+00  0.47259176700E+03  0.47259176700E+03  0.00000000000E+00 0.  1.
         21   -1    0    0  501  502 -0.00000000000E+00 -0.00000000000E+00 -0.14883469410E+03  0.14883469410E+03  0.00000000000E+00 0.  1.
         25    1    1    2    0    0  0.63781485507E+01  0.74408973983E+02  0.11823337733E+03  0.18756734178E+03  0.12500000000E+03 0.  0.
         25    1    1    2    0    0  0.37575552578E+01 -0.15762608580E+03  0.31303003256E+02  0.20362951691E+03  0.12500000000E+03 0.  0.
         25    1    1    2    0    0 -0.10135703808E+02  0.83217111817E+02  0.17422069232E+03  0.23022960240E+03  0.12500000000E+03 0.  0.
</event>
<event>
 5    0  0.5547141E-005  0.7962007E+03  0.7546771E-02  0.9565533E-01
         21   -1    0    0  502  501  0.00000000000E+00  0.00000000000E+00  0.13587949591E+04  0.13587949591E+04  0.00000000000E+00 0. -1.
         21   -1    0    0  501  502 -0.00000000000E+00 -0.00000000000E+00 -0.46654248255E+03  0.46654248255E+03  0.00000000000E+00 0. -1.
         25    1    1    2    0    0 -0.52912592067E+03 -0.17038374812E+03 -0.99811347409E+02  0.57843942347E+03  0.12500000000E+03 0.  0.
         25    1    1    2    0    0  0.23196529282E+03 -0.12771701115E+02  0.77177489727E+03  0.81561786731E+03  0.12500000000E+03 0.  0.
         25    1    1    2    0    0  0.29716062785E+03  0.18315544924E+03  0.22028892674E+03  0.43128015091E+03  0.12500000000E+03 0.  0.
</event>
<event>
 5    0  0.5547141E-005  0.2827906E+03  0.7546771E-02  0.1094174E+00
         21   -1    0    0  502  501  0.00000000000E+00  0.00000000000E+00  0.54246884925E+02  0.54246884925E+02  0.00000000000E+00 0.  1.
         21   -1    0    0  501  502 -0.00000000000E+00 -0.00000000000E+00 -0.14741952476E+04  0.14741952476E+04  0.00000000000E+00 0.  1.
         25    1    1    2    0    0 -0.22417161209E+02  0.17558162840E+03 -0.51603668160E+03  0.55968767550E+03  0.12500000000E+03 0.  0.
         25    1    1    2    0    0 -0.56019919717E+02 -0.13781408921E+03 -0.45690740094E+03  0.49650813450E+03  0.12500000000E+03 0.  0.
         25    1    1    2    0    0  0.78437080926E+02 -0.37767539193E+02 -0.44700428014E+03  0.47224632253E+03  0.12500000000E+03 0.  0.
</event>
<event>
 5    0  0.5547141E-005  0.3191548E+03  0.7546771E-02  0.1076039E+00
         21   -1    0    0  502  501  0.00000000000E+00  0.00000000000E+00  0.26765616287E+04  0.26765616287E+04  0.00000000000E+00 0. -1.
         21   -1    0    0  501  502 -0.00000000000E+00 -0.00000000000E+00 -0.38056201435E+02  0.38056201435E+02  0.00000000000E+00 0. -1.
         25    1    1    2    0    0 -0.52259037587E+02  0.76309171854E+02  0.86727059972E+03  0.88110010206E+03  0.12500000000E+03 0.  0.
         25    1    1    2    0    0  0.13572374085E+01  0.11908926460E+03  0.12355255221E+04  0.12475305250E+04  0.12500000000E+03 0.  0.
         25    1    1    2    0    0  0.50901800178E+02 -0.19539843646E+03  0.53570930549E+03  0.58598720312E+03  0.12500000000E+03 0.  0.
</event>
<event>
 5    0  0.5547141E-005  0.3144067E+03  0.7546771E-02  0.1078253E+00
         21   -1    0    0  502  501  0.00000000000E+00  0.00000000000E+00  0.79589064116E+03  0.79589064116E+03  0.00000000000E+00 0.  1.
         21   -1    0    0  501  502 -0.00000000000E+00 -0.00000000000E+00 -0.12420242575E+03  0.12420242575E+03  0.00000000000E+00 0.  1.
         25    1    1    2    0    0 -0.12506911606E+03 -0.12956240037E+03  0.12669200198E+03  0.25318878874E+03  0.12500000000E+03 0.  0.
         25    1    1    2    0    0  0.15593395753E+03  0.12765479283E+03  0.24768388684E+03  0.34290443719E+03  0.12500000000E+03 0.  0.
         25    1    1    2    0    0 -0.30864841479E+02  0.19076075395E+01  0.29731232659E+03  0.32399984097E+03  0.12500000000E+03 0.  0.
</event>
<event>
 5    0  0.5547141E-005  0.2700149E+03  0.7546771E-02  0.1101271E+00
         21   -1    0    0  502  501  0.00000000000E+00  0.00000000000E+00  0.78188992772E+02  0.78188992772E+02  0.00000000000E+00 0. -1.
         21   -1    0    0  501  502 -0.00000000000E+00 -0.00000000000E+00 -0.93245907497E+03  0.93245907497E+03  0.00000000000E+00 0. -1.
         25    1    1    2    0    0  0.62108358189E+02 -0.34108181262E+02 -0.25284237328E+03  0.29081795322E+03  0.12500000000E+03 0.  0.
         25    1    1    2    0    0  0.46421188039E+02  0.13670624087E+03 -0.21828018858E+03  0.29002545357E+03  0.12500000000E+03 0.  0.
         25    1    1    2    0    0 -0.10852954623E+03 -0.10259805961E+03 -0.38314752034E+03  0.42980466096E+03  0.12500000000E+03 0.  0.
</event>
<event>
 5    0  0.5547141E-005  0.3348092E+03  0.7546771E-02  0.1069029E+00
         21   -1    0    0  502  501  0.00000000000E+00  0.00000000000E+00  0.29720829787E+03  0.29720829787E+03  0.00000000000E+00 0. -1.
         21   -1    0    0  501  502 -0.00000000000E+00 -0.00000000000E+00 -0.37716720044E+03  0.37716720044E+03  0.00000000000E+00 0. -1.
         25    1    1    2    0    0  0.18696079291E+02  0.26961372451E+02 -0.10302864144E+03  0.16527661644E+03  0.12500000000E+03 0.  0.
         25    1    1    2    0    0  0.13184980092E+03 -0.47590348645E+02 -0.15516088580E+03  0.24361673130E+03  0.12500000000E+03 0.  0.
         25    1    1    2    0    0 -0.15054588021E+03  0.20628976194E+02  0.17823062466E+03  0.26548215058E+03  0.12500000000E+03 0.  0.
</event>
<event>
 5    0  0.5808855E-005  0.3079922E+03  0.7546771E-02  0.1081312E+00
         21   -1    0    0  502  501  0.00000000000E+00  0.00000000000E+00  0.74774668967E+03  0.74774668967E+03  0.00000000000E+00 0.  1.
         21   -1    0    0  501  502 -0.00000000000E+00 -0.00000000000E+00 -0.12686003899E+03  0.12686003899E+03  0.00000000000E+00 0.  1.
         25    1    1    2    0    0  0.17278865650E+03  0.79499465480E+02  0.28995410830E+03  0.36861154316E+03  0.12500000000E+03 0.  0.
         25    1    1    2    0    0 -0.50392561997E+02 -0.14243414743E+03  0.18578402396E+03  0.27012515658E+03  0.12500000000E+03 0.  0.
         25    1    1    2    0    0 -0.12239609450E+03  0.62934681955E+02  0.14514851841E+03  0.23587002891E+03  0.12500000000E+03 0.  0.
</event>
<event>
 5    0  0.5547141E-005  0.3556170E+03  0.7546771E-02  0.1060333E+00
         21   -1    0    0  502  501  0.00000000000E+00  0.00000000000E+00  0.70976743870E+03  0.70976743870E+03  0.00000000000E+00 0.  1.
         21   -1    0    0  501  502 -0.00000000000E+00 -0.00000000000E+00 -0.17817586513E+03  0.17817586513E+03  0.00000000000E+00 0.  1.
         25    1    1    2    0    0 -0.13219482253E+03  0.87732975710E+02  0.43958442534E+03  0.48376855327E+03  0.12500000000E+03 0.  0.
         25    1    1    2    0    0 -0.62476631833E+01 -0.10857144981E+03 -0.45135126508E+02  0.17172353553E+03  0.12500000000E+03 0.  0.
         25    1    1    2    0    0  0.13844248571E+03  0.20838474098E+02  0.13714227473E+03  0.23245121504E+03  0.12500000000E+03 0.  0.
</event>
<event>
 5    0  0.5547141E-005  0.2572869E+03  0.7546771E-02  0.1108784E+00
         21   -1    0    0  502  501  0.00000000000E+00  0.00000000000E+00  0.38315959837E+02  0.38315959837E+02  0.00000000000E+00 0. -1.
         21   -1    0    0  501  502 -0.00000000000E+00 -0.00000000000E+00 -0.17276488967E+04  0.17276488967E+04  0.00000000000E+00 0. -1.
         25    1    1    2    0    0 -0.67944465799E+02  0.41755123286E+02 -0.91791723405E+03  0.92981556737E+03  0.12500000000E+03 0.  0.
         25    1    1    2    0    0 -0.39035285704E+02 -0.73376168736E+02 -0.43796178686E+03  0.46297229120E+03  0.12500000000E+03 0.  0.
         25    1    1    2    0    0  0.10697975150E+03  0.31621045450E+02 -0.33345391592E+03  0.37317699794E+03  0.12500000000E+03 0.  0.
</event>
<event>
 5    0  0.5547141E-005  0.2737844E+03  0.7546771E-02  0.1099133E+00
         21   -1    0    0  502  501  0.00000000000E+00  0.00000000000E+00  0.92420701111E+03  0.92420701111E+03  0.00000000000E+00 0. -1.
         21   -1    0    0  501  502 -0.00000000000E+00 -0.00000000000E+00 -0.81105074079E+02  0.81105074079E+02  0.00000000000E+00 0. -1.
         25    1    1    2    0    0  0.73135138336E+02 -0.17297582242E+02  0.21329800680E+03  0.25839697079E+03  0.12500000000E+03 0.  0.
         25    1    1    2    0    0 -0.18039821787E+03 -0.38971424137E+02  0.40852939375E+03  0.46538538274E+03  0.12500000000E+03 0.  0.
         25    1    1    2    0    0  0.10726307953E+03  0.56269006379E+02  0.22127453647E+03  0.28152973165E+03  0.12500000000E+03 0.  0.
</event>
<event>
 5    0  0.5547141E-005  0.4118706E+03  0.7546771E-02  0.1039745E+00
         21   -1    0    0  502  501  0.00000000000E+00  0.00000000000E+00  0.78630387213E+03  0.78630387213E+03  0.00000000000E+00 0.  1.
         21   -1    0    0  501  502 -0.00000000000E+00 -0.00000000000E+00 -0.21574024131E+03  0.21574024131E+03  0.00000000000E+00 0.  1.
         25    1    1    2    0    0  0.27129976635E+03  0.10189255816E+03  0.22430070796E+03  0.38719693209E+03  0.12500000000E+03 0.  0.
         25    1    1    2    0    0 -0.15955965614E+03 -0.29330347622E+02 -0.19769527409E+02  0.20575564968E+03  0.12500000000E+03 0.  0.
         25    1    1    2    0    0 -0.11174011021E+03 -0.72562210534E+02  0.36603245027E+03  0.40909153166E+03  0.12500000000E+03 0.  0.
</event>
<event>
 5    0  0.5547141E-005  0.2883524E+03  0.7546771E-02  0.1091212E+00
         21   -1    0    0  502  501  0.00000000000E+00  0.00000000000E+00  0.68019985551E+03  0.68019985551E+03  0.00000000000E+00 0. -1.
         21   -1    0    0  501  502 -0.00000000000E+00 -0.00000000000E+00 -0.12223926440E+03  0.12223926440E+03  0.00000000000E+00 0. -1.
         25    1    1    2    0    0 -0.71925532476E+02  0.17223306092E+03  0.21524996027E+03  0.31111903653E+03  0.12500000000E+03 0.  0.
         25    1    1    2    0    0  0.10804477883E+03 -0.11668197570E+03  0.14798022280E+03  0.25062223370E+03  0.12500000000E+03 0.  0.
         25    1    1    2    0    0 -0.36119246353E+02 -0.55551085222E+02  0.19473040805E+03  0.24069784969E+03  0.12500000000E+03 0.  0.
</event>
<event>
 5    0  0.5547141E-005  0.2746800E+03  0.7546771E-02  0.1098631E+00
         21   -1    0    0  502  501  0.00000000000E+00  0.00000000000E+00  0.80789501381E+03  0.80789501381E+03  0.00000000000E+00 0. -1.
         21   -1    0    0  501  502 -0.00000000000E+00 -0.00000000000E+00 -0.93389769990E+02  0.93389769990E+02  0.00000000000E+00 0. -1.
         25    1    1    2    0    0 -0.69203208190E+02 -0.11190739653E+03  0.17420935720E+03  0.25156758448E+03  0.12500000000E+03 0.  0.
         25    1    1    2    0    0  0.70304582371E+02  0.17048498200E+03  0.33054503863E+03  0.39861370518E+03  0.12500000000E+03 0.  0.
         25    1    1    2    0    0 -0.11013741810E+01 -0.58577585470E+02  0.20975084798E+03  0.25110349415E+03  0.12500000000E+03 0.  0.
</event>
<event>
 5    0  0.5547141E-005  0.2721218E+03  0.7546771E-02  0.1100071E+00
         21   -1    0    0  502  501  0.00000000000E+00  0.00000000000E+00  0.83448404601E+02  0.83448404601E+02  0.00000000000E+00 0. -1.
         21   -1    0    0  501  502 -0.00000000000E+00 -0.00000000000E+00 -0.88737801475E+03  0.88737801475E+03  0.00000000000E+00 0. -1.
         25    1    1    2    0    0  0.11564578425E+03  0.31886344296E+02 -0.18215320740E+03  0.25138710654E+03  0.12500000000E+03 0.  0.
         25    1    1    2    0    0 -0.10740998924E+03 -0.96279683589E+02 -0.49273846305E+03  0.52841543906E+03  0.12500000000E+03 0.  0.
         25    1    1    2    0    0 -0.82357950053E+01  0.64393339293E+02 -0.12903793970E+03  0.19102387376E+03  0.12500000000E+03 0.  0.
</event>
<event>
 5    0  0.5547141E-005  0.4232890E+03  0.7546771E-02  0.1036001E+00
         21   -1    0    0  502  501  0.00000000000E+00  0.00000000000E+00  0.20334994741E+03  0.20334994741E+03  0.00000000000E+00 0.  1.
         21   -1    0    0  501  502 -0.00000000000E+00 -0.00000000000E+00 -0.88110963874E+03  0.88110963874E+03  0.00000000000E+00 0.  1.
         25    1    1    2    0    0  0.23011760760E+03  0.38494243734E+02 -0.17291772588E+03  0.31616682313E+03  0.12500000000E+03 0.  0.
         25    1    1    2    0    0 -0.13970208352E+03  0.21288431111E+03 -0.26416064654E+03  0.38761095087E+03  0.12500000000E+03 0.  0.
         25    1    1    2    0    0 -0.90415524082E+02 -0.25137855484E+03 -0.24068131891E+03  0.38068181215E+03  0.12500000000E+03 0.  0.
</event>
<event>
 5    0  0.5547141E-005  0.2911166E+03  0.7546771E-02  0.1089768E+00
         21   -1    0    0  502  501  0.00000000000E+00  0.00000000000E+00  0.68665880239E+03  0.68665880239E+03  0.00000000000E+00 0.  1.
         21   -1    0    0  501  502 -0.00000000000E+00 -0.00000000000E+00 -0.12342208767E+03  0.12342208767E+03  0.00000000000E+00 0.  1.
         25    1    1    2    0    0  0.94679364680E+02 -0.53315670808E+02  0.10447455130E+03  0.19582306993E+03  0.12500000000E+03 0.  0.
         25    1    1    2    0    0 -0.11382980769E+03 -0.12790040678E+02  0.43849464510E+03  0.47013122002E+03  0.12500000000E+03 0.  0.
         25    1    1    2    0    0  0.19150443015E+02  0.66105711486E+02  0.20267518333E+02  0.14412660011E+03  0.12500000000E+03 0.  0.
</event>
<event>
 5    0  0.5547141E-005  0.2692841E+03  0.7546771E-02  0.1101690E+00
         21   -1    0    0  502  501  0.00000000000E+00  0.00000000000E+00  0.45238651479E+03  0.45238651479E+03  0.00000000000E+00 0.  1.
         21   -1    0    0  501  502 -0.00000000000E+00 -0.00000000000E+00 -0.16029201316E+03  0.16029201316E+03  0.00000000000E+00 0.  1.
         25    1    1    2    0    0  0.10221145989E+03  0.10678573251E+03  0.10099308111E+03  0.21834600439E+03  0.12500000000E+03 0.  0.
         25    1    1    2    0    0 -0.12827693046E+03 -0.45133957136E+02  0.43709370537E+02  0.18980925701E+03  0.12500000000E+03 0.  0.
         25    1    1    2    0    0  0.26065470577E+02 -0.61651775373E+02  0.14739204998E+03  0.20452326655E+03  0.12500000000E+03 0.  0.
</event>
<event>
 5    0  0.5547141E-005  0.3128676E+03  0.7546771E-02  0.1078979E+00
         21   -1    0    0  502  501  0.00000000000E+00  0.00000000000E+00  0.30705354449E+03  0.30705354449E+03  0.00000000000E+00 0.  1.
         21   -1    0    0  501  502 -0.00000000000E+00 -0.00000000000E+00 -0.31879178217E+03  0.31879178217E+03  0.00000000000E+00 0.  1.
         25    1    1    2    0    0  0.10614077139E+03 -0.14013727339E+03 -0.43588524821E+02  0.22006653139E+03  0.12500000000E+03 0.  0.
         25    1    1    2    0    0 -0.15189485811E+03 -0.15291698059E+01  0.67827997219E+02  0.20808657690E+03  0.12500000000E+03 0.  0.
         25    1    1    2    0    0  0.45754086721E+02  0.14166644319E+03 -0.35977710078E+02  0.19769221836E+03  0.12500000000E+03 0.  0.
</event>
<event>
 5    0  0.5547141E-005  0.4267391E+03  0.7546771E-02  0.1034895E+00
         21   -1    0    0  502  501  0.00000000000E+00  0.00000000000E+00  0.80309741987E+03  0.80309741987E+03  0.00000000000E+00 0. -1.
         21   -1    0    0  501  502 -0.00000000000E+00 -0.00000000000E+00 -0.22675485347E+03  0.22675485347E+03  0.00000000000E+00 0. -1.
         25    1    1    2    0    0 -0.19265473778E+03 -0.77341817431E+02  0.23457766740E+03  0.33726738170E+03  0.12500000000E+03 0.  0.
         25    1    1    2    0    0  0.13666273299E+03 -0.19018048710E+03  0.27984753634E+03  0.38572654025E+03  0.12500000000E+03 0.  0.
         25    1    1    2    0    0  0.55992004797E+02  0.26752230453E+03  0.61917362652E+02  0.30685835139E+03  0.12500000000E+03 0.  0.
</event>
<event>
 5    0  0.5617091E-005  0.3349297E+03  0.7546771E-02  0.1068976E+00
         21   -1    0    0  502  501  0.00000000000E+00  0.00000000000E+00  0.60359995276E+03  0.60359995276E+03  0.00000000000E+00 0. -1.
         21   -1    0    0  501  502 -0.00000000000E+00 -0.00000000000E+00 -0.18584806738E+03  0.18584806738E+03  0.00000000000E+00 0. -1.
         25    1    1    2    0    0  0.16800279237E+03 -0.18170436820E+03  0.90196211109E+02  0.29155063396E+03  0.12500000000E+03 0.  0.
         25    1    1    2    0    0 -0.19927424187E+02  0.95103754945E+02  0.10286441045E+03  0.18880655014E+03  0.12500000000E+03 0.  0.
         25    1    1    2    0    0 -0.14807536818E+03  0.86600613253E+02  0.22469126382E+03  0.30909083603E+03  0.12500000000E+03 0.  0.
</event>
<event>
 5    0  0.5547141E-005  0.3544575E+03  0.7546771E-02  0.1060800E+00
         21   -1    0    0  502  501  0.00000000000E+00  0.00000000000E+00  0.61696522812E+03  0.61696522812E+03  0.00000000000E+00 0.  1.
         21   -1    0    0  501  502 -0.00000000000E+00 -0.00000000000E+00 -0.20364211763E+03  0.20364211763E+03  0.00000000000E+00 0.  1.
         25    1    1    2    0    0 -0.13099058601E+03  0.13727354522E+03  0.34013787761E+02  0.22974877061E+03  0.12500000000E+03 0.  0.
         25    1    1    2    0    0  0.18183675711E+03 -0.20336300347E+03  0.22163267721E+03  0.37305115068E+03  0.12500000000E+03 0.  0.
         25    1    1    2    0    0 -0.50846171106E+02  0.66089458248E+02  0.15767664551E+03  0.21780742446E+03  0.12500000000E+03 0.  0.
</event>
<event>
 5    0  0.5753467E-005  0.3022315E+03  0.7546771E-02  0.1084130E+00
         21   -1    0    0  502  501  0.00000000000E+00  0.00000000000E+00  0.36214525294E+03  0.36214525294E+03  0.00000000000E+00 0. -1.
         21   -1    0    0  501  502 -0.00000000000E+00 -0.00000000000E+00 -0.25222994403E+03  0.25222994403E+03  0.00000000000E+00 0. -1.
         25    1    1    2    0    0 -0.42616945156E+02  0.56456618364E+02 -0.73266322005E+02  0.16123432548E+03  0.12500000000E+03 0.  0.
         25    1    1    2    0    0  0.12752450238E+03 -0.15265288540E+03  0.11385844409E+03  0.26106349308E+03  0.12500000000E+03 0.  0.
         25    1    1    2    0    0 -0.84907557226E+02  0.96196267034E+02  0.69323186829E+02  0.19207737841E+03  0.12500000000E+03 0.  0.
</event>
<event>
 5    0  0.5547141E-005  0.2449277E+03  0.7546771E-02  0.1116553E+00
         21   -1    0    0  502  501  0.00000000000E+00  0.00000000000E+00  0.47420438830E+03  0.47420438830E+03  0.00000000000E+00 0. -1.
         21   -1    0    0  501  502 -0.00000000000E+00 -0.00000000000E+00 -0.12650577748E+03  0.12650577748E+03  0.00000000000E+00 0. -1.
         25    1    1    2    0    0  0.10704300134E+03  0.18085498174E+02  0.26850770148E+03  0.31544678654E+03  0.12500000000E+03 0.  0.
         25    1    1    2    0    0 -0.45475707335E+02 -0.19005029207E+02  0.46003656279E+02  0.14202312306E+03  0.12500000000E+03 0.  0.
         25    1    1    2    0    0 -0.61567294001E+02  0.91953103313E+00  0.33187253060E+02  0.14324025619E+03  0.12500000000E+03 0.  0.
</event>
<event>
 5    0  0.5547141E-005  0.3367816E+03  0.7546771E-02  0.1068175E+00
         21   -1    0    0  502  501  0.00000000000E+00  0.00000000000E+00  0.24436856634E+03  0.24436856634E+03  0.00000000000E+00 0.  1.
         21   -1    0    0  501  502 -0.00000000000E+00 -0.00000000000E+00 -0.46414261214E+03  0.46414261214E+03  0.00000000000E+00 0.  1.
         25    1    1    2    0    0  0.96749487309E+02 -0.16425348476E+03  0.40254675912E+02  0.23148457720E+03  0.12500000000E+03 0.  0.
         25    1    1    2    0    0 -0.17566425874E+03  0.83038425167E+02 -0.14246257625E+03  0.27142936002E+03  0.12500000000E+03 0.  0.
         25    1    1    2    0    0  0.78914771426E+02  0.81215059590E+02 -0.11756614546E+03  0.20559724125E+03  0.12500000000E+03 0.  0.
</event>
<event>
 5    0  0.5581495E-005  0.2476135E+03  0.7546771E-02  0.1114822E+00
         21   -1    0    0  502  501  0.00000000000E+00  0.00000000000E+00  0.48810398690E+02  0.48810398690E+02  0.00000000000E+00 0. -1.
         21   -1    0    0  501  502 -0.00000000000E+00 -0.00000000000E+00 -0.12561344600E+04  0.12561344600E+04  0.00000000000E+00 0. -1.
         25    1    1    2    0    0 -0.20905723372E+01 -0.66045377083E+02 -0.35475797118E+03  0.38189603355E+03  0.12500000000E+03 0.  0.
         25    1    1    2    0    0 -0.24803906581E+01 -0.58572917148E+02 -0.59476558749E+03  0.61058008731E+03  0.12500000000E+03 0.  0.
         25    1    1    2    0    0  0.45709629953E+01  0.12461829423E+03 -0.25780050266E+03  0.31246873785E+03  0.12500000000E+03 0.  0.
</event>
<event>
 5    0  0.5547141E-005  0.3306050E+03  0.7546771E-02  0.1070869E+00
         21   -1    0    0  502  501  0.00000000000E+00  0.00000000000E+00  0.13814572880E+03  0.13814572880E+03  0.00000000000E+00 0.  1.
         21   -1    0    0  501  502 -0.00000000000E+00 -0.00000000000E+00 -0.79119129755E+03  0.79119129755E+03  0.00000000000E+00 0.  1.
         25    1    1    2    0    0 -0.20858306304E+03  0.57280109152E+02 -0.32106258609E+03  0.40680964747E+03  0.12500000000E+03 0.  0.
         25    1    1    2    0    0  0.54812392122E+02  0.83441793101E+02 -0.11928890305E+03  0.19955393646E+03  0.12500000000E+03 0.  0.
         25    1    1    2    0    0  0.15377067092E+03 -0.14072190225E+03 -0.21269407961E+03  0.32297344242E+03  0.12500000000E+03 0.  0.
</event>
<event>
 5    0  0.5547141E-005  0.3796210E+03  0.7546771E-02  0.1051074E+00
         21   -1    0    0  502  501  0.00000000000E+00  0.00000000000E+00  0.86210252184E+03  0.86210252184E+03  0.00000000000E+00 0. -1.
         21   -1    0    0  501  502 -0.00000000000E+00 -0.00000000000E+00 -0.16716353933E+03  0.16716353933E+03  0.00000000000E+00 0. -1.
         25    1    1    2    0    0  0.19508379281E+03  0.24321513685E+03  0.25787711253E+03  0.42348186995E+03  0.12500000000E+03 0.  0.
         25    1    1    2    0    0 -0.15159235370E+03 -0.11530547727E+03  0.29796363860E+03  0.37507722500E+03  0.12500000000E+03 0.  0.
         25    1    1    2    0    0 -0.43491439110E+02 -0.12790965959E+03  0.13909823138E+03  0.23070696622E+03  0.12500000000E+03 0.  0.
</event>
<event>
 5    0  0.5632512E-005  0.2984385E+03  0.7546771E-02  0.1086024E+00
         21   -1    0    0  502  501  0.00000000000E+00  0.00000000000E+00  0.15549417823E+03  0.15549417823E+03  0.00000000000E+00 0. -1.
         21   -1    0    0  501  502 -0.00000000000E+00 -0.00000000000E+00 -0.57279021842E+03  0.57279021842E+03  0.00000000000E+00 0. -1.
         25    1    1    2    0    0  0.14919493344E+03 -0.84036232451E+02 -0.52861314582E+02  0.21849607572E+03  0.12500000000E+03 0.  0.
         25    1    1    2    0    0 -0.97985259073E+02 -0.36552482789E+02 -0.23988405369E+03  0.29001130014E+03  0.12500000000E+03 0.  0.
         25    1    1    2    0    0 -0.51209674363E+02  0.12058871524E+03 -0.12455067191E+03  0.21977702079E+03  0.12500000000E+03 0.  0.
</event>
<event>
 5    0  0.5547141E-005  0.3540299E+03  0.7546771E-02  0.1060973E+00
         21   -1    0    0  502  501  0.00000000000E+00  0.00000000000E+00  0.83015525546E+02  0.83015525546E+02  0.00000000000E+00 0.  1.
         21   -1    0    0  501  502 -0.00000000000E+00 -0.00000000000E+00 -0.15098040703E+04  0.15098040703E+04  0.00000000000E+00 0.  1.
         25    1    1    2    0    0 -0.10898412240E+02  0.18641841463E+03 -0.23529188645E+03  0.32535806818E+03  0.12500000000E+03 0.  0.
         25    1    1    2    0    0  0.53505137374E+02  0.33429225028E+02 -0.69143200109E+03  0.70546688437E+03  0.12500000000E+03 0.  0.
         25    1    1    2    0    0 -0.42606725134E+02 -0.21984763966E+03 -0.50006465718E+03  0.56199464325E+03  0.12500000000E+03 0.  0.
</event>
<event>
 5    0  0.5547141E-005  0.4523255E+03  0.7546771E-02  0.1027031E+00
         21   -1    0    0  502  501  0.00000000000E+00  0.00000000000E+00  0.13374326535E+03  0.13374326535E+03  0.00000000000E+00 0.  1.
         21   -1    0    0  501  502 -0.00000000000E+00 -0.00000000000E+00 -0.15297844398E+04  0.15297844398E+04  0.00000000000E+00 0.  1.
         25    1    1    2    0    0 -0.63213729798E+02  0.14168279278E+03 -0.12678609667E+04  0.12834198145E+04  0.12500000000E+03 0.  0.
         25    1    1    2    0    0  0.13419769269E+03 -0.78555945231E+02 -0.55407938548E+02  0.20706302641E+03  0.12500000000E+03 0.  0.
         25    1    1    2    0    0 -0.70983962887E+02 -0.63126847545E+02 -0.72772269202E+02  0.17304486422E+03  0.12500000000E+03 0.  0.
</event>
<event>
 5    0  0.5547141E-005  0.2480240E+03  0.7546771E-02  0.1114560E+00
         21   -1    0    0  502  501  0.00000000000E+00  0.00000000000E+00  0.77623071507E+02  0.77623071507E+02  0.00000000000E+00 0. -1.
         21   -1    0    0  501  502 -0.00000000000E+00 -0.00000000000E+00 -0.79249499917E+03  0.79249499917E+03  0.00000000000E+00 0. -1.
         25    1    1    2    0    0 -0.55051161244E+02 -0.48629588670E+02 -0.41199207967E+03  0.43675844692E+03  0.12500000000E+03 0.  0.
         25    1    1    2    0    0  0.19890191642E+02  0.82695283530E+02 -0.24338203482E+03  0.28652040855E+03  0.12500000000E+03 0.  0.
         25    1    1    2    0    0  0.35160969602E+02 -0.34065694860E+02 -0.59497813175E+02  0.14683921521E+03  0.12500000000E+03 0.  0.
</event>
<event>
 5    0  0.5547141E-005  0.2341498E+03  0.7546771E-02  0.1123753E+00
         21   -1    0    0  502  501  0.00000000000E+00  0.00000000000E+00  0.21647659597E+03  0.21647659597E+03  0.00000000000E+00 0.  1.
         21   -1    0    0  501  502 -0.00000000000E+00 -0.00000000000E+00 -0.25326584976E+03  0.25326584976E+03  0.00000000000E+00 0.  1.
         25    1    1    2    0    0  0.40228601651E+02 -0.28035131684E+02 -0.78872122904E+02  0.15572450279E+03  0.12500000000E+03 0.  0.
         25    1    1    2    0    0  0.30622040330E+02 -0.37267025060E+02  0.73906005699E+02  0.15301515673E+03  0.12500000000E+03 0.  0.
         25    1    1    2    0    0 -0.70850641981E+02  0.65302156744E+02 -0.31823136587E+02  0.16100278621E+03  0.12500000000E+03 0.  0.
</event>
<event>
 5    0  0.5547141E-005  0.2938819E+03  0.7546771E-02  0.1088340E+00
         21   -1    0    0  502  501  0.00000000000E+00  0.00000000000E+00  0.17658332590E+03  0.17658332590E+03  0.00000000000E+00 0. -1.
         21   -1    0    0  501  502 -0.00000000000E+00 -0.00000000000E+00 -0.48909819079E+03  0.48909819079E+03  0.00000000000E+00 0. -1.
         25    1    1    2    0    0 -0.88879256621E+02 -0.13983361564E+03 -0.20952506283E+02  0.20860721425E+03  0.12500000000E+03 0.  0.
         25    1    1    2    0    0  0.27600407086E+02 -0.30897914039E+02 -0.10643385695E+03  0.16932108394E+03  0.12500000000E+03 0.  0.
         25    1    1    2    0    0  0.61278849535E+02  0.17073152968E+03 -0.18512850166E+03  0.28775321849E+03  0.12500000000E+03 0.  0.
</event>
<event>
 5    0  0.5547141E-005  0.3164291E+03  0.7546771E-02  0.1077305E+00
         21   -1    0    0  502  501  0.00000000000E+00  0.00000000000E+00  0.21923638171E+03  0.21923638171E+03  0.00000000000E+00 0.  1.
         21   -1    0    0  501  502 -0.00000000000E+00 -0.00000000000E+00 -0.45670964106E+03  0.45670964106E+03  0.00000000000E+00 0.  1.
         25    1    1    2    0    0  0.63752350876E+02 -0.82159632395E+02  0.52350426987E+02  0.17082193841E+03  0.12500000000E+03 0.  0.
         25    1    1    2    0    0 -0.29034932202E+02  0.98437594601E+02  0.25532712662E+02  0.16373731015E+03  0.12500000000E+03 0.  0.
         25    1    1    2    0    0 -0.34717418674E+02 -0.16277962206E+02 -0.31535639900E+03  0.34138677420E+03  0.12500000000E+03 0.  0.
</event>
<event>
 5    0  0.5547141E-005  0.2345851E+03  0.7546771E-02  0.1123454E+00
         21   -1    0    0  502  501  0.00000000000E+00  0.00000000000E+00  0.32098493547E+03  0.32098493547E+03  0.00000000000E+00 0. -1.
         21   -1    0    0  501  502 -0.00000000000E+00 -0.00000000000E+00 -0.17144155179E+03  0.17144155179E+03  0.00000000000E+00 0. -1.
         25    1    1    2    0    0 -0.33062367210E+02  0.48661277467E+02  0.10995694325E+02  0.13858912419E+03  0.12500000000E+03 0.  0.
         25    1    1    2    0    0  0.10287279394E+03 -0.76711618692E+02  0.66147252468E+02  0.19096581680E+03  0.12500000000E+03 0.  0.
         25    1    1    2    0    0 -0.69810426732E+02  0.28050341224E+02  0.72400436891E+02  0.16287154627E+03  0.12500000000E+03 0.  0.
</event>
<event>
 5    0  0.5547141E-005  0.2501915E+03  0.7546771E-02  0.1113184E+00
         21   -1    0    0  502  501  0.00000000000E+00  0.00000000000E+00  0.53041927222E+03  0.53041927222E+03  0.00000000000E+00 0.  1.
         21   -1    0    0  501  502 -0.00000000000E+00 -0.00000000000E+00 -0.11801193919E+03  0.11801193919E+03  0.00000000000E+00 0.  1.
         25    1    1    2    0    0 -0.23257201438E+02  0.70236711214E+02  0.38586457504E+02  0.15029307277E+03  0.12500000000E+03 0.  0.
         25    1    1    2    0    0  0.76122791517E+02  0.41218032443E+02  0.14932924710E+03  0.21311459271E+03  0.12500000000E+03 0.  0.
         25    1    1    2    0    0 -0.52865590078E+02 -0.11145474366E+03  0.22449162842E+03  0.28502354592E+03  0.12500000000E+03 0.  0.
</event>
<event>
 5    0  0.5547141E-005  0.3817515E+03  0.7546771E-02  0.1050288E+00
         21   -1    0    0  502  501  0.00000000000E+00  0.00000000000E+00  0.64026586494E+03  0.64026586494E+03  0.00000000000E+00 0.  1.
         21   -1    0    0  501  502 -0.00000000000E+00 -0.00000000000E+00 -0.22761514986E+03  0.22761514986E+03  0.00000000000E+00 0.  1.
         25    1    1    2    0    0  0.19033502112E+03  0.15880623480E+03  0.28313059275E+03  0.39652840129E+03  0.12500000000E+03 0.  0.
         25    1    1    2    0    0 -0.21085122183E+03 -0.49282373945E+02 -0.14555435256E+02  0.25044730149E+03  0.12500000000E+03 0.  0.
         25    1    1    2    0    0  0.20516200702E+02 -0.10952386086E+03  0.14407555759E+03  0.22090531203E+03  0.12500000000E+03 0.  0.
</event>
<event>
 5    0  0.5616308E-005  0.3267597E+03  0.7546771E-02  0.1072580E+00
         21   -1    0    0  502  501  0.00000000000E+00  0.00000000000E+00  0.21817015263E+03  0.21817015263E+03  0.00000000000E+00 0.  1.
         21   -1    0    0  501  502 -0.00000000000E+00 -0.00000000000E+00 -0.48939739421E+03  0.48939739421E+03  0.00000000000E+00 0.  1.
         25    1    1    2    0    0 -0.14569263374E+03  0.73445618985E+02  0.43862208927E+02  0.21016540117E+03  0.12500000000E+03 0.  0.
         25    1    1    2    0    0  0.20717419101E+02 -0.38122950915E+01 -0.27560866394E+03  0.30336262243E+03  0.12500000000E+03 0.  0.
         25    1    1    2    0    0  0.12497521464E+03 -0.69633323894E+02 -0.39480786569E+02  0.19403952324E+03  0.12500000000E+03 0.  0.
</event>
<event>
 5    0  0.5547141E-005  0.3202931E+03  0.7546771E-02  0.1075515E+00
         21   -1    0    0  502  501  0.00000000000E+00  0.00000000000E+00  0.12983848834E+04  0.12983848834E+04  0.00000000000E+00 0.  1.
         21   -1    0    0  501  502 -0.00000000000E+00 -0.00000000000E+00 -0.79011736180E+02  0.79011736180E+02  0.00000000000E+00 0.  1.
         25    1    1    2    0    0  0.12834176712E+03 -0.35550775621E+02  0.16073150682E+03  0.24330039893E+03  0.12500000000E+03 0.  0.
         25    1    1    2    0    0 -0.27513048099E+02  0.94865622133E+02  0.18637685412E+03  0.24518928572E+03  0.12500000000E+03 0.  0.
         25    1    1    2    0    0 -0.10082871902E+03 -0.59314846512E+02  0.87226478626E+03  0.88890693492E+03  0.12500000000E+03 0.  0.
</event>
<event>
 5    0  0.5547141E-005  0.3849236E+03  0.7546771E-02  0.1049129E+00
         21   -1    0    0  502  501  0.00000000000E+00  0.00000000000E+00  0.65253282308E+03  0.65253282308E+03  0.00000000000E+00 0.  1.
         21   -1    0    0  501  502 -0.00000000000E+00 -0.00000000000E+00 -0.22706319599E+03  0.22706319599E+03  0.00000000000E+00 0.  1.
         25    1    1    2    0    0  0.22621294494E+03  0.77237553014E+02  0.21912353287E+03  0.34753137802E+03  0.12500000000E+03 0.  0.
         25    1    1    2    0    0  0.63490949532E+02 -0.53591679424E+02 -0.73194639777E+01  0.15027223073E+03  0.12500000000E+03 0.  0.
         25    1    1    2    0    0 -0.28970389447E+03 -0.23645873590E+02  0.21366555820E+03  0.38179241031E+03  0.12500000000E+03 0.  0.
</event>
<event>
 5    0  0.5547141E-005  0.6184121E+03  0.7546771E-02  0.9867926E-01
         21   -1    0    0  502  501  0.00000000000E+00  0.00000000000E+00  0.45336473609E+03  0.45336473609E+03  0.00000000000E+00 0. -1.
         21   -1    0    0  501  502 -0.00000000000E+00 -0.00000000000E+00 -0.84354490058E+03  0.84354490058E+03  0.00000000000E+00 0. -1.
         25    1    1    2    0    0  0.20500028701E+03 -0.33707353584E+01  0.35046433781E+03  0.42483730016E+03  0.12500000000E+03 0.  0.
         25    1    1    2    0    0 -0.22310118071E+03 -0.74110811277E+02 -0.63937116420E+03  0.69259442301E+03  0.12500000000E+03 0.  0.
         25    1    1    2    0    0  0.18100893695E+02  0.77481546635E+02 -0.10127333810E+03  0.17947791349E+03  0.12500000000E+03 0.  0.
</event>
<event>
 5    0  0.5547141E-005  0.2227323E+03  0.7546771E-02  0.1131862E+00
         21   -1    0    0  502  501  0.00000000000E+00  0.00000000000E+00  0.29770508007E+02  0.29770508007E+02  0.00000000000E+00 0. -1.
         21   -1    0    0  501  502 -0.00000000000E+00 -0.00000000000E+00 -0.16664034339E+04  0.16664034339E+04  0.00000000000E+00 0. -1.
         25    1    1    2    0    0 -0.30288570866E+01  0.28412585016E+02 -0.45062280571E+03  0.46851079175E+03  0.12500000000E+03 0.  0.
         25    1    1    2    0    0  0.13527684394E+02  0.22465973664E+02 -0.23862266574E+03  0.27065382839E+03  0.12500000000E+03 0.  0.
         25    1    1    2    0    0 -0.10498827308E+02 -0.50878558680E+02 -0.94738745445E+03  0.95700932177E+03  0.12500000000E+03 0.  0.
</event>
<event>
 5    0  0.5547141E-005  0.3967188E+03  0.7546771E-02  0.1044922E+00
         21   -1    0    0  502  501  0.00000000000E+00  0.00000000000E+00  0.17264626917E+03  0.17264626917E+03  0.00000000000E+00 0. -1.
         21   -1    0    0  501  502 -0.00000000000E+00 -0.00000000000E+00 -0.91160852836E+03  0.91160852836E+03  0.00000000000E+00 0. -1.
         25    1    1    2    0    0 -0.84670579493E+02 -0.42119884273E+02 -0.57229004152E+02  0.16686326917E+03  0.12500000000E+03 0.  0.
         25    1    1    2    0    0 -0.22885928949E+03  0.67501987447E+02 -0.36659344806E+03  0.45491630972E+03  0.12500000000E+03 0.  0.
         25    1    1    2    0    0  0.31352986898E+03 -0.25382103174E+02 -0.31513980698E+03  0.46247521863E+03  0.12500000000E+03 0.  0.
</event>
<event>
 5    0  0.5994551E-005  0.4728369E+03  0.7546771E-02  0.1021123E+00
         21   -1    0    0  502  501  0.00000000000E+00  0.00000000000E+00  0.40011443632E+03  0.40011443632E+03  0.00000000000E+00 0.  1.
         21   -1    0    0  501  502 -0.00000000000E+00 -0.00000000000E+00 -0.55877699147E+03  0.55877699147E+03  0.00000000000E+00 0.  1.
         25    1    1    2    0    0  0.96735789260E+02  0.93846046903E+02 -0.28688506399E+03  0.34072413091E+03  0.12500000000E+03 0.  0.
         25    1    1    2    0    0 -0.81355496191E+02  0.20861616300E+03  0.13633082693E+03  0.29043160054E+03  0.12500000000E+03 0.  0.
         25    1    1    2    0    0 -0.15380293068E+02 -0.30246220990E+03 -0.81083180846E+01  0.32773569634E+03  0.12500000000E+03 0.  0.
</event>
<event>
 5    0  0.5547141E-005  0.2959713E+03  0.7546771E-02  0.1087272E+00
         21   -1    0    0  502  501  0.00000000000E+00  0.00000000000E+00  0.53119663714E+03  0.53119663714E+03  0.00000000000E+00 0. -1.
         21   -1    0    0  501  502 -0.00000000000E+00 -0.00000000000E+00 -0.16490878636E+03  0.16490878636E+03  0.00000000000E+00 0. -1.
         25    1    1    2    0    0 -0.15141383646E+02  0.11477204741E+03  0.93350763529E+01  0.17062833298E+03  0.12500000000E+03 0.  0.
         25    1    1    2    0    0  0.90241423307E+02 -0.28990000516E+02  0.33441114265E+02  0.16039714067E+03  0.12500000000E+03 0.  0.
         25    1    1    2    0    0 -0.75100039661E+02 -0.85782046898E+02  0.32351166016E+03  0.36507994986E+03  0.12500000000E+03 0.  0.
</event>
<event>
 5    0  0.5547141E-005  0.2257825E+03  0.7546771E-02  0.1129644E+00
         21   -1    0    0  502  501  0.00000000000E+00  0.00000000000E+00  0.66717316464E+02  0.66717316464E+02  0.00000000000E+00 0. -1.
         21   -1    0    0  501  502 -0.00000000000E+00 -0.00000000000E+00 -0.76408570852E+03  0.76408570852E+03  0.00000000000E+00 0. -1.
         25    1    1    2    0    0  0.77389919055E+02 -0.41360215096E+02 -0.26858120506E+03  0.30896720000E+03  0.12500000000E+03 0.  0.
         25    1    1    2    0    0 -0.66558982338E+02  0.76434310094E+02 -0.28877292972E+03  0.33058600520E+03  0.12500000000E+03 0.  0.
         25    1    1    2    0    0 -0.10830936717E+02 -0.35074094999E+02 -0.14001425728E+03  0.19124981979E+03  0.12500000000E+03 0.  0.
</event>
<event>
 5    0  0.5547141E-005  0.2867146E+03  0.7546771E-02  0.1092077E+00
         21   -1    0    0  502  501  0.00000000000E+00  0.00000000000E+00  0.89945497381E+03  0.89945497381E+03  0.00000000000E+00 0.  1.
         21   -1    0    0  501  502 -0.00000000000E+00 -0.00000000000E+00 -0.91394503232E+02  0.91394503232E+02  0.00000000000E+00 0.  1.
         25    1    1    2    0    0 -0.14507811677E+03 -0.68243131687E+02  0.54060087842E+03  0.57756306559E+03  0.12500000000E+03 0.  0.
         25    1    1    2    0    0  0.66060374697E+02  0.73569855451E+02  0.18387730731E+03  0.24333590134E+03  0.12500000000E+03 0.  0.
         25    1    1    2    0    0  0.79017742069E+02 -0.53267237643E+01  0.83582284848E+02  0.16995051011E+03  0.12500000000E+03 0.  0.
</event>
<event>
 5    0  0.5547141E-005  0.6319757E+03  0.7546771E-02  0.9841201E-01
         21   -1    0    0  502  501  0.00000000000E+00  0.00000000000E+00  0.31707075993E+03  0.31707075993E+03  0.00000000000E+00 0.  1.
         21   -1    0    0  501  502 -0.00000000000E+00 -0.00000000000E+00 -0.12596347018E+04  0.12596347018E+04  0.00000000000E+00 0.  1.
         25    1    1    2    0    0 -0.40915607074E+03  0.16693104621E+03 -0.77569041069E+03  0.90144066785E+03  0.12500000000E+03 0.  0.
         25    1    1    2    0    0  0.12491015191E+03  0.12652673423E+03 -0.21076709830E+01  0.21734995468E+03  0.12500000000E+03 0.  0.
         25    1    1    2    0    0  0.28424591884E+03 -0.29345778043E+03 -0.16476586020E+03  0.45791483920E+03  0.12500000000E+03 0.  0.
</event>
<event>
 5    0  0.5951422E-005  0.2591674E+03  0.7546771E-02  0.1107645E+00
         21   -1    0    0  502  501  0.00000000000E+00  0.00000000000E+00  0.57020669858E+03  0.57020669858E+03  0.00000000000E+00 0.  1.
         21   -1    0    0  501  502 -0.00000000000E+00 -0.00000000000E+00 -0.11779538710E+03  0.11779538710E+03  0.00000000000E+00 0.  1.
         25    1    1    2    0    0 -0.32184089795E+02  0.99861768220E+02  0.29457508524E+02  0.16583405319E+03  0.12500000000E+03 0.  0.
         25    1    1    2    0    0  0.56872585453E+02 -0.42013678294E+02  0.11524471797E+03  0.18413577914E+03  0.12500000000E+03 0.  0.
         25    1    1    2    0    0 -0.24688495658E+02 -0.57848089926E+02  0.30770908499E+03  0.33803225336E+03  0.12500000000E+03 0.  0.
</event>
<event>
 5    0  0.5547141E-005  0.2720176E+03  0.7546771E-02  0.1100130E+00
         21   -1    0    0  502  501  0.00000000000E+00  0.00000000000E+00  0.44328371868E+03  0.44328371868E+03  0.00000000000E+00 0.  1.
         21   -1    0    0  501  502 -0.00000000000E+00 -0.00000000000E+00 -0.16692147346E+03  0.16692147346E+03  0.00000000000E+00 0. -1.
         25    1    1    2    0    0  0.13918315886E+03  0.86334347515E+02  0.84638119329E+02  0.22274241292E+03  0.12500000000E+03 0.  0.
         25    1    1    2    0    0 -0.66722245626E+02 -0.12114716814E+03  0.12567534177E+03  0.22482834772E+03  0.12500000000E+03 0.  0.
         25    1    1    2    0    0 -0.72460913236E+02  0.34812820625E+02  0.66048784119E+02  0.16263443150E+03  0.12500000000E+03 0.  0.
</event>
<event>
 5    0  0.5547141E-005  0.2641506E+03  0.7546771E-02  0.1104675E+00
         21   -1    0    0  502  501  0.00000000000E+00  0.00000000000E+00  0.84888872570E+02  0.84888872570E+02  0.00000000000E+00 0.  1.
         21   -1    0    0  501  502 -0.00000000000E+00 -0.00000000000E+00 -0.82196316191E+03  0.82196316191E+03  0.00000000000E+00 0.  1.
         25    1    1    2    0    0 -0.17895206612E+02 -0.14938479626E+03 -0.22254178857E+03  0.29628686004E+03  0.12500000000E+03 0.  0.
         25    1    1    2    0    0 -0.65983320856E+02  0.74167427877E+02 -0.22922723249E+03  0.27932907135E+03  0.12500000000E+03 0.  0.
         25    1    1    2    0    0  0.83878527468E+02  0.75217368385E+02 -0.28530526829E+03  0.33123610309E+03  0.12500000000E+03 0.  0.
</event>
<event>
 5    0  0.5547141E-005  0.2549920E+03  0.7546771E-02  0.1110190E+00
         21   -1    0    0  502  501  0.00000000000E+00  0.00000000000E+00  0.15291849132E+04  0.15291849132E+04  0.00000000000E+00 0.  1.
         21   -1    0    0  501  502 -0.00000000000E+00 -0.00000000000E+00 -0.42519977416E+02  0.42519977416E+02  0.00000000000E+00 0.  1.
         25    1    1    2    0    0 -0.13081498550E+03 -0.45871250110E+02  0.44760293671E+03  0.48496404090E+03  0.12500000000E+03 0.  0.
         25    1    1    2    0    0  0.10292269238E+03  0.85962403069E+02  0.63841015823E+03  0.66421016665E+03  0.12500000000E+03 0.  0.
         25    1    1    2    0    0  0.27892293113E+02 -0.40091152959E+02  0.40065184089E+03  0.42253068311E+03  0.12500000000E+03 0.  0.
</event>
<event>
 5    0  0.5547141E-005  0.2943852E+03  0.7546771E-02  0.1088082E+00
         21   -1    0    0  502  501  0.00000000000E+00  0.00000000000E+00  0.62010035998E+02  0.62010035998E+02  0.00000000000E+00 0.  1.
         21   -1    0    0  501  502 -0.00000000000E+00 -0.00000000000E+00 -0.13975584027E+04  0.13975584027E+04  0.00000000000E+00 0.  1.
         25    1    1    2    0    0  0.60054007965E+02  0.65812249901E+02 -0.19077172180E+03  0.24486033968E+03  0.12500000000E+03 0.  0.
         25    1    1    2    0    0 -0.74066905577E+02  0.94066607090E+02 -0.76005517230E+03  0.77951478370E+03  0.12500000000E+03 0.  0.
         25    1    1    2    0    0  0.14012897613E+02 -0.15987885699E+03 -0.38472147258E+03  0.43519331529E+03  0.12500000000E+03 0.  0.
</event>
<event>
 5    0  0.5547141E-005  0.2182303E+03  0.7546771E-02  0.1135209E+00
         21   -1    0    0  502  501  0.00000000000E+00  0.00000000000E+00  0.12348767029E+03  0.12348767029E+03  0.00000000000E+00 0.  1.
         21   -1    0    0  501  502 -0.00000000000E+00 -0.00000000000E+00 -0.38566161391E+03  0.38566161391E+03  0.00000000000E+00 0.  1.
         25    1    1    2    0    0  0.40042287554E+02  0.26768840141E+02 -0.16586077748E+03  0.21320120333E+03  0.12500000000E+03 0.  0.
         25    1    1    2    0    0 -0.58909161562E+02 -0.97393567522E+01 -0.95732633636E+02  0.16838907782E+03  0.12500000000E+03 0.  0.
         25    1    1    2    0    0  0.18866874008E+02 -0.17029483389E+02 -0.58053250016E+00  0.12755900304E+03  0.12500000000E+03 0.  0.
</event>
<event>
 5    0  0.5547141E-005  0.2469196E+03  0.7546771E-02  0.1115267E+00
         21   -1    0    0  502  501  0.00000000000E+00  0.00000000000E+00  0.46087986791E+03  0.46087986791E+03  0.00000000000E+00 0. -1.
         21   -1    0    0  501  502 -0.00000000000E+00 -0.00000000000E+00 -0.13228893523E+03  0.13228893523E+03  0.00000000000E+00 0. -1.
         25    1    1    2    0    0 -0.76893933735E+02 -0.81722249418E+01  0.16595373712E+03  0.22168695309E+03  0.12500000000E+03 0.  0.
         25    1    1    2    0    0  0.13562952058E+03 -0.70999424814E+01  0.13775070835E+03  0.23031724575E+03  0.12500000000E+03 0.  0.
         25    1    1    2    0    0 -0.58735586849E+02  0.15272167423E+02  0.24886487199E+02  0.14116460429E+03  0.12500000000E+03 0.  0.
</event>
<event>
 5    0  0.5547141E-005  0.2121089E+03  0.7546771E-02  0.1139907E+00
         21   -1    0    0  502  501  0.00000000000E+00  0.00000000000E+00  0.48967311728E+03  0.48967311728E+03  0.00000000000E+00 0. -1.
         21   -1    0    0  501  502 -0.00000000000E+00 -0.00000000000E+00 -0.91877981958E+02  0.91877981958E+02  0.00000000000E+00 0. -1.
         25    1    1    2    0    0  0.17949163309E+02  0.19234535360E+02  0.17900239551E+03  0.21990679255E+03  0.12500000000E+03 0.  0.
         25    1    1    2    0    0  0.21511569918E+02  0.12785722516E+02  0.18123630063E+03  0.22158027666E+03  0.12500000000E+03 0.  0.
         25    1    1    2    0    0 -0.39460733227E+02 -0.32020257876E+02  0.37556439185E+02  0.14006403002E+03  0.12500000000E+03 0.  0.
</event>
<event>
 5    0  0.5547141E-005  0.4253664E+03  0.7546771E-02  0.1035334E+00
         21   -1    0    0  502  501  0.00000000000E+00  0.00000000000E+00  0.12985170143E+04  0.12985170143E+04  0.00000000000E+00 0. -1.
         21   -1    0    0  501  502 -0.00000000000E+00 -0.00000000000E+00 -0.13934090723E+03  0.13934090723E+03  0.00000000000E+00 0. -1.
         25    1    1    2    0    0  0.53847466580E+02 -0.18444508125E+03  0.39497558882E+03  0.45667302682E+03  0.12500000000E+03 0.  0.
         25    1    1    2    0    0 -0.22216666908E+03 -0.68423716199E+02  0.21143760206E+03  0.33818736427E+03  0.12500000000E+03 0.  0.
         25    1    1    2    0    0  0.16831920250E+03  0.25286879745E+03  0.55276291623E+03  0.64299753049E+03  0.12500000000E+03 0.  0.
</event>
<event>
 5    0  0.5547141E-005  0.3829783E+03  0.7546771E-02  0.1049838E+00
         21   -1    0    0  502  501  0.00000000000E+00  0.00000000000E+00  0.10388137227E+03  0.10388137227E+03  0.00000000000E+00 0. -1.
         21   -1    0    0  501  502 -0.00000000000E+00 -0.00000000000E+00 -0.14119218974E+04  0.14119218974E+04  0.00000000000E+00 0. -1.
         25    1    1    2    0    0  0.23954985173E+03 -0.43478656627E+02 -0.25949784945E+03  0.37714540818E+03  0.12500000000E+03 0.  0.
         25    1    1    2    0    0 -0.13133225329E+02 -0.79421050685E+01 -0.12207035590E+03  0.17539022330E+03  0.12500000000E+03 0.  0.
         25    1    1    2    0    0 -0.22641662640E+03  0.51420761695E+02 -0.92647231982E+03  0.96326763821E+03  0.12500000000E+03 0.  0.
</event>
<event>
 5    0  0.5547141E-005  0.3301429E+03  0.7546771E-02  0.1071074E+00
         21   -1    0    0  502  501  0.00000000000E+00  0.00000000000E+00  0.15088554876E+03  0.15088554876E+03  0.00000000000E+00 0. -1.
         21   -1    0    0  501  502 -0.00000000000E+00 -0.00000000000E+00 -0.72236421454E+03  0.72236421454E+03  0.00000000000E+00 0. -1.
         25    1    1    2    0    0 -0.70614971758E+01 -0.75005321024E+02 -0.51803187314E+03  0.53819855492E+03  0.12500000000E+03 0.  0.
         25    1    1    2    0    0 -0.74828645620E+02  0.97440097761E+02 -0.15414134192E+01  0.17527485505E+03  0.12500000000E+03 0.  0.
         25    1    1    2    0    0  0.81890142796E+02 -0.22434776738E+02 -0.51905379218E+02  0.15977635334E+03  0.12500000000E+03 0.  0.
</event>
<event>
 5    0  0.5547141E-005  0.2213287E+03  0.7546771E-02  0.1132896E+00
         21   -1    0    0  502  501  0.00000000000E+00  0.00000000000E+00  0.35837922861E+03  0.35837922861E+03  0.00000000000E+00 0. -1.
         21   -1    0    0  501  502 -0.00000000000E+00 -0.00000000000E+00 -0.13668875232E+03  0.13668875232E+03  0.00000000000E+00 0. -1.
         25    1    1    2    0    0  0.31240697587E+02  0.43758580240E+02  0.12121319210E+03  0.18223180971E+03  0.12500000000E+03 0.  0.
         25    1    1    2    0    0  0.30040805946E+02  0.38340719035E+02  0.54521640400E+02  0.14481046243E+03  0.12500000000E+03 0.  0.
         25    1    1    2    0    0 -0.61281503534E+02 -0.82099299275E+02  0.45955643786E+02  0.16802570878E+03  0.12500000000E+03 0.  0.
</event>
<event>
 5    0  0.5547141E-005  0.2855102E+03  0.7546771E-02  0.1092717E+00
         21   -1    0    0  502  501  0.00000000000E+00  0.00000000000E+00  0.95461945163E+03  0.95461945163E+03  0.00000000000E+00 0.  1.
         21   -1    0    0  501  502 -0.00000000000E+00 -0.00000000000E+00 -0.85391192727E+02  0.85391192727E+02  0.00000000000E+00 0.  1.
         25    1    1    2    0    0 -0.68115207378E+02 -0.16055335257E+03  0.30145743739E+03  0.37002519786E+03  0.12500000000E+03 0.  0.
         25    1    1    2    0    0  0.37443743676E+02  0.11606081464E+03  0.47263093714E+03  0.50386223254E+03  0.12500000000E+03 0.  0.
         25    1    1    2    0    0  0.30671463701E+02  0.44492537932E+02  0.95139884376E+02  0.16612321396E+03  0.12500000000E+03 0.  0.
</event>
<event>
 5    0  0.5547141E-005  0.3695527E+03  0.7546771E-02  0.1054864E+00
         21   -1    0    0  502  501  0.00000000000E+00  0.00000000000E+00  0.39950519583E+03  0.39950519583E+03  0.00000000000E+00 0. -1.
         21   -1    0    0  501  502 -0.00000000000E+00 -0.00000000000E+00 -0.34184587702E+03  0.34184587702E+03  0.00000000000E+00 0. -1.
         25    1    1    2    0    0  0.37189405862E+02 -0.12218296283E+03  0.29875363032E+02  0.18118848095E+03  0.12500000000E+03 0.  0.
         25    1    1    2    0    0 -0.20639679061E+03 -0.19810445841E+02 -0.11599220043E+03  0.26846094595E+03  0.12500000000E+03 0.  0.
         25    1    1    2    0    0  0.16920738475E+03  0.14199340867E+03  0.14377615621E+03  0.29170164596E+03  0.12500000000E+03 0.  0.
</event>
<event>
 5    0  0.5547141E-005  0.2574425E+03  0.7546771E-02  0.1108690E+00
         21   -1    0    0  502  501  0.00000000000E+00  0.00000000000E+00  0.58334400063E+03  0.58334400063E+03  0.00000000000E+00 0.  1.
         21   -1    0    0  501  502 -0.00000000000E+00 -0.00000000000E+00 -0.11361499064E+03  0.11361499064E+03  0.00000000000E+00 0.  1.
         25    1    1    2    0    0  0.95611813508E+02  0.79580335474E+02  0.18648507832E+03  0.25666385237E+03  0.12500000000E+03 0.  0.
         25    1    1    2    0    0 -0.41496647220E+02  0.92867585813E+01  0.23685676326E+03  0.27117216288E+03  0.12500000000E+03 0.  0.
         25    1    1    2    0    0 -0.54115166288E+02 -0.88867094055E+02  0.46387168406E+02  0.16912297603E+03  0.12500000000E+03 0.  0.
</event>
<event>
 5    0  0.5547141E-005  0.3764654E+03  0.7546771E-02  0.1052248E+00
         21   -1    0    0  502  501  0.00000000000E+00  0.00000000000E+00  0.15655744805E+03  0.15655744805E+03  0.00000000000E+00 0.  1.
         21   -1    0    0  501  502 -0.00000000000E+00 -0.00000000000E+00 -0.90526631063E+03  0.90526631063E+03  0.00000000000E+00 0.  1.
         25    1    1    2    0    0 -0.10557913964E+03 -0.47669392925E+02 -0.58453055211E+02  0.18016960180E+03  0.12500000000E+03 0.  0.
         25    1    1    2    0    0  0.90972181197E+02  0.22855290109E+03 -0.56352554772E+03  0.62745391009E+03  0.12500000000E+03 0.  0.
         25    1    1    2    0    0  0.14606958442E+02 -0.18088350817E+03 -0.12673025964E+03  0.25420024679E+03  0.12500000000E+03 0.  0.
</event>
<event>
 5    0  0.5547141E-005  0.2393029E+03  0.7546771E-02  0.1120258E+00
         21   -1    0    0  502  501  0.00000000000E+00  0.00000000000E+00  0.82023262303E+03  0.82023262303E+03  0.00000000000E+00 0. -1.
         21   -1    0    0  501  502 -0.00000000000E+00 -0.00000000000E+00 -0.69816641301E+02  0.69816641301E+02  0.00000000000E+00 0. -1.
         25    1    1    2    0    0  0.23088925044E+02 -0.76328105313E+02  0.15629314973E+03  0.21543357856E+03  0.12500000000E+03 0.  0.
         25    1    1    2    0    0 -0.99046754083E+02  0.19670685778E+02  0.33844265267E+03  0.37465400641E+03  0.12500000000E+03 0.  0.
         25    1    1    2    0    0  0.75957829039E+02  0.56657419535E+02  0.25568017933E+03  0.29996167935E+03  0.12500000000E+03 0.  0.
</event>
<event>
 5    0  0.5547141E-005  0.3602705E+03  0.7546771E-02  0.1058477E+00
         21   -1    0    0  502  501  0.00000000000E+00  0.00000000000E+00  0.93597195464E+02  0.93597195464E+02  0.00000000000E+00 0. -1.
         21   -1    0    0  501  502 -0.00000000000E+00 -0.00000000000E+00 -0.13867384593E+04  0.13867384593E+04  0.00000000000E+00 0. -1.
         25    1    1    2    0    0 -0.76313761597E+01 -0.11266192369E+02 -0.15685105477E+01  0.12574826129E+03  0.12500000000E+03 0.  0.
         25    1    1    2    0    0 -0.63087637898E+01 -0.12705230931E+03 -0.93623107622E+03  0.95306648136E+03  0.12500000000E+03 0.  0.
         25    1    1    2    0    0  0.13940139950E+02  0.13831850168E+03 -0.35534167711E+03  0.40152091215E+03  0.12500000000E+03 0.  0.
</event>
<event>
 5    0  0.5547141E-005  0.2880116E+03  0.7546771E-02  0.1091392E+00
         21   -1    0    0  502  501  0.00000000000E+00  0.00000000000E+00  0.55696814060E+02  0.55696814060E+02  0.00000000000E+00 0. -1.
         21   -1    0    0  501  502 -0.00000000000E+00 -0.00000000000E+00 -0.14893254920E+04  0.14893254920E+04  0.00000000000E+00 0. -1.
         25    1    1    2    0    0  0.12936758350E+03 -0.11546256416E+02 -0.30860817681E+03  0.35739794975E+03  0.12500000000E+03 0.  0.
         25    1    1    2    0    0 -0.11868223225E+03  0.25834667230E+02 -0.97982233847E+03  0.99520335472E+03  0.12500000000E+03 0.  0.
         25    1    1    2    0    0 -0.10685351251E+02 -0.14288410814E+02 -0.14519816272E+03  0.19242100164E+03  0.12500000000E+03 0.  0.
</event>
<event>
 5    0  0.6076721E-005  0.3369246E+03  0.7546771E-02  0.1068113E+00
         21   -1    0    0  502  501  0.00000000000E+00  0.00000000000E+00  0.53488613853E+03  0.53488613853E+03  0.00000000000E+00 0. -1.
         21   -1    0    0  501  502 -0.00000000000E+00 -0.00000000000E+00 -0.21222873222E+03  0.21222873222E+03  0.00000000000E+00 0. -1.
         25    1    1    2    0    0  0.23545706266E+03  0.62710212300E+02  0.63953603677E+02  0.28122528781E+03  0.12500000000E+03 0.  0.
         25    1    1    2    0    0 -0.10110258641E+03  0.52540685894E+02  0.13468040263E+03  0.21620838907E+03  0.12500000000E+03 0.  0.
         25    1    1    2    0    0 -0.13435447625E+03 -0.11525089819E+03  0.12402340001E+03  0.24968119387E+03  0.12500000000E+03 0.  0.
</event>
<event>
 5    0  0.5547141E-005  0.3072261E+03  0.7546771E-02  0.1081683E+00
         21   -1    0    0  502  501  0.00000000000E+00  0.00000000000E+00  0.21362739464E+03  0.21362739464E+03  0.00000000000E+00 0.  1.
         21   -1    0    0  501  502 -0.00000000000E+00 -0.00000000000E+00 -0.44183405575E+03  0.44183405575E+03  0.00000000000E+00 0.  1.
         25    1    1    2    0    0 -0.87416314915E+02 -0.11108349375E+03 -0.18928545331E+03  0.26727352568E+03  0.12500000000E+03 0.  0.
         25    1    1    2    0    0  0.81913232391E+02  0.13932908589E+03 -0.11950663380E+03  0.23670489504E+03  0.12500000000E+03 0.  0.
         25    1    1    2    0    0  0.55030825234E+01 -0.28245592137E+02  0.80585425995E+02  0.15148302966E+03  0.12500000000E+03 0.  0.
</event>
<event>
 5    0  0.5547141E-005  0.2946973E+03  0.7546771E-02  0.1087922E+00
         21   -1    0    0  502  501  0.00000000000E+00  0.00000000000E+00  0.28824545361E+04  0.28824545361E+04  0.00000000000E+00 0. -1.
         21   -1    0    0  501  502 -0.00000000000E+00 -0.00000000000E+00 -0.30129358772E+02  0.30129358772E+02  0.00000000000E+00 0. -1.
         25    1    1    2    0    0  0.35150354288E+02 -0.56113133006E+02  0.10540182783E+04  0.10634678002E+04  0.12500000000E+03 0.  0.
         25    1    1    2    0    0 -0.86097382166E+02 -0.12963264247E+03  0.76579612709E+03  0.79138239144E+03  0.12500000000E+03 0.  0.
         25    1    1    2    0    0  0.50947027878E+02  0.18574577548E+03  0.10325107719E+04  0.10577337032E+04  0.12500000000E+03 0.  0.
</event>
<event>
 5    0  0.5547141E-005  0.2083017E+03  0.7546771E-02  0.1142918E+00
         21   -1    0    0  502  501  0.00000000000E+00  0.00000000000E+00  0.17601549334E+04  0.17601549334E+04  0.00000000000E+00 0. -1.
         21   -1    0    0  501  502 -0.00000000000E+00 -0.00000000000E+00 -0.24651016878E+02  0.24651016878E+02  0.00000000000E+00 0. -1.
         25    1    1    2    0    0  0.24802225259E+02  0.32762400837E+02  0.77240671439E+03  0.78353408204E+03  0.12500000000E+03 0.  0.
         25    1    1    2    0    0  0.27532169551E+01 -0.24996379542E+01  0.29602214118E+03  0.32135328917E+03  0.12500000000E+03 0.  0.
         25    1    1    2    0    0 -0.27555442214E+02 -0.30262762883E+02  0.66707506099E+03  0.67991857910E+03  0.12500000000E+03 0.  0.
</event>
<event>
 5    0  0.5547141E-005  0.3156360E+03  0.7546771E-02  0.1077675E+00
         21   -1    0    0  502  501  0.00000000000E+00  0.00000000000E+00  0.91804810215E+03  0.91804810215E+03  0.00000000000E+00 0.  1.
         21   -1    0    0  501  502 -0.00000000000E+00 -0.00000000000E+00 -0.10851947873E+03  0.10851947873E+03  0.00000000000E+00 0.  1.
         25    1    1    2    0    0  0.25801542062E+02  0.55928126151E+02 -0.30846980163E+02  0.14272424830E+03  0.12500000000E+03 0.  0.
         25    1    1    2    0    0 -0.38674683979E+02  0.52850313299E+01  0.34119978670E+03  0.36546676618E+03  0.12500000000E+03 0.  0.
         25    1    1    2    0    0  0.12873141917E+02 -0.61213157481E+02  0.49917581689E+03  0.51837656641E+03  0.12500000000E+03 0.  0.
</event>
<event>
 5    0  0.5547141E-005  0.4586451E+03  0.7546771E-02  0.1025175E+00
         21   -1    0    0  502  501  0.00000000000E+00  0.00000000000E+00  0.43191202297E+03  0.43191202297E+03  0.00000000000E+00 0. -1.
         21   -1    0    0  501  502 -0.00000000000E+00 -0.00000000000E+00 -0.48703270839E+03  0.48703270839E+03  0.00000000000E+00 0. -1.
         25    1    1    2    0    0  0.22100769573E+03 -0.52155903615E+02  0.14384773415E+03  0.29644866415E+03  0.12500000000E+03 0.  0.
         25    1    1    2    0    0  0.88100531981E+02 -0.13800950692E+03 -0.70646056080E+02  0.21777096449E+03  0.12500000000E+03 0.  0.
         25    1    1    2    0    0 -0.30910822771E+03  0.19016541053E+03 -0.12832236349E+03  0.40472510272E+03  0.12500000000E+03 0.  0.
</event>
<event>
 5    0  0.5547141E-005  0.2704270E+03  0.7546771E-02  0.1101036E+00
         21   -1    0    0  502  501  0.00000000000E+00  0.00000000000E+00  0.28043787319E+03  0.28043787319E+03  0.00000000000E+00 0.  1.
         21   -1    0    0  501  502 -0.00000000000E+00 -0.00000000000E+00 -0.26077339392E+03  0.26077339392E+03  0.00000000000E+00 0.  1.
         25    1    1    2    0    0 -0.50232885146E+02  0.93562982868E+02 -0.27274603329E+02  0.16627170084E+03  0.12500000000E+03 0.  0.
         25    1    1    2    0    0  0.13856029587E+03 -0.42489378731E+02 -0.34061207152E+02  0.19439513556E+03  0.12500000000E+03 0.  0.
         25    1    1    2    0    0 -0.88327410720E+02 -0.51073604137E+02  0.81000289744E+02  0.18054443072E+03  0.12500000000E+03 0.  0.
</event>
<event>
 5    0  0.5547141E-005  0.3547863E+03  0.7546771E-02  0.1060668E+00
         21   -1    0    0  502  501  0.00000000000E+00  0.00000000000E+00  0.18359702028E+03  0.18359702028E+03  0.00000000000E+00 0.  1.
         21   -1    0    0  501  502 -0.00000000000E+00 -0.00000000000E+00 -0.68559572038E+03  0.68559572038E+03  0.00000000000E+00 0.  1.
         25    1    1    2    0    0  0.74952301798E+02 -0.11964011493E+03 -0.24678174106E+03  0.31057661271E+03  0.12500000000E+03 0.  0.
         25    1    1    2    0    0 -0.23640948313E+03  0.16068921169E+02 -0.13376076093E+03  0.29944047005E+03  0.12500000000E+03 0.  0.
         25    1    1    2    0    0  0.16145718133E+03  0.10357119376E+03 -0.12145619811E+03  0.25917565789E+03  0.12500000000E+03 0.  0.
</event>
<event>
 5    0  0.5547141E-005  0.4883673E+03  0.7546771E-02  0.1016861E+00
         21   -1    0    0  502  501  0.00000000000E+00  0.00000000000E+00  0.16231932955E+03  0.16231932955E+03  0.00000000000E+00 0. -1.
         21   -1    0    0  501  502 -0.00000000000E+00 -0.00000000000E+00 -0.14693418733E+04  0.14693418733E+04  0.00000000000E+00 0. -1.
         25    1    1    2    0    0 -0.36212365560E+02  0.85739224396E+02 -0.22587755553E+03  0.27442343215E+03  0.12500000000E+03 0.  0.
         25    1    1    2    0    0 -0.29850248512E+03  0.88437424526E+01 -0.87735171747E+03  0.93517537475E+03  0.12500000000E+03 0.  0.
         25    1    1    2    0    0  0.33471485068E+03 -0.94582966849E+02 -0.20379327078E+03  0.42206239597E+03  0.12500000000E+03 0.  0.
</event>
<event>
 5    0  0.5547141E-005  0.2300581E+03  0.7546771E-02  0.1126599E+00
         21   -1    0    0  502  501  0.00000000000E+00  0.00000000000E+00  0.22449828888E+03  0.22449828888E+03  0.00000000000E+00 0.  1.
         21   -1    0    0  501  502 -0.00000000000E+00 -0.00000000000E+00 -0.23575562820E+03  0.23575562820E+03  0.00000000000E+00 0.  1.
         25    1    1    2    0    0 -0.91896767253E+02  0.51745424530E+02  0.53278295491E+02  0.17200634163E+03  0.12500000000E+03 0.  0.
         25    1    1    2    0    0  0.53765510868E+02 -0.33492603177E+02 -0.69035304073E+02  0.15621574132E+03  0.12500000000E+03 0.  0.
         25    1    1    2    0    0  0.38131256385E+02 -0.18252821353E+02  0.44996692570E+01  0.13203183413E+03  0.12500000000E+03 0.  0.
</event>
<event>
 5    0  0.5547141E-005  0.3377125E+03  0.7546771E-02  0.1067774E+00
         21   -1    0    0  502  501  0.00000000000E+00  0.00000000000E+00  0.15215512757E+03  0.15215512757E+03  0.00000000000E+00 0.  1.
         21   -1    0    0  501  502 -0.00000000000E+00 -0.00000000000E+00 -0.74956222718E+03  0.74956222718E+03  0.00000000000E+00 0.  1.
         25    1    1    2    0    0 -0.11196795236E+03  0.92908086184E+02 -0.23100140345E+03  0.30025886037E+03  0.12500000000E+03 0.  0.
         25    1    1    2    0    0 -0.41712658996E+02  0.10453263879E+03 -0.24352437390E+03  0.29596644941E+03  0.12500000000E+03 0.  0.
         25    1    1    2    0    0  0.15368061136E+03 -0.19744072497E+03 -0.12288132226E+03  0.30549204498E+03  0.12500000000E+03 0.  0.
</event>
<event>
 5    0  0.5547141E-005  0.3321102E+03  0.7546771E-02  0.1070207E+00
         21   -1    0    0  502  501  0.00000000000E+00  0.00000000000E+00  0.26620849170E+03  0.26620849170E+03  0.00000000000E+00 0.  1.
         21   -1    0    0  501  502 -0.00000000000E+00 -0.00000000000E+00 -0.41432643955E+03  0.41432643955E+03  0.00000000000E+00 0.  1.
         25    1    1    2    0    0  0.55615693105E+02  0.90899370814E+00  0.15069964110E+03  0.20354192054E+03  0.12500000000E+03 0.  0.
         25    1    1    2    0    0 -0.68377137622E+02 -0.10226570082E+03 -0.25540528255E+03  0.30982344145E+03  0.12500000000E+03 0.  0.
         25    1    1    2    0    0  0.12761444517E+02  0.10135670711E+03 -0.43412306400E+02  0.16716956927E+03  0.12500000000E+03 0.  0.
</event>
<event>
 5    0  0.5547141E-005  0.2524430E+03  0.7546771E-02  0.1111771E+00
         21   -1    0    0  502  501  0.00000000000E+00  0.00000000000E+00  0.12662016114E+04  0.12662016114E+04  0.00000000000E+00 0. -1.
         21   -1    0    0  501  502 -0.00000000000E+00 -0.00000000000E+00 -0.50329639651E+02  0.50329639651E+02  0.00000000000E+00 0. -1.
         25    1    1    2    0    0  0.33969428638E+02  0.64952486889E+01  0.47039069604E+03  0.48794314962E+03  0.12500000000E+03 0.  0.
         25    1    1    2    0    0  0.11302997796E+03 -0.44357805788E+00  0.33758629518E+03  0.37731350277E+03  0.12500000000E+03 0.  0.
         25    1    1    2    0    0 -0.14699940660E+03 -0.60516706310E+01  0.40789498052E+03  0.45127459866E+03  0.12500000000E+03 0.  0.
</event>
<event>
 5    0  0.5547141E-005  0.4252723E+03  0.7546771E-02  0.1035364E+00
         21   -1    0    0  502  501  0.00000000000E+00  0.00000000000E+00  0.31355420930E+03  0.31355420930E+03  0.00000000000E+00 0.  1.
         21   -1    0    0  501  502 -0.00000000000E+00 -0.00000000000E+00 -0.57679511877E+03  0.57679511877E+03  0.00000000000E+00 0.  1.
         25    1    1    2    0    0  0.11682491436E+03  0.28967282343E+03 -0.31888492881E+02  0.33793532107E+03  0.12500000000E+03 0.  0.
         25    1    1    2    0    0 -0.41831376635E+02 -0.27989264981E+03 -0.40433989934E+02  0.31200908165E+03  0.12500000000E+03 0.  0.
         25    1    1    2    0    0 -0.74993537724E+02 -0.97801736232E+01 -0.19091842665E+03  0.24040492535E+03  0.12500000000E+03 0.  0.
</event>
<event>
 5    0  0.5547141E-005  0.3283513E+03  0.7546771E-02  0.1071869E+00
         21   -1    0    0  502  501  0.00000000000E+00  0.00000000000E+00  0.21528943653E+03  0.21528943653E+03  0.00000000000E+00 0.  1.
         21   -1    0    0  501  502 -0.00000000000E+00 -0.00000000000E+00 -0.50078897857E+03  0.50078897857E+03  0.00000000000E+00 0.  1.
         25    1    1    2    0    0  0.41090981406E+02  0.13051105095E+03 -0.10197375261E+02  0.18560870032E+03  0.12500000000E+03 0.  0.
         25    1    1    2    0    0  0.14009808923E+03 -0.13639707876E+03 -0.12224134166E+03  0.26229674666E+03  0.12500000000E+03 0.  0.
         25    1    1    2    0    0 -0.18118907063E+03  0.58860278124E+01 -0.15306082513E+03  0.26817296812E+03  0.12500000000E+03 0.  0.
</event>
<event>
 5    0  0.5547141E-005  0.2537527E+03  0.7546771E-02  0.1110956E+00
         21   -1    0    0  502  501  0.00000000000E+00  0.00000000000E+00  0.31577350062E+03  0.31577350062E+03  0.00000000000E+00 0. -1.
         21   -1    0    0  501  502 -0.00000000000E+00 -0.00000000000E+00 -0.20391341058E+03  0.20391341058E+03  0.00000000000E+00 0. -1.
         25    1    1    2    0    0 -0.65799039100E+02 -0.35708835103E+02  0.14192457550E+03  0.20340162139E+03  0.12500000000E+03 0.  0.
         25    1    1    2    0    0  0.46560713674E+02 -0.45688401498E+02  0.45249567129E+02  0.14808056393E+03  0.12500000000E+03 0.  0.
         25    1    1    2    0    0  0.19238325426E+02  0.81397236601E+02 -0.75314052591E+02  0.16820472588E+03  0.12500000000E+03 0.  0.
</event>
<event>
 5    0  0.5547141E-005  0.2251864E+03  0.7546771E-02  0.1130074E+00
         21   -1    0    0  502  501  0.00000000000E+00  0.00000000000E+00  0.88000963823E+02  0.88000963823E+02  0.00000000000E+00 0. -1.
         21   -1    0    0  501  502 -0.00000000000E+00 -0.00000000000E+00 -0.57623147752E+03  0.57623147752E+03  0.00000000000E+00 0. -1.
         25    1    1    2    0    0  0.14544116916E+02  0.18054221096E+02 -0.12989191265E+03  0.18175366629E+03  0.12500000000E+03 0.  0.
         25    1    1    2    0    0 -0.35421718195E+02 -0.97548112465E+02 -0.24845688234E+03  0.29686049711E+03  0.12500000000E+03 0.  0.
         25    1    1    2    0    0  0.20877601279E+02  0.79493891370E+02 -0.10988171871E+03  0.18561827794E+03  0.12500000000E+03 0.  0.
</event>
<event>
 5    0  0.5547141E-005  0.3094141E+03  0.7546771E-02  0.1080627E+00
         21   -1    0    0  502  501  0.00000000000E+00  0.00000000000E+00  0.16882916528E+04  0.16882916528E+04  0.00000000000E+00 0.  1.
         21   -1    0    0  501  502 -0.00000000000E+00 -0.00000000000E+00 -0.56706501282E+02  0.56706501282E+02  0.00000000000E+00 0.  1.
         25    1    1    2    0    0  0.49261549566E+02 -0.11163393138E+02  0.74913998899E+03  0.76117477935E+03  0.12500000000E+03 0.  0.
         25    1    1    2    0    0  0.10343377798E+03  0.44589539322E+02  0.67464641049E+03  0.69531255751E+03  0.12500000000E+03 0.  0.
         25    1    1    2    0    0 -0.15269532754E+03 -0.33426146185E+02  0.20779875202E+03  0.28851081720E+03  0.12500000000E+03 0.  0.
</event>
<event>
 5    0  0.5547141E-005  0.3638747E+03  0.7546771E-02  0.1057060E+00
         21   -1    0    0  502  501  0.00000000000E+00  0.00000000000E+00  0.14544703885E+03  0.14544703885E+03  0.00000000000E+00 0. -1.
         21   -1    0    0  501  502 -0.00000000000E+00 -0.00000000000E+00 -0.91033000035E+03  0.91033000035E+03  0.00000000000E+00 0. -1.
         25    1    1    2    0    0 -0.81417708505E+02  0.20122358113E+03 -0.32276567103E+03  0.40856144122E+03  0.12500000000E+03 0.  0.
         25    1    1    2    0    0  0.15801680658E+02  0.63984856922E+02 -0.43104724444E+02  0.14773886522E+03  0.12500000000E+03 0.  0.
         25    1    1    2    0    0  0.65616027847E+02 -0.26520843805E+03 -0.39901256603E+03  0.49947673277E+03  0.12500000000E+03 0.  0.
</event>
<event>
 5    0  0.5547141E-005  0.2735896E+03  0.7546771E-02  0.1099243E+00
         21   -1    0    0  502  501  0.00000000000E+00  0.00000000000E+00  0.19345116431E+03  0.19345116431E+03  0.00000000000E+00 0. -1.
         21   -1    0    0  501  502 -0.00000000000E+00 -0.00000000000E+00 -0.38692581610E+03  0.38692581610E+03  0.00000000000E+00 0. -1.
         25    1    1    2    0    0 -0.16460388401E+02 -0.10927806592E+03 -0.81782396132E+02  0.18581173374E+03  0.12500000000E+03 0.  0.
         25    1    1    2    0    0  0.68637399965E+02 -0.20739393361E+02  0.43981472176E+02  0.15066713313E+03  0.12500000000E+03 0.  0.
         25    1    1    2    0    0 -0.52177011564E+02  0.13001745928E+03 -0.15567372783E+03  0.24389811354E+03  0.12500000000E+03 0.  0.
</event>
<event>
 5    0  0.5547141E-005  0.6312944E+03  0.7546771E-02  0.9842526E-01
         21   -1    0    0  502  501  0.00000000000E+00  0.00000000000E+00  0.41101321669E+03  0.41101321669E+03  0.00000000000E+00 0. -1.
         21   -1    0    0  501  502 -0.00000000000E+00 -0.00000000000E+00 -0.96963462265E+03  0.96963462265E+03  0.00000000000E+00 0. -1.
         25    1    1    2    0    0  0.51300740123E+03  0.50822942644E+02 -0.76409356895E+01  0.53051196887E+03  0.12500000000E+03 0.  0.
         25    1    1    2    0    0 -0.72771836128E+02 -0.54584887788E+02 -0.31422547902E+02  0.15775812697E+03  0.12500000000E+03 0.  0.
         25    1    1    2    0    0 -0.44023556510E+03  0.37619451442E+01 -0.51955792237E+03  0.69237774351E+03  0.12500000000E+03 0.  0.
</event>
<event>
 5    0  0.5547141E-005  0.3675171E+03  0.7546771E-02  0.1055646E+00
         21   -1    0    0  502  501  0.00000000000E+00  0.00000000000E+00  0.10658700442E+03  0.10658700442E+03  0.00000000000E+00 0. -1.
         21   -1    0    0  501  502 -0.00000000000E+00 -0.00000000000E+00 -0.12672168457E+04  0.12672168457E+04  0.00000000000E+00 0. -1.
         25    1    1    2    0    0 -0.39980593687E+02  0.62783173120E+02 -0.32711119145E+03  0.35800405901E+03  0.12500000000E+03 0.  0.
         25    1    1    2    0    0  0.14007542242E+03  0.68280050401E+02 -0.77559893086E+03  0.80091322302E+03  0.12500000000E+03 0.  0.
         25    1    1    2    0    0 -0.10009482874E+03 -0.13106322352E+03 -0.57919718975E+02  0.21488656809E+03  0.12500000000E+03 0.  0.
</event>
<event>
 5    0  0.5547141E-005  0.2460964E+03  0.7546771E-02  0.1115797E+00
         21   -1    0    0  502  501  0.00000000000E+00  0.00000000000E+00  0.18454166467E+03  0.18454166467E+03  0.00000000000E+00 0.  1.
         21   -1    0    0  501  502 -0.00000000000E+00 -0.00000000000E+00 -0.32818299224E+03  0.32818299224E+03  0.00000000000E+00 0.  1.
         25    1    1    2    0    0 -0.54213461490E+02  0.46484499206E+02  0.31069296814E+02  0.14727596300E+03  0.12500000000E+03 0.  0.
         25    1    1    2    0    0  0.72471672617E+02  0.41852156099E+02 -0.14405807980E+03  0.20828220437E+03  0.12500000000E+03 0.  0.
         25    1    1    2    0    0 -0.18258211126E+02 -0.88336655305E+02 -0.30652544587E+02  0.15716648954E+03  0.12500000000E+03 0.  0.
</event>
<event>
 5    0  0.5547141E-005  0.3206848E+03  0.7546771E-02  0.1075335E+00
         21   -1    0    0  502  501  0.00000000000E+00  0.00000000000E+00  0.19931223106E+03  0.19931223106E+03  0.00000000000E+00 0. -1.
         21   -1    0    0  501  502 -0.00000000000E+00 -0.00000000000E+00 -0.51596797251E+03  0.51596797251E+03  0.00000000000E+00 0. -1.
         25    1    1    2    0    0  0.87092664047E+02  0.75146380163E+02 -0.19766775625E+03  0.26063317603E+03  0.12500000000E+03 0.  0.
         25    1    1    2    0    0 -0.93091855793E+02 -0.16298301535E+03  0.45522737620E+02  0.23005841986E+03  0.12500000000E+03 0.  0.
         25    1    1    2    0    0  0.59991917452E+01  0.87836635184E+02 -0.16451072282E+03  0.22458860769E+03  0.12500000000E+03 0.  0.
</event>
<event>
 5    0  0.5547141E-005  0.4194599E+03  0.7546771E-02  0.1037242E+00
         21   -1    0    0  502  501  0.00000000000E+00  0.00000000000E+00  0.34506931502E+03  0.34506931502E+03  0.00000000000E+00 0.  1.
         21   -1    0    0  501  502 -0.00000000000E+00 -0.00000000000E+00 -0.50988784066E+03  0.50988784066E+03  0.00000000000E+00 0.  1.
         25    1    1    2    0    0 -0.27286214205E+02 -0.10217331670E+02  0.51700914027E+02  0.13837238114E+03  0.12500000000E+03 0.  0.
         25    1    1    2    0    0  0.81210709635E+02 -0.16641728649E+03 -0.37949177018E+03  0.44037358712E+03  0.12500000000E+03 0.  0.
         25    1    1    2    0    0 -0.53924495429E+02  0.17663461816E+03  0.16297233051E+03  0.27621118741E+03  0.12500000000E+03 0.  0.
</event>
<event>
 5    0  0.5547141E-005  0.3525239E+03  0.7546771E-02  0.1061584E+00
         21   -1    0    0  502  501  0.00000000000E+00  0.00000000000E+00  0.29509104645E+03  0.29509104645E+03  0.00000000000E+00 0. -1.
         21   -1    0    0  501  502 -0.00000000000E+00 -0.00000000000E+00 -0.42113476412E+03  0.42113476412E+03  0.00000000000E+00 0. -1.
         25    1    1    2    0    0  0.16824671663E+03 -0.60358981106E+02  0.80316778063E+02  0.23243482763E+03  0.12500000000E+03 0.  0.
         25    1    1    2    0    0 -0.17771635633E+02  0.42267092701E+01  0.66996604131E+02  0.14299384976E+03  0.12500000000E+03 0.  0.
         25    1    1    2    0    0 -0.15047508100E+03  0.56132271836E+02 -0.27335709986E+03  0.34079713319E+03  0.12500000000E+03 0.  0.
</event>
<event>
 5    0  0.5547141E-005  0.2805046E+03  0.7546771E-02  0.1095414E+00
         21   -1    0    0  502  501  0.00000000000E+00  0.00000000000E+00  0.53923063318E+03  0.53923063318E+03  0.00000000000E+00 0.  1.
         21   -1    0    0  501  502 -0.00000000000E+00 -0.00000000000E+00 -0.14591686903E+03  0.14591686903E+03  0.00000000000E+00 0.  1.
         25    1    1    2    0    0  0.19966826001E+02  0.80116366081E+02  0.11561512459E+03  0.18923309248E+03  0.12500000000E+03 0.  0.
         25    1    1    2    0    0  0.13733939968E+03 -0.32444610624E+02  0.20114619141E+03  0.27568016574E+03  0.12500000000E+03 0.  0.
         25    1    1    2    0    0 -0.15730622569E+03 -0.47671755457E+02  0.76552448153E+02  0.22023424399E+03  0.12500000000E+03 0.  0.
</event>
<event>
 5    0  0.5547141E-005  0.3930779E+03  0.7546771E-02  0.1046203E+00
         21   -1    0    0  502  501  0.00000000000E+00  0.00000000000E+00  0.91277525713E+03  0.91277525713E+03  0.00000000000E+00 0.  1.
         21   -1    0    0  501  502 -0.00000000000E+00 -0.00000000000E+00 -0.16927519348E+03  0.16927519348E+03  0.00000000000E+00 0.  1.
         25    1    1    2    0    0  0.20688474823E+02  0.10717154726E+03  0.16179009923E+03  0.23176451355E+03  0.12500000000E+03 0.  0.
         25    1    1    2    0    0 -0.25226740574E+03 -0.18718694761E+03  0.38352597893E+03  0.51126800591E+03  0.12500000000E+03 0.  0.
         25    1    1    2    0    0  0.23157893091E+03  0.80015400350E+02  0.19818398549E+03  0.33901793115E+03  0.12500000000E+03 0.  0.
</event>
<event>
 5    0  0.5547141E-005  0.2945995E+03  0.7546771E-02  0.1087972E+00
         21   -1    0    0  502  501  0.00000000000E+00  0.00000000000E+00  0.17537447184E+03  0.17537447184E+03  0.00000000000E+00 0.  1.
         21   -1    0    0  501  502 -0.00000000000E+00 -0.00000000000E+00 -0.49487727781E+03  0.49487727781E+03  0.00000000000E+00 0.  1.
         25    1    1    2    0    0 -0.55810716222E+02 -0.11555280102E+03 -0.14600381725E+03  0.23110473928E+03  0.12500000000E+03 0.  0.
         25    1    1    2    0    0 -0.27426287444E+02  0.19513326847E+03 -0.95401210637E+02  0.25210232982E+03  0.12500000000E+03 0.  0.
         25    1    1    2    0    0  0.83237003666E+02 -0.79580467456E+02 -0.78097778086E+02  0.18704468055E+03  0.12500000000E+03 0.  0.
</event>
<event>
 5    0  0.5547141E-005  0.2673204E+03  0.7546771E-02  0.1102823E+00
         21   -1    0    0  502  501  0.00000000000E+00  0.00000000000E+00  0.12069326520E+03  0.12069326520E+03  0.00000000000E+00 0.  1.
         21   -1    0    0  501  502 -0.00000000000E+00 -0.00000000000E+00 -0.59208116116E+03  0.59208116116E+03  0.00000000000E+00 0.  1.
         25    1    1    2    0    0 -0.10140606377E+02  0.87388018955E+02 -0.15280518817E+03  0.21613404009E+03  0.12500000000E+03 0.  0.
         25    1    1    2    0    0  0.79860002512E+02  0.44082125089E+02 -0.45186707043E+02  0.16120698573E+03  0.12500000000E+03 0.  0.
         25    1    1    2    0    0 -0.69719396135E+02 -0.13147014404E+03 -0.27339600075E+03  0.33543340054E+03  0.12500000000E+03 0.  0.
</event>
<event>
 5    0  0.5547141E-005  0.2707254E+03  0.7546771E-02  0.1100865E+00
         21   -1    0    0  502  501  0.00000000000E+00  0.00000000000E+00  0.87945154374E+02  0.87945154374E+02  0.00000000000E+00 0. -1.
         21   -1    0    0  501  502 -0.00000000000E+00 -0.00000000000E+00 -0.83338554608E+03  0.83338554608E+03  0.00000000000E+00 0. -1.
         25    1    1    2    0    0 -0.21146590990E+02 -0.68267875452E+01 -0.17869190982E+03  0.21920214866E+03  0.12500000000E+03 0.  0.
         25    1    1    2    0    0  0.65698233235E+02 -0.13885525687E+03 -0.17798033518E+03  0.26626873629E+03  0.12500000000E+03 0.  0.
         25    1    1    2    0    0 -0.44551642245E+02  0.14568204442E+03 -0.38876814670E+03  0.43585981552E+03  0.12500000000E+03 0.  0.
</event>
<event>
 5    0  0.5547141E-005  0.3184399E+03  0.7546771E-02  0.1076370E+00
         21   -1    0    0  502  501  0.00000000000E+00  0.00000000000E+00  0.33883805080E+03  0.33883805080E+03  0.00000000000E+00 0.  1.
         21   -1    0    0  501  502 -0.00000000000E+00 -0.00000000000E+00 -0.29926969722E+03  0.29926969722E+03  0.00000000000E+00 0.  1.
         25    1    1    2    0    0  0.38040517032E+02 -0.40921130230E+02  0.24772180906E+03  0.28304189534E+03  0.12500000000E+03 0.  0.
         25    1    1    2    0    0 -0.80686180075E+02  0.33086986441E+01 -0.90055936778E+02  0.17394332091E+03  0.12500000000E+03 0.  0.
         25    1    1    2    0    0  0.42645663042E+02  0.37612431586E+02 -0.11809751871E+03  0.18112253176E+03  0.12500000000E+03 0.  0.
</event>
<event>
 5    0  0.5547141E-005  0.3707873E+03  0.7546771E-02  0.1054392E+00
         21   -1    0    0  502  501  0.00000000000E+00  0.00000000000E+00  0.10516112615E+03  0.10516112615E+03  0.00000000000E+00 0.  1.
         21   -1    0    0  501  502 -0.00000000000E+00 -0.00000000000E+00 -0.13073579060E+04  0.13073579060E+04  0.00000000000E+00 0.  1.
         25    1    1    2    0    0 -0.10958600760E+02  0.13894085869E+03 -0.71607694179E+02  0.20044279735E+03  0.12500000000E+03 0.  0.
         25    1    1    2    0    0 -0.81537753020E+02 -0.21567591088E+03 -0.72456609942E+03  0.77057480891E+03  0.12500000000E+03 0.  0.
         25    1    1    2    0    0  0.92496353779E+02  0.76735052192E+02 -0.40602298621E+03  0.44150142585E+03  0.12500000000E+03 0.  0.
</event>
<event>
 5    0  0.5547141E-005  0.3644549E+03  0.7546771E-02  0.1056834E+00
         21   -1    0    0  502  501  0.00000000000E+00  0.00000000000E+00  0.16649520423E+03  0.16649520423E+03  0.00000000000E+00 0. -1.
         21   -1    0    0  501  502 -0.00000000000E+00 -0.00000000000E+00 -0.79778487603E+03  0.79778487603E+03  0.00000000000E+00 0. -1.
         25    1    1    2    0    0 -0.11447039427E+03 -0.54963187437E+02 -0.15089582407E+03  0.23349298246E+03  0.12500000000E+03 0.  0.
         25    1    1    2    0    0 -0.17582199692E+03  0.88503225536E+00 -0.27688252478E+03  0.35100297778E+03  0.12500000000E+03 0.  0.
         25    1    1    2    0    0  0.29029239119E+03  0.54078155182E+02 -0.20351132294E+03  0.37978412001E+03  0.12500000000E+03 0.  0.
</event>
<event>
 5    0  0.5547141E-005  0.2825383E+03  0.7546771E-02  0.1094311E+00
         21   -1    0    0  502  501  0.00000000000E+00  0.00000000000E+00  0.78654176012E+02  0.78654176012E+02  0.00000000000E+00 0. -1.
         21   -1    0    0  501  502 -0.00000000000E+00 -0.00000000000E+00 -0.10149224762E+04  0.10149224762E+04  0.00000000000E+00 0. -1.
         25    1    1    2    0    0 -0.78992488046E+02  0.45075265094E+02 -0.17239309240E+03  0.23155122759E+03  0.12500000000E+03 0.  0.
         25    1    1    2    0    0  0.16094797283E+03 -0.36048189856E+01 -0.61155383231E+03  0.64462418082E+03  0.12500000000E+03 0.  0.
         25    1    1    2    0    0 -0.81955484787E+02 -0.41470446109E+02 -0.15232137552E+03  0.21740124385E+03  0.12500000000E+03 0.  0.
</event>
<event>
 5    0  0.5547141E-005  0.2777989E+03  0.7546771E-02  0.1096897E+00
         21   -1    0    0  502  501  0.00000000000E+00  0.00000000000E+00  0.20389428040E+04  0.20389428040E+04  0.00000000000E+00 0.  1.
         21   -1    0    0  501  502 -0.00000000000E+00 -0.00000000000E+00 -0.37849129105E+02  0.37849129105E+02  0.00000000000E+00 0.  1.
         25    1    1    2    0    0 -0.24985901123E+02 -0.83328762085E+02  0.98669728398E+03  0.99838094335E+03  0.12500000000E+03 0.  0.
         25    1    1    2    0    0 -0.73920925047E+02  0.65214157374E+02  0.76847505888E+03  0.78479048516E+03  0.12500000000E+03 0.  0.
         25    1    1    2    0    0  0.98906826171E+02  0.18114604711E+02  0.24592133208E+03  0.29362050463E+03  0.12500000000E+03 0.  0.
</event>
<event>
 5    0  0.5547141E-005  0.3255069E+03  0.7546771E-02  0.1073142E+00
         21   -1    0    0  502  501  0.00000000000E+00  0.00000000000E+00  0.73166438068E+02  0.73166438068E+02  0.00000000000E+00 0. -1.
         21   -1    0    0  501  502 -0.00000000000E+00 -0.00000000000E+00 -0.14481329313E+04  0.14481329313E+04  0.00000000000E+00 0. -1.
         25    1    1    2    0    0 -0.16254869479E+03 -0.41360251827E+02 -0.83420351660E+03  0.86003096207E+03  0.12500000000E+03 0.  0.
         25    1    1    2    0    0  0.15972165031E+03 -0.10797660745E+02 -0.16452545386E+03  0.26138328183E+03  0.12500000000E+03 0.  0.
         25    1    1    2    0    0  0.28270444821E+01  0.52157912572E+02 -0.37623752278E+03  0.39988512547E+03  0.12500000000E+03 0.  0.
</event>
<event>
 5    0  0.5637609E-005  0.3854336E+03  0.7546771E-02  0.1048944E+00
         21   -1    0    0  502  501  0.00000000000E+00  0.00000000000E+00  0.75273678872E+03  0.75273678872E+03  0.00000000000E+00 0.  1.
         21   -1    0    0  501  502 -0.00000000000E+00 -0.00000000000E+00 -0.19735861688E+03  0.19735861688E+03  0.00000000000E+00 0.  1.
         25    1    1    2    0    0  0.17820091681E+03 -0.10576339897E+03  0.25374038385E+03  0.35064318860E+03  0.12500000000E+03 0.  0.
         25    1    1    2    0    0  0.42300163352E+02  0.19590026313E+03  0.75383676001E+02  0.24793933839E+03  0.12500000000E+03 0.  0.
         25    1    1    2    0    0 -0.22050108017E+03 -0.90136864159E+02  0.22625411198E+03  0.35151287860E+03  0.12500000000E+03 0.  0.
</event>
<event>
 5    0  0.5547141E-005  0.3478185E+03  0.7546771E-02  0.1063514E+00
         21   -1    0    0  502  501  0.00000000000E+00  0.00000000000E+00  0.78856914055E+03  0.78856914055E+03  0.00000000000E+00 0. -1.
         21   -1    0    0  501  502 -0.00000000000E+00 -0.00000000000E+00 -0.15341418381E+03  0.15341418381E+03  0.00000000000E+00 0. -1.
         25    1    1    2    0    0  0.70338337978E+02 -0.31800789039E+02 -0.13203219627E+01  0.14692009809E+03  0.12500000000E+03 0.  0.
         25    1    1    2    0    0 -0.84339634097E+02  0.20941724164E+03  0.32267560372E+03  0.41317466066E+03  0.12500000000E+03 0.  0.
         25    1    1    2    0    0  0.14001296118E+02 -0.17761645260E+03  0.31379967497E+03  0.38188856560E+03  0.12500000000E+03 0.  0.
</event>
<event>
 5    0  0.6567660E-005  0.3261336E+03  0.7546771E-02  0.1072861E+00
         21   -1    0    0  502  501  0.00000000000E+00  0.00000000000E+00  0.10720759418E+03  0.10720759418E+03  0.00000000000E+00 0.  1.
         21   -1    0    0  501  502 -0.00000000000E+00 -0.00000000000E+00 -0.99212303330E+03  0.99212303330E+03  0.00000000000E+00 0.  1.
         25    1    1    2    0    0 -0.66064201599E+02  0.10656868882E+03 -0.34100243756E+03  0.38422522899E+03  0.12500000000E+03 0.  0.
         25    1    1    2    0    0  0.10114046745E+03  0.12085853719E+03 -0.26228837321E+03  0.33053951486E+03  0.12500000000E+03 0.  0.
         25    1    1    2    0    0 -0.35076265851E+02 -0.22742722601E+03 -0.28162462835E+03  0.38456588363E+03  0.12500000000E+03 0.  0.
</event>
<event>
 5    0  0.5547141E-005  0.3171030E+03  0.7546771E-02  0.1076990E+00
         21   -1    0    0  502  501  0.00000000000E+00  0.00000000000E+00  0.16767674875E+03  0.16767674875E+03  0.00000000000E+00 0. -1.
         21   -1    0    0  501  502 -0.00000000000E+00 -0.00000000000E+00 -0.59969141577E+03  0.59969141577E+03  0.00000000000E+00 0. -1.
         25    1    1    2    0    0 -0.28132267896E+02 -0.70992576696E+02  0.10109792136E+02  0.14682839759E+03  0.12500000000E+03 0.  0.
         25    1    1    2    0    0  0.84455709660E+02  0.25054411208E+02 -0.45045528099E+03  0.47570521396E+03  0.12500000000E+03 0.  0.
         25    1    1    2    0    0 -0.56323441765E+02  0.45938165488E+02  0.83308218310E+01  0.14483455297E+03  0.12500000000E+03 0.  0.
</event>
<event>
 5    0  0.5547141E-005  0.2465832E+03  0.7546771E-02  0.1115483E+00
         21   -1    0    0  502  501  0.00000000000E+00  0.00000000000E+00  0.23333980510E+03  0.23333980510E+03  0.00000000000E+00 0.  1.
         21   -1    0    0  501  502 -0.00000000000E+00 -0.00000000000E+00 -0.26057823609E+03  0.26057823609E+03  0.00000000000E+00 0.  1.
         25    1    1    2    0    0 -0.30757377187E+02 -0.35146398198E+02 -0.29204990405E+02  0.13659874459E+03  0.12500000000E+03 0.  0.
         25    1    1    2    0    0 -0.61183285675E+02 -0.59712709782E+02 -0.63240641879E+02  0.16411392671E+03  0.12500000000E+03 0.  0.
         25    1    1    2    0    0  0.91940662862E+02  0.94859107981E+02  0.65207201289E+02  0.19320536989E+03  0.12500000000E+03 0.  0.
</event>
<event>
 5    0  0.5547141E-005  0.2238517E+03  0.7546771E-02  0.1131044E+00
         21   -1    0    0  502  501  0.00000000000E+00  0.00000000000E+00  0.10510448121E+03  0.10510448121E+03  0.00000000000E+00 0. -1.
         21   -1    0    0  501  502 -0.00000000000E+00 -0.00000000000E+00 -0.47675981026E+03  0.47675981026E+03  0.00000000000E+00 0. -1.
         25    1    1    2    0    0 -0.69842870229E+02  0.17442973142E+02 -0.70093014069E+02  0.16037554195E+03  0.12500000000E+03 0.  0.
         25    1    1    2    0    0  0.43296183960E+02 -0.14404237581E+02 -0.55443909147E+02  0.14415640349E+03  0.12500000000E+03 0.  0.
         25    1    1    2    0    0  0.26546686269E+02 -0.30387355607E+01 -0.24611840584E+03  0.27733234604E+03  0.12500000000E+03 0.  0.
</event>
<event>
 5    0  0.5547141E-005  0.3551199E+03  0.7546771E-02  0.1060533E+00
         21   -1    0    0  502  501  0.00000000000E+00  0.00000000000E+00  0.54463599006E+02  0.54463599006E+02  0.00000000000E+00 0.  1.
         21   -1    0    0  501  502 -0.00000000000E+00 -0.00000000000E+00 -0.23154936655E+04  0.23154936655E+04  0.00000000000E+00 0.  1.
         25    1    1    2    0    0 -0.55595726549E+02  0.14371043668E+03 -0.11817959956E+04  0.11983364926E+04  0.12500000000E+03 0.  0.
         25    1    1    2    0    0 -0.11667860456E+03 -0.72697909029E+02 -0.75359213293E+03  0.77616041225E+03  0.12500000000E+03 0.  0.
         25    1    1    2    0    0  0.17227433111E+03 -0.71012527650E+02 -0.32564193794E+03  0.39546035956E+03  0.12500000000E+03 0.  0.
</event>
<event>
 5    0  0.5547141E-005  0.4567212E+03  0.7546771E-02  0.1025736E+00
         21   -1    0    0  502  501  0.00000000000E+00  0.00000000000E+00  0.55489899426E+03  0.55489899426E+03  0.00000000000E+00 0. -1.
         21   -1    0    0  501  502 -0.00000000000E+00 -0.00000000000E+00 -0.37591384320E+03  0.37591384320E+03  0.00000000000E+00 0. -1.
         25    1    1    2    0    0  0.44603801754E+02 -0.10304775094E+03 -0.17379751861E+03  0.24174142297E+03  0.12500000000E+03 0.  0.
         25    1    1    2    0    0 -0.13489639421E+03  0.26135673845E+03  0.34161493265E+03  0.46779284316E+03  0.12500000000E+03 0.  0.
         25    1    1    2    0    0  0.90292592458E+02 -0.15830898750E+03  0.11167737007E+02  0.22127857132E+03  0.12500000000E+03 0.  0.
</event>
<event>
 5    0  0.5547141E-005  0.6491871E+03  0.7546771E-02  0.9808306E-01
         21   -1    0    0  502  501  0.00000000000E+00  0.00000000000E+00  0.71137606858E+03  0.71137606858E+03  0.00000000000E+00 0. -1.
         21   -1    0    0  501  502 -0.00000000000E+00 -0.00000000000E+00 -0.59243476151E+03  0.59243476151E+03  0.00000000000E+00 0. -1.
         25    1    1    2    0    0 -0.15064153154E+03  0.44391340370E+02  0.18687840390E+03  0.27424806284E+03  0.12500000000E+03 0.  0.
         25    1    1    2    0    0  0.30857418879E+03 -0.13808660674E+03 -0.45670846777E+03  0.58180199852E+03  0.12500000000E+03 0.  0.
         25    1    1    2    0    0 -0.15793265724E+03  0.93695266371E+02  0.38877137093E+03  0.44776076873E+03  0.12500000000E+03 0.  0.
</event>
<event>
 5    0  0.5547141E-005  0.2828500E+03  0.7546771E-02  0.1094142E+00
         21   -1    0    0  502  501  0.00000000000E+00  0.00000000000E+00  0.57222536746E+03  0.57222536746E+03  0.00000000000E+00 0. -1.
         21   -1    0    0  501  502 -0.00000000000E+00 -0.00000000000E+00 -0.13981228035E+03  0.13981228035E+03  0.00000000000E+00 0. -1.
         25    1    1    2    0    0 -0.16400590214E+03  0.10578471497E+03  0.17634879475E+03  0.29122540972E+03  0.12500000000E+03 0.  0.
         25    1    1    2    0    0  0.78717684072E+02 -0.35187528278E+02  0.60001264319E+02  0.16327825223E+03  0.12500000000E+03 0.  0.
         25    1    1    2    0    0  0.85288218064E+02 -0.70597186693E+02  0.19606302803E+03  0.25753398586E+03  0.12500000000E+03 0.  0.
</event>
<event>
 5    0  0.5547141E-005  0.2691867E+03  0.7546771E-02  0.1101746E+00
         21   -1    0    0  502  501  0.00000000000E+00  0.00000000000E+00  0.79803992925E+02  0.79803992925E+02  0.00000000000E+00 0.  1.
         21   -1    0    0  501  502 -0.00000000000E+00 -0.00000000000E+00 -0.90799293553E+03  0.90799293553E+03  0.00000000000E+00 0.  1.
         25    1    1    2    0    0 -0.31875382347E+02 -0.14606595434E+03 -0.21557667490E+03  0.29060214345E+03  0.12500000000E+03 0.  0.
         25    1    1    2    0    0 -0.50410794965E+02  0.85123460248E+02 -0.21219680150E+03  0.26540484981E+03  0.12500000000E+03 0.  0.
         25    1    1    2    0    0  0.82286177312E+02  0.60942494095E+02 -0.40041546620E+03  0.43178993519E+03  0.12500000000E+03 0.  0.
</event>
<event>
 5    0  0.6326054E-005  0.3011668E+03  0.7546771E-02  0.1084659E+00
         21   -1    0    0  502  501  0.00000000000E+00  0.00000000000E+00  0.29280432003E+03  0.29280432003E+03  0.00000000000E+00 0. -1.
         21   -1    0    0  501  502 -0.00000000000E+00 -0.00000000000E+00 -0.30976806778E+03  0.30976806778E+03  0.00000000000E+00 0. -1.
         25    1    1    2    0    0  0.18296176003E+02 -0.17948769095E+03 -0.91307497193E+02  0.23772387407E+03  0.12500000000E+03 0.  0.
         25    1    1    2    0    0 -0.37220385098E+02  0.41324875914E+02  0.10833613474E+03  0.17451309557E+03  0.12500000000E+03 0.  0.
         25    1    1    2    0    0  0.18924209095E+02  0.13816281504E+03 -0.33992385298E+02  0.19033541817E+03  0.12500000000E+03 0.  0.
</event>
<event>
 5    0  0.5547141E-005  0.2597663E+03  0.7546771E-02  0.1107284E+00
         21   -1    0    0  502  501  0.00000000000E+00  0.00000000000E+00  0.45891427390E+03  0.45891427390E+03  0.00000000000E+00 0. -1.
         21   -1    0    0  501  502 -0.00000000000E+00 -0.00000000000E+00 -0.14703955173E+03  0.14703955173E+03  0.00000000000E+00 0. -1.
         25    1    1    2    0    0  0.38821441462E+02 -0.33695299521E+02  0.29527767028E+03  0.32474048115E+03  0.12500000000E+03 0.  0.
         25    1    1    2    0    0 -0.49196191030E+02  0.58863196673E+02  0.37998034327E+02  0.15150574823E+03  0.12500000000E+03 0.  0.
         25    1    1    2    0    0  0.10374749568E+02 -0.25167897151E+02 -0.21400982436E+02  0.12970759625E+03  0.12500000000E+03 0.  0.
</event>
<event>
 5    0  0.5547141E-005  0.2515830E+03  0.7546771E-02  0.1112308E+00
         21   -1    0    0  502  501  0.00000000000E+00  0.00000000000E+00  0.54451389871E+02  0.54451389871E+02  0.00000000000E+00 0. -1.
         21   -1    0    0  501  502 -0.00000000000E+00 -0.00000000000E+00 -0.11623948189E+04  0.11623948189E+04  0.00000000000E+00 0. -1.
         25    1    1    2    0    0 -0.79082411283E+02  0.53091647289E+02 -0.45204142043E+03  0.47858039719E+03  0.12500000000E+03 0.  0.
         25    1    1    2    0    0 -0.58344312603E+02 -0.47810277950E+02 -0.36441817808E+03  0.39257545773E+03  0.12500000000E+03 0.  0.
         25    1    1    2    0    0  0.13742672389E+03 -0.52813693397E+01 -0.29148383051E+03  0.34569035386E+03  0.12500000000E+03 0.  0.
</event>
<event>
 5    0  0.5547141E-005  0.5075674E+03  0.7546771E-02  0.1011822E+00
         21   -1    0    0  502  501  0.00000000000E+00  0.00000000000E+00  0.11365435082E+04  0.11365435082E+04  0.00000000000E+00 0. -1.
         21   -1    0    0  501  502 -0.00000000000E+00 -0.00000000000E+00 -0.22667378225E+03  0.22667378225E+03  0.00000000000E+00 0. -1.
         25    1    1    2    0    0 -0.17458068068E+03  0.22994137590E+03  0.41146604988E+03  0.51795826147E+03  0.12500000000E+03 0.  0.
         25    1    1    2    0    0  0.17206251091E+03 -0.40092297030E+03  0.42305702808E+03  0.62044095995E+03  0.12500000000E+03 0.  0.
         25    1    1    2    0    0  0.25181697618E+01  0.17098159440E+03  0.75346648012E+02  0.22481806905E+03  0.12500000000E+03 0.  0.
</event>
<event>
 5    0  0.5547141E-005  0.3476913E+03  0.7546771E-02  0.1063567E+00
         21   -1    0    0  502  501  0.00000000000E+00  0.00000000000E+00  0.12168681594E+03  0.12168681594E+03  0.00000000000E+00 0. -1.
         21   -1    0    0  501  502 -0.00000000000E+00 -0.00000000000E+00 -0.99344542201E+03  0.99344542201E+03  0.00000000000E+00 0. -1.
         25    1    1    2    0    0 -0.16613414642E+03  0.11290035774E+03 -0.10869057690E+03  0.26035684530E+03  0.12500000000E+03 0.  0.
         25    1    1    2    0    0  0.79616740950E+02  0.55447331674E+02 -0.32421994776E+03  0.36077251358E+03  0.12500000000E+03 0.  0.
         25    1    1    2    0    0  0.86517405474E+02 -0.16834768942E+03 -0.43884808140E+03  0.49400287908E+03  0.12500000000E+03 0.  0.
</event>
<event>
 5    0  0.5547141E-005  0.4017754E+03  0.7546771E-02  0.1043167E+00
         21   -1    0    0  502  501  0.00000000000E+00  0.00000000000E+00  0.26625236643E+03  0.26625236643E+03  0.00000000000E+00 0.  1.
         21   -1    0    0  501  502 -0.00000000000E+00 -0.00000000000E+00 -0.60627987134E+03  0.60627987134E+03  0.00000000000E+00 0.  1.
         25    1    1    2    0    0  0.30997361081E+03 -0.53090065200E+02 -0.97161572752E+02  0.35209028053E+03  0.12500000000E+03 0.  0.
         25    1    1    2    0    0 -0.21977881288E+03 -0.70055113733E+02 -0.12498547556E+03  0.29061454652E+03  0.12500000000E+03 0.  0.
         25    1    1    2    0    0 -0.90194797928E+02  0.12314517893E+03 -0.11788045660E+03  0.22982741072E+03  0.12500000000E+03 0.  0.
</event>
<event>
 5    0  0.5547141E-005  0.3532569E+03  0.7546771E-02  0.1061286E+00
         21   -1    0    0  502  501  0.00000000000E+00  0.00000000000E+00  0.23898865654E+03  0.23898865654E+03  0.00000000000E+00 0. -1.
         21   -1    0    0  501  502 -0.00000000000E+00 -0.00000000000E+00 -0.52216063321E+03  0.52216063321E+03  0.00000000000E+00 0. -1.
         25    1    1    2    0    0  0.63125517147E+01 -0.10228295219E+03 -0.13020805027E+03  0.20755911682E+03  0.12500000000E+03 0.  0.
         25    1    1    2    0    0  0.59697127736E+02 -0.13954022688E+03 -0.18709186135E+03  0.27141036561E+03  0.12500000000E+03 0.  0.
         25    1    1    2    0    0 -0.66009679451E+02  0.24182317907E+03  0.34127934963E+02  0.28217980732E+03  0.12500000000E+03 0.  0.
</event>
<event>
 5    0  0.5547141E-005  0.2540880E+03  0.7546771E-02  0.1110748E+00
         21   -1    0    0  502  501  0.00000000000E+00  0.00000000000E+00  0.82770039521E+02  0.82770039521E+02  0.00000000000E+00 0.  1.
         21   -1    0    0  501  502 -0.00000000000E+00 -0.00000000000E+00 -0.78000099326E+03  0.78000099326E+03  0.00000000000E+00 0.  1.
         25    1    1    2    0    0  0.18523537552E+01 -0.10054119121E+03 -0.33870604727E+03  0.37477826618E+03  0.12500000000E+03 0.  0.
         25    1    1    2    0    0 -0.17626874116E+02 -0.43553346010E+02 -0.10257233655E+03  0.16838552451E+03  0.12500000000E+03 0.  0.
         25    1    1    2    0    0  0.15774520360E+02  0.14409453722E+03 -0.25595256992E+03  0.31960724209E+03  0.12500000000E+03 0.  0.
</event>
<event>
 5    0  0.5547141E-005  0.3715789E+03  0.7546771E-02  0.1054091E+00
         21   -1    0    0  502  501  0.00000000000E+00  0.00000000000E+00  0.10391544293E+04  0.10391544293E+04  0.00000000000E+00 0. -1.
         21   -1    0    0  501  502 -0.00000000000E+00 -0.00000000000E+00 -0.13286847061E+03  0.13286847061E+03  0.00000000000E+00 0. -1.
         25    1    1    2    0    0  0.33790373001E+01 -0.74769804492E+02 -0.40731590664E+02  0.15128120847E+03  0.12500000000E+03 0.  0.
         25    1    1    2    0    0  0.65552064666E+02  0.37896687109E+02  0.14711893795E+03  0.20736975184E+03  0.12500000000E+03 0.  0.
         25    1    1    2    0    0 -0.68931101966E+02  0.36873117383E+02  0.79989861136E+03  0.81337193956E+03  0.12500000000E+03 0.  0.
</event>
<event>
 5    0  0.5547141E-005  0.2943544E+03  0.7546771E-02  0.1088097E+00
         21   -1    0    0  502  501  0.00000000000E+00  0.00000000000E+00  0.10362099077E+04  0.10362099077E+04  0.00000000000E+00 0. -1.
         21   -1    0    0  501  502 -0.00000000000E+00 -0.00000000000E+00 -0.83616737797E+02  0.83616737797E+02  0.00000000000E+00 0. -1.
         25    1    1    2    0    0  0.12138014411E+03  0.34261735707E+02  0.13301550273E+03  0.22186737003E+03  0.12500000000E+03 0.  0.
         25    1    1    2    0    0 -0.16640875029E+03 -0.82997710358E+02  0.53879591960E+03  0.58352937808E+03  0.12500000000E+03 0.  0.
         25    1    1    2    0    0  0.45028606185E+02  0.48735974651E+02  0.28078174753E+03  0.31442989735E+03  0.12500000000E+03 0.  0.
</event>
<event>
 5    0  0.5547141E-005  0.3781027E+03  0.7546771E-02  0.1051637E+00
         21   -1    0    0  502  501  0.00000000000E+00  0.00000000000E+00  0.30140196801E+03  0.30140196801E+03  0.00000000000E+00 0. -1.
         21   -1    0    0  501  502 -0.00000000000E+00 -0.00000000000E+00 -0.47432230516E+03  0.47432230516E+03  0.00000000000E+00 0. -1.
         25    1    1    2    0    0  0.29229122621E+02  0.44003566197E+01  0.20086034622E+03  0.23841892423E+03  0.12500000000E+03 0.  0.
         25    1    1    2    0    0  0.73814942032E+02  0.29187928365E+02 -0.33660949415E+03  0.36773840211E+03  0.12500000000E+03 0.  0.
         25    1    1    2    0    0 -0.10304406465E+03 -0.33588284984E+02 -0.37171189221E+02  0.16956694683E+03  0.12500000000E+03 0.  0.
</event>
<event>
 5    0  0.5547141E-005  0.2555736E+03  0.7546771E-02  0.1109832E+00
         21   -1    0    0  502  501  0.00000000000E+00  0.00000000000E+00  0.45569093351E+02  0.45569093351E+02  0.00000000000E+00 0.  1.
         21   -1    0    0  501  502 -0.00000000000E+00 -0.00000000000E+00 -0.14333806858E+04  0.14333806858E+04  0.00000000000E+00 0.  1.
         25    1    1    2    0    0 -0.12557347500E+02 -0.27742265418E+02 -0.15763731343E+03  0.20347442800E+03  0.12500000000E+03 0.  0.
         25    1    1    2    0    0  0.79892540779E+02 -0.70467531634E+02 -0.59050563775E+03  0.61291957001E+03  0.12500000000E+03 0.  0.
         25    1    1    2    0    0 -0.67335193279E+02  0.98209797052E+02 -0.63966864124E+03  0.66255578111E+03  0.12500000000E+03 0.  0.
</event>
<event>
 5    0  0.5547141E-005  0.4559921E+03  0.7546771E-02  0.1025950E+00
         21   -1    0    0  502  501  0.00000000000E+00  0.00000000000E+00  0.10586319402E+04  0.10586319402E+04  0.00000000000E+00 0. -1.
         21   -1    0    0  501  502 -0.00000000000E+00 -0.00000000000E+00 -0.19641277050E+03  0.19641277050E+03  0.00000000000E+00 0. -1.
         25    1    1    2    0    0 -0.78712357878E+02 -0.18871233831E+00 -0.62624432083E+01  0.14785090155E+03  0.12500000000E+03 0.  0.
         25    1    1    2    0    0  0.24517408802E+03 -0.37410704578E+02  0.85072484500E+03  0.89491209409E+03  0.12500000000E+03 0.  0.
         25    1    1    2    0    0 -0.16646173014E+03  0.37599416916E+02  0.17756767948E+02  0.21228171509E+03  0.12500000000E+03 0.  0.
</event>
<event>
 5    0  0.5547141E-005  0.3596608E+03  0.7546771E-02  0.1058718E+00
         21   -1    0    0  502  501  0.00000000000E+00  0.00000000000E+00  0.13337081578E+03  0.13337081578E+03  0.00000000000E+00 0. -1.
         21   -1    0    0  501  502 -0.00000000000E+00 -0.00000000000E+00 -0.96989626260E+03  0.96989626260E+03  0.00000000000E+00 0. -1.
         25    1    1    2    0    0 -0.17251053170E+03  0.51375407376E+02 -0.18550835004E+03  0.28711959872E+03  0.12500000000E+03 0.  0.
         25    1    1    2    0    0  0.26144357546E+03  0.30333053127E+02 -0.26947726566E+03  0.39688264508E+03  0.12500000000E+03 0.  0.
         25    1    1    2    0    0 -0.88933043760E+02 -0.81708460503E+02 -0.38153983112E+03  0.41926483459E+03  0.12500000000E+03 0.  0.
</event>
<event>
 5    0  0.5547141E-005  0.2762143E+03  0.7546771E-02  0.1097775E+00
         21   -1    0    0  502  501  0.00000000000E+00  0.00000000000E+00  0.42444823267E+02  0.42444823267E+02  0.00000000000E+00 0. -1.
         21   -1    0    0  501  502 -0.00000000000E+00 -0.00000000000E+00 -0.17974942425E+04  0.17974942425E+04  0.00000000000E+00 0. -1.
         25    1    1    2    0    0 -0.28219524025E+02  0.67664033026E+02 -0.39518487256E+03  0.42091667394E+03  0.12500000000E+03 0.  0.
         25    1    1    2    0    0 -0.11416912929E+03 -0.95329076758E+02 -0.90280445413E+03  0.92347339180E+03  0.12500000000E+03 0.  0.
         25    1    1    2    0    0  0.14238865331E+03  0.27665043732E+02 -0.45706009256E+03  0.49554900005E+03  0.12500000000E+03 0.  0.
</event>
<event>
 5    0  0.5547141E-005  0.4512488E+03  0.7546771E-02  0.1027350E+00
         21   -1    0    0  502  501  0.00000000000E+00  0.00000000000E+00  0.10418295410E+03  0.10418295410E+03  0.00000000000E+00 0. -1.
         21   -1    0    0  501  502 -0.00000000000E+00 -0.00000000000E+00 -0.19544992192E+04  0.19544992192E+04  0.00000000000E+00 0. -1.
         25    1    1    2    0    0  0.27372552049E+03  0.90152760760E+02 -0.29822237155E+03  0.43314519936E+03  0.12500000000E+03 0.  0.
         25    1    1    2    0    0 -0.11771493650E+03  0.58120787811E+02 -0.31308912478E+03  0.36177981191E+03  0.12500000000E+03 0.  0.
         25    1    1    2    0    0 -0.15601058398E+03 -0.14827354857E+03 -0.12390047688E+04  0.12637571620E+04  0.12500000000E+03 0.  0.
</event>
<event>
 5    0  0.5547141E-005  0.4117081E+03  0.7546771E-02  0.1039799E+00
         21   -1    0    0  502  501  0.00000000000E+00  0.00000000000E+00  0.15660773530E+04  0.15660773530E+04  0.00000000000E+00 0.  1.
         21   -1    0    0  501  502 -0.00000000000E+00 -0.00000000000E+00 -0.10823445321E+03  0.10823445321E+03  0.00000000000E+00 0.  1.
         25    1    1    2    0    0  0.19451015496E+03  0.59464860616E+02  0.63373171889E+03  0.67720835904E+03  0.12500000000E+03 0.  0.
         25    1    1    2    0    0  0.66308596246E+02  0.99141507308E+02  0.95754508959E+02  0.19753428663E+03  0.12500000000E+03 0.  0.
         25    1    1    2    0    0 -0.26081875120E+03 -0.15860636792E+03  0.72835667194E+03  0.79956916054E+03  0.12500000000E+03 0.  0.
</event>
<event>
 5    0  0.5547141E-005  0.3286454E+03  0.7546771E-02  0.1071738E+00
         21   -1    0    0  502  501  0.00000000000E+00  0.00000000000E+00  0.61335583778E+03  0.61335583778E+03  0.00000000000E+00 0.  1.
         21   -1    0    0  501  502 -0.00000000000E+00 -0.00000000000E+00 -0.17609316227E+03  0.17609316227E+03  0.00000000000E+00 0.  1.
         25    1    1    2    0    0 -0.13588041178E+03  0.97110717055E+02  0.25418453743E+03  0.32882937330E+03  0.12500000000E+03 0.  0.
         25    1    1    2    0    0  0.16932152041E+03 -0.14099722098E+03  0.29470988502E+02  0.25503633616E+03  0.12500000000E+03 0.  0.
         25    1    1    2    0    0 -0.33441108634E+02  0.43886503924E+02  0.15360714957E+03  0.20558329060E+03  0.12500000000E+03 0.  0.
</event>
<event>
 5    0  0.5547141E-005  0.2751108E+03  0.7546771E-02  0.1098390E+00
         21   -1    0    0  502  501  0.00000000000E+00  0.00000000000E+00  0.17511529928E+04  0.17511529928E+04  0.00000000000E+00 0. -1.
         21   -1    0    0  501  502 -0.00000000000E+00 -0.00000000000E+00 -0.43220653414E+02  0.43220653414E+02  0.00000000000E+00 0. -1.
         25    1    1    2    0    0 -0.46601716331E+02  0.13091271384E+03  0.28887298591E+03  0.34406752331E+03  0.12500000000E+03 0.  0.
         25    1    1    2    0    0  0.39514269970E+02 -0.97281357725E+02  0.63762243283E+03  0.65818873201E+03  0.12500000000E+03 0.  0.
         25    1    1    2    0    0  0.70874463613E+01 -0.33631356117E+02  0.78143692065E+03  0.79211739090E+03  0.12500000000E+03 0.  0.
</event>
<event>
 5    0  0.5547141E-005  0.2960050E+03  0.7546771E-02  0.1087255E+00
         21   -1    0    0  502  501  0.00000000000E+00  0.00000000000E+00  0.15640489091E+04  0.15640489091E+04  0.00000000000E+00 0.  1.
         21   -1    0    0  501  502 -0.00000000000E+00 -0.00000000000E+00 -0.56020606390E+02  0.56020606390E+02  0.00000000000E+00 0.  1.
         25    1    1    2    0    0  0.92960535837E+02 -0.26471748145E+02  0.27141806109E+03  0.31406238005E+03  0.12500000000E+03 0.  0.
         25    1    1    2    0    0  0.10871839290E+03  0.59385319646E+02  0.43125925600E+03  0.46578519838E+03  0.12500000000E+03 0.  0.
         25    1    1    2    0    0 -0.20167892874E+03 -0.32913571501E+02  0.80535098559E+03  0.84022193703E+03  0.12500000000E+03 0.  0.
</event>
<event>
 5    0  0.5547141E-005  0.3283674E+03  0.7546771E-02  0.1071862E+00
         21   -1    0    0  502  501  0.00000000000E+00  0.00000000000E+00  0.46112924865E+03  0.46112924865E+03  0.00000000000E+00 0. -1.
         21   -1    0    0  501  502 -0.00000000000E+00 -0.00000000000E+00 -0.23382844540E+03  0.23382844540E+03  0.00000000000E+00 0. -1.
         25    1    1    2    0    0 -0.77554258759E+02 -0.97613639596E+02  0.19669527269E+03  0.26430496776E+03  0.12500000000E+03 0.  0.
         25    1    1    2    0    0  0.10702801573E+03 -0.79872508724E+02  0.89721899364E+02  0.20373912983E+03  0.12500000000E+03 0.  0.
         25    1    1    2    0    0 -0.29473756968E+02  0.17748614832E+03 -0.59116368805E+02  0.22691359645E+03  0.12500000000E+03 0.  0.
</event>
<event>
 5    0  0.5547141E-005  0.3095216E+03  0.7546771E-02  0.1080575E+00
         21   -1    0    0  502  501  0.00000000000E+00  0.00000000000E+00  0.40654574516E+03  0.40654574516E+03  0.00000000000E+00 0. -1.
         21   -1    0    0  501  502 -0.00000000000E+00 -0.00000000000E+00 -0.23565272884E+03  0.23565272884E+03  0.00000000000E+00 0. -1.
         25    1    1    2    0    0  0.34999663622E+02 -0.24815859136E+02 -0.47037040220E+02  0.14027931591E+03  0.12500000000E+03 0.  0.
         25    1    1    2    0    0  0.99258758996E+02 -0.11359063889E+03  0.18558779436E+03  0.26985730284E+03  0.12500000000E+03 0.  0.
         25    1    1    2    0    0 -0.13425842262E+03  0.13840649803E+03  0.32342262187E+02  0.23206185525E+03  0.12500000000E+03 0.  0.
</event>
<event>
 5    0  0.5547141E-005  0.3235586E+03  0.7546771E-02  0.1074023E+00
         21   -1    0    0  502  501  0.00000000000E+00  0.00000000000E+00  0.31408784527E+04  0.31408784527E+04  0.00000000000E+00 0.  1.
         21   -1    0    0  501  502 -0.00000000000E+00 -0.00000000000E+00 -0.33331498154E+02  0.33331498154E+02  0.00000000000E+00 0.  1.
         25    1    1    2    0    0  0.10844214863E+03  0.13624354494E+02  0.82256602692E+03  0.83915742938E+03  0.12500000000E+03 0.  0.
         25    1    1    2    0    0 -0.24740319883E+03 -0.38650323198E+02  0.10938261709E+04  0.11290628337E+04  0.12500000000E+03 0.  0.
         25    1    1    2    0    0  0.13896105020E+03  0.25025968704E+02  0.11911547568E+04  0.12059896879E+04  0.12500000000E+03 0.  0.
</event>
<event>
 5    0  0.5547141E-005  0.3335393E+03  0.7546771E-02  0.1069581E+00
         21   -1    0    0  502  501  0.00000000000E+00  0.00000000000E+00  0.23610222945E+03  0.23610222945E+03  0.00000000000E+00 0.  1.
         21   -1    0    0  501  502 -0.00000000000E+00 -0.00000000000E+00 -0.47118770777E+03  0.47118770777E+03  0.00000000000E+00 0.  1.
         25    1    1    2    0    0  0.89556505856E+02  0.14935228370E+03 -0.13158587418E+03  0.25152796001E+03  0.12500000000E+03 0.  0.
         25    1    1    2    0    0 -0.60749618030E+02  0.67726485786E+02  0.47651901023E+02  0.16178101446E+03  0.12500000000E+03 0.  0.
         25    1    1    2    0    0 -0.28806887827E+02 -0.21707876948E+03 -0.15115150517E+03  0.29398096275E+03  0.12500000000E+03 0.  0.
</event>
<event>
 5    0  0.7976439E-005  0.2802884E+03  0.7546771E-02  0.1095532E+00
         21   -1    0    0  502  501  0.00000000000E+00  0.00000000000E+00  0.50979033069E+03  0.50979033069E+03  0.00000000000E+00 0.  1.
         21   -1    0    0  501  502 -0.00000000000E+00 -0.00000000000E+00 -0.15410563222E+03  0.15410563222E+03  0.00000000000E+00 0.  1.
         25    1    1    2    0    0 -0.55056621765E+02  0.16165298354E+03  0.37184574967E+02  0.21487347743E+03  0.12500000000E+03 0.  0.
         25    1    1    2    0    0  0.70826502094E+02 -0.86470498497E+02  0.14392508802E+03  0.22098183516E+03  0.12500000000E+03 0.  0.
         25    1    1    2    0    0 -0.15769880329E+02 -0.75182485043E+02  0.17457503549E+03  0.22804065032E+03  0.12500000000E+03 0.  0.
</event>
<event>
 5    0  0.5547141E-005  0.3952394E+03  0.7546771E-02  0.1045441E+00
         21   -1    0    0  502  501  0.00000000000E+00  0.00000000000E+00  0.16279763139E+03  0.16279763139E+03  0.00000000000E+00 0.  1.
         21   -1    0    0  501  502 -0.00000000000E+00 -0.00000000000E+00 -0.95956047026E+03  0.95956047026E+03  0.00000000000E+00 0.  1.
         25    1    1    2    0    0 -0.16323811300E+03 -0.15227856061E+03 -0.39034666471E+03  0.46672364436E+03  0.12500000000E+03 0.  0.
         25    1    1    2    0    0 -0.80589736023E+01  0.52362179930E+02 -0.39860175574E+03  0.42108800104E+03  0.12500000000E+03 0.  0.
         25    1    1    2    0    0  0.17129708660E+03  0.99916380678E+02 -0.78144184267E+01  0.23454645625E+03  0.12500000000E+03 0.  0.
</event>
<event>
 5    0  0.5547141E-005  0.3801929E+03  0.7546771E-02  0.1050862E+00
         21   -1    0    0  502  501  0.00000000000E+00  0.00000000000E+00  0.25659124999E+03  0.25659124999E+03  0.00000000000E+00 0.  1.
         21   -1    0    0  501  502 -0.00000000000E+00 -0.00000000000E+00 -0.56333420923E+03  0.56333420923E+03  0.00000000000E+00 0.  1.
         25    1    1    2    0    0  0.22239395221E+02 -0.16057979317E+03 -0.16672859605E+02  0.20538608746E+03  0.12500000000E+03 0.  0.
         25    1    1    2    0    0 -0.12901829209E+03  0.42273136154E+02 -0.35645576706E+03  0.40139562978E+03  0.12500000000E+03 0.  0.
         25    1    1    2    0    0  0.10677889687E+03  0.11830665702E+03  0.66385667415E+02  0.21314374199E+03  0.12500000000E+03 0.  0.
</event>
<event>
 5    0  0.5547141E-005  0.3334074E+03  0.7546771E-02  0.1069639E+00
         21   -1    0    0  502  501  0.00000000000E+00  0.00000000000E+00  0.14871505535E+04  0.14871505535E+04  0.00000000000E+00 0.  1.
         21   -1    0    0  501  502 -0.00000000000E+00 -0.00000000000E+00 -0.74747295382E+02  0.74747295382E+02  0.00000000000E+00 0.  1.
         25    1    1    2    0    0 -0.19281698419E+03  0.12520187614E+03  0.49320770409E+03  0.55833031312E+03  0.12500000000E+03 0.  0.
         25    1    1    2    0    0  0.16252111557E+03 -0.34311944935E+02  0.30225959104E+03  0.36684640239E+03  0.12500000000E+03 0.  0.
         25    1    1    2    0    0  0.30295868622E+02 -0.90889931201E+02  0.61693596303E+03  0.63672113341E+03  0.12500000000E+03 0.  0.
</event>
<event>
 5    0  0.5547141E-005  0.2947021E+03  0.7546771E-02  0.1087919E+00
         21   -1    0    0  502  501  0.00000000000E+00  0.00000000000E+00  0.13423649626E+04  0.13423649626E+04  0.00000000000E+00 0. -1.
         21   -1    0    0  501  502 -0.00000000000E+00 -0.00000000000E+00 -0.64698742498E+02  0.64698742498E+02  0.00000000000E+00 0. -1.
         25    1    1    2    0    0  0.90699700901E+02 -0.77605490039E+02  0.60042968558E+03  0.62481185580E+03  0.12500000000E+03 0.  0.
         25    1    1    2    0    0  0.84440491917E+01 -0.12219748265E+02  0.61943015363E+02  0.14029455216E+03  0.12500000000E+03 0.  0.
         25    1    1    2    0    0 -0.99143750093E+02  0.89825238304E+02  0.61529351915E+03  0.64195729712E+03  0.12500000000E+03 0.  0.
</event>
<event>
 5    0  0.5547141E-005  0.4468507E+03  0.7546771E-02  0.1028665E+00
         21   -1    0    0  502  501  0.00000000000E+00  0.00000000000E+00  0.35503693504E+03  0.35503693504E+03  0.00000000000E+00 0. -1.
         21   -1    0    0  501  502 -0.00000000000E+00 -0.00000000000E+00 -0.56240785607E+03  0.56240785607E+03  0.00000000000E+00 0. -1.
         25    1    1    2    0    0  0.22561173641E+02 -0.14215255067E+03 -0.35455602992E+02  0.19390320782E+03  0.12500000000E+03 0.  0.
         25    1    1    2    0    0  0.23474179499E+03  0.27407563170E+03 -0.47466373369E+02  0.38483661314E+03  0.12500000000E+03 0.  0.
         25    1    1    2    0    0 -0.25730296863E+03 -0.13192308103E+03 -0.12444894466E+03  0.33870497015E+03  0.12500000000E+03 0.  0.
</event>
<event>
 5    0  0.5547141E-005  0.2921651E+03  0.7546771E-02  0.1089224E+00
         21   -1    0    0  502  501  0.00000000000E+00  0.00000000000E+00  0.24365964546E+03  0.24365964546E+03  0.00000000000E+00 0. -1.
         21   -1    0    0  501  502 -0.00000000000E+00 -0.00000000000E+00 -0.35032655104E+03  0.35032655104E+03  0.00000000000E+00 0. -1.
         25    1    1    2    0    0 -0.39341103265E+01 -0.14978486943E+03  0.64284848515E+02  0.20544713696E+03  0.12500000000E+03 0.  0.
         25    1    1    2    0    0  0.10642987185E+02  0.17629096208E+03 -0.76493309794E+02  0.22949510437E+03  0.12500000000E+03 0.  0.
         25    1    1    2    0    0 -0.67088768584E+01 -0.26506092646E+02 -0.94458444299E+02  0.15904395517E+03  0.12500000000E+03 0.  0.
</event>
<event>
 5    0  0.5547141E-005  0.3048681E+03  0.7546771E-02  0.1082832E+00
         21   -1    0    0  502  501  0.00000000000E+00  0.00000000000E+00  0.18723154379E+04  0.18723154379E+04  0.00000000000E+00 0. -1.
         21   -1    0    0  501  502 -0.00000000000E+00 -0.00000000000E+00 -0.49641494784E+02  0.49641494784E+02  0.00000000000E+00 0. -1.
         25    1    1    2    0    0  0.43344326481E+01 -0.15401330582E+03  0.26682027566E+03  0.33250104538E+03  0.12500000000E+03 0.  0.
         25    1    1    2    0    0  0.35318849109E+02  0.14113176193E+03  0.99637038522E+03  0.10146647426E+04  0.12500000000E+03 0.  0.
         25    1    1    2    0    0 -0.39653281757E+02  0.12881543888E+02  0.55948328220E+03  0.57479114467E+03  0.12500000000E+03 0.  0.
</event>
<event>
 5    0  0.5547141E-005  0.2930127E+03  0.7546771E-02  0.1088787E+00
         21   -1    0    0  502  501  0.00000000000E+00  0.00000000000E+00  0.18311581896E+03  0.18311581896E+03  0.00000000000E+00 0.  1.
         21   -1    0    0  501  502 -0.00000000000E+00 -0.00000000000E+00 -0.46886430033E+03  0.46886430033E+03  0.00000000000E+00 0.  1.
         25    1    1    2    0    0  0.62269712581E+02  0.69414301276E+02  0.69372273660E+02  0.17068501598E+03  0.12500000000E+03 0.  0.
         25    1    1    2    0    0  0.32752445982E+02 -0.83426023990E+02 -0.24397511306E+03  0.28841199696E+03  0.12500000000E+03 0.  0.
         25    1    1    2    0    0 -0.95022158563E+02  0.14011722714E+02 -0.11114564197E+03  0.19288310636E+03  0.12500000000E+03 0.  0.
</event>
<event>
 5    0  0.5547141E-005  0.3148717E+03  0.7546771E-02  0.1078034E+00
         21   -1    0    0  502  501  0.00000000000E+00  0.00000000000E+00  0.73557829430E+03  0.73557829430E+03  0.00000000000E+00 0.  1.
         21   -1    0    0  501  502 -0.00000000000E+00 -0.00000000000E+00 -0.13478398576E+03  0.13478398576E+03  0.00000000000E+00 0.  1.
         25    1    1    2    0    0  0.51408088868E+02 -0.81473020987E+01  0.10317994897E+03  0.17023593041E+03  0.12500000000E+03 0.  0.
         25    1    1    2    0    0 -0.80330164884E+02  0.61194073681E+02  0.53312842601E+03  0.55682005052E+03  0.12500000000E+03 0.  0.
         25    1    1    2    0    0  0.28922076015E+02 -0.53046771583E+02 -0.35514066442E+02  0.14330629913E+03  0.12500000000E+03 0.  0.
</event>
<event>
 5    0  0.5547141E-005  0.7157722E+03  0.7546771E-02  0.9690633E-01
         21   -1    0    0  502  501  0.00000000000E+00  0.00000000000E+00  0.13720379531E+04  0.13720379531E+04  0.00000000000E+00 0. -1.
         21   -1    0    0  501  502 -0.00000000000E+00 -0.00000000000E+00 -0.37340796755E+03  0.37340796755E+03  0.00000000000E+00 0. -1.
         25    1    1    2    0    0 -0.21545644137E+02  0.39693582167E+03  0.47089557024E+03  0.62880036528E+03  0.12500000000E+03 0.  0.
         25    1    1    2    0    0 -0.18393748180E+03  0.18435724832E+03  0.36755781366E+03  0.46748726037E+03  0.12500000000E+03 0.  0.
         25    1    1    2    0    0  0.20548312594E+03 -0.58129306999E+03  0.16017660167E+03  0.64915829502E+03  0.12500000000E+03 0.  0.
</event>
<event>
 5    0  0.5547141E-005  0.2758519E+03  0.7546771E-02  0.1097976E+00
         21   -1    0    0  502  501  0.00000000000E+00  0.00000000000E+00  0.59402847839E+03  0.59402847839E+03  0.00000000000E+00 0. -1.
         21   -1    0    0  501  502 -0.00000000000E+00 -0.00000000000E+00 -0.12809870414E+03  0.12809870414E+03  0.00000000000E+00 0. -1.
         25    1    1    2    0    0 -0.13726421048E+03 -0.69936526699E+02  0.77352300133E+02  0.21293416725E+03  0.12500000000E+03 0.  0.
         25    1    1    2    0    0  0.32934340975E+02 -0.72380361695E+01  0.80982016616E+02  0.15270935465E+03  0.12500000000E+03 0.  0.
         25    1    1    2    0    0  0.10432986950E+03  0.77174562869E+02  0.30759545749E+03  0.35648366063E+03  0.12500000000E+03 0.  0.
</event>
<event>
 5    0  0.5547141E-005  0.3634993E+03  0.7546771E-02  0.1057207E+00
         21   -1    0    0  502  501  0.00000000000E+00  0.00000000000E+00  0.54310893135E+03  0.54310893135E+03  0.00000000000E+00 0. -1.
         21   -1    0    0  501  502 -0.00000000000E+00 -0.00000000000E+00 -0.24328769343E+03  0.24328769343E+03  0.00000000000E+00 0. -1.
         25    1    1    2    0    0  0.74461206016E+01  0.18975840232E+03 -0.48484539946E+02  0.23246386080E+03  0.12500000000E+03 0.  0.
         25    1    1    2    0    0 -0.11497491050E+03 -0.66706623459E+01  0.21409665035E+03  0.27336075701E+03  0.12500000000E+03 0.  0.
         25    1    1    2    0    0  0.10752878990E+03 -0.18308773998E+03  0.13420912751E+03  0.28057200697E+03  0.12500000000E+03 0.  0.
</event>
<event>
 5    0  0.5547141E-005  0.3339669E+03  0.7546771E-02  0.1069395E+00
         21   -1    0    0  502  501  0.00000000000E+00  0.00000000000E+00  0.33293851525E+03  0.33293851525E+03  0.00000000000E+00 0. -1.
         21   -1    0    0  501  502 -0.00000000000E+00 -0.00000000000E+00 -0.33499848764E+03  0.33499848764E+03  0.00000000000E+00 0. -1.
         25    1    1    2    0    0  0.49485940109E+02 -0.50333374218E+02 -0.19574733397E+03  0.24274333273E+03  0.12500000000E+03 0.  0.
         25    1    1    2    0    0 -0.95182959496E+02  0.12538370164E+03  0.18331586449E+03  0.27204884596E+03  0.12500000000E+03 0.  0.
         25    1    1    2    0    0  0.45697019387E+02 -0.75050327420E+02  0.10371497094E+02  0.15314482420E+03  0.12500000000E+03 0.  0.
</event>
<event>
 5    0  0.5547141E-005  0.2484391E+03  0.7546771E-02  0.1114295E+00
         21   -1    0    0  502  501  0.00000000000E+00  0.00000000000E+00  0.97098846769E+03  0.97098846769E+03  0.00000000000E+00 0.  1.
         21   -1    0    0  501  502 -0.00000000000E+00 -0.00000000000E+00 -0.63566124326E+02  0.63566124326E+02  0.00000000000E+00 0.  1.
         25    1    1    2    0    0 -0.99258441610E+02 -0.69022479309E+02  0.27170547756E+03  0.32259139390E+03  0.12500000000E+03 0.  0.
         25    1    1    2    0    0  0.53535246884E+02 -0.41149475431E+02  0.22141030407E+03  0.26307190031E+03  0.12500000000E+03 0.  0.
         25    1    1    2    0    0  0.45723194726E+02  0.11017195474E+03  0.41430656174E+03  0.44889129781E+03  0.12500000000E+03 0.  0.
</event>
<event>
 5    0  0.5547141E-005  0.3287986E+03  0.7546771E-02  0.1071670E+00
         21   -1    0    0  502  501  0.00000000000E+00  0.00000000000E+00  0.54068731505E+03  0.54068731505E+03  0.00000000000E+00 0. -1.
         21   -1    0    0  501  502 -0.00000000000E+00 -0.00000000000E+00 -0.19994645460E+03  0.19994645460E+03  0.00000000000E+00 0. -1.
         25    1    1    2    0    0  0.25886939103E+02  0.10325177126E+03 -0.60771769132E+02  0.17506932858E+03  0.12500000000E+03 0.  0.
         25    1    1    2    0    0  0.27890205080E+02  0.46847353555E+02  0.25921336379E+02  0.13881445802E+03  0.12500000000E+03 0.  0.
         25    1    1    2    0    0 -0.53777144183E+02 -0.15009912482E+03  0.37559129321E+03  0.42674998306E+03  0.12500000000E+03 0.  0.
</event>
<event>
 5    0  0.5547141E-005  0.2554241E+03  0.7546771E-02  0.1109924E+00
         21   -1    0    0  502  501  0.00000000000E+00  0.00000000000E+00  0.24904237464E+03  0.24904237464E+03  0.00000000000E+00 0.  1.
         21   -1    0    0  501  502 -0.00000000000E+00 -0.00000000000E+00 -0.26196925954E+03  0.26196925954E+03  0.00000000000E+00 0.  1.
         25    1    1    2    0    0 -0.70802769046E+02  0.37991327876E+02  0.23356440012E+02  0.15042239324E+03  0.12500000000E+03 0.  0.
         25    1    1    2    0    0 -0.82967316350E+01 -0.15063308542E+02 -0.13224307044E+03  0.18278120445E+03  0.12500000000E+03 0.  0.
         25    1    1    2    0    0  0.79099500682E+02 -0.22928019334E+02  0.95959745527E+02  0.17780803649E+03  0.12500000000E+03 0.  0.
</event>
<event>
 5    0  0.5860366E-005  0.2948456E+03  0.7546771E-02  0.1087846E+00
         21   -1    0    0  502  501  0.00000000000E+00  0.00000000000E+00  0.33967848074E+03  0.33967848074E+03  0.00000000000E+00 0.  1.
         21   -1    0    0  501  502 -0.00000000000E+00 -0.00000000000E+00 -0.25593008071E+03  0.25593008071E+03  0.00000000000E+00 0.  1.
         25    1    1    2    0    0  0.27536012419E+01  0.12169997241E+03  0.42600317947E+02  0.17960582589E+03  0.12500000000E+03 0.  0.
         25    1    1    2    0    0 -0.63009687221E+02  0.40676243067E+02  0.11949847903E+03  0.18849314026E+03  0.12500000000E+03 0.  0.
         25    1    1    2    0    0  0.60256085980E+02 -0.16237621548E+03 -0.78350396951E+02  0.22750959530E+03  0.12500000000E+03 0.  0.
</event>
<event>
 5    0  0.5547141E-005  0.3606159E+03  0.7546771E-02  0.1058340E+00
         21   -1    0    0  502  501  0.00000000000E+00  0.00000000000E+00  0.43117866412E+03  0.43117866412E+03  0.00000000000E+00 0.  1.
         21   -1    0    0  501  502 -0.00000000000E+00 -0.00000000000E+00 -0.30160087412E+03  0.30160087412E+03  0.00000000000E+00 0.  1.
         25    1    1    2    0    0 -0.12548382475E+03 -0.18973565938E+03 -0.42198038847E+02  0.26296669979E+03  0.12500000000E+03 0.  0.
         25    1    1    2    0    0  0.14009241760E+03  0.23635797576E+03  0.13492293823E+03  0.33063601956E+03  0.12500000000E+03 0.  0.
         25    1    1    2    0    0 -0.14608592849E+02 -0.46622316380E+02  0.36852890622E+02  0.13917681889E+03  0.12500000000E+03 0.  0.
</event>
<event>
 5    0  0.5547141E-005  0.2749249E+03  0.7546771E-02  0.1098494E+00
         21   -1    0    0  502  501  0.00000000000E+00  0.00000000000E+00  0.27087129135E+03  0.27087129135E+03  0.00000000000E+00 0. -1.
         21   -1    0    0  501  502 -0.00000000000E+00 -0.00000000000E+00 -0.27903921388E+03  0.27903921388E+03  0.00000000000E+00 0. -1.
         25    1    1    2    0    0  0.22744950797E+01  0.91530909370E+02  0.76307876960E+02  0.17271645198E+03  0.12500000000E+03 0.  0.
         25    1    1    2    0    0  0.39780321057E+02 -0.13165725539E+03  0.41522201786E+02  0.19043424084E+03  0.12500000000E+03 0.  0.
         25    1    1    2    0    0 -0.42054816137E+02  0.40126346025E+02 -0.12599800128E+03  0.18675981241E+03  0.12500000000E+03 0.  0.
</event>
<event>
 5    0  0.5547141E-005  0.2871105E+03  0.7546771E-02  0.1091867E+00
         21   -1    0    0  502  501  0.00000000000E+00  0.00000000000E+00  0.11973661757E+03  0.11973661757E+03  0.00000000000E+00 0. -1.
         21   -1    0    0  501  502 -0.00000000000E+00 -0.00000000000E+00 -0.68844820910E+03  0.68844820910E+03  0.00000000000E+00 0. -1.
         25    1    1    2    0    0 -0.51157650871E+02 -0.49598793453E+01 -0.57387736029E+02  0.14683343588E+03  0.12500000000E+03 0.  0.
         25    1    1    2    0    0 -0.90986475485E+02 -0.60689919651E+02 -0.77058038476E+02  0.18309764161E+03  0.12500000000E+03 0.  0.
         25    1    1    2    0    0  0.14214412636E+03  0.65649798997E+02 -0.43426581703E+03  0.47825374918E+03  0.12500000000E+03 0.  0.
</event>
<event>
 5    0  0.5547141E-005  0.2705218E+03  0.7546771E-02  0.1100981E+00
         21   -1    0    0  502  501  0.00000000000E+00  0.00000000000E+00  0.35807999981E+03  0.35807999981E+03  0.00000000000E+00 0. -1.
         21   -1    0    0  501  502 -0.00000000000E+00 -0.00000000000E+00 -0.20437348565E+03  0.20437348565E+03  0.00000000000E+00 0. -1.
         25    1    1    2    0    0  0.67572578735E+02 -0.63986672712E+02  0.84050880861E+02  0.17705902478E+03  0.12500000000E+03 0.  0.
         25    1    1    2    0    0  0.29651778605E+02  0.11145860420E+03  0.12497935187E+03  0.21106180805E+03  0.12500000000E+03 0.  0.
         25    1    1    2    0    0 -0.97224357341E+02 -0.47471931483E+02 -0.55323718561E+02  0.17433265263E+03  0.12500000000E+03 0.  0.
</event>
<event>
 5    0  0.5547141E-005  0.3682386E+03  0.7546771E-02  0.1055369E+00
         21   -1    0    0  502  501  0.00000000000E+00  0.00000000000E+00  0.29700499125E+03  0.29700499125E+03  0.00000000000E+00 0. -1.
         21   -1    0    0  501  502 -0.00000000000E+00 -0.00000000000E+00 -0.45655693342E+03  0.45655693342E+03  0.00000000000E+00 0. -1.
         25    1    1    2    0    0  0.80173773093E+02 -0.12511113279E+03 -0.12200324646E+02  0.19456227117E+03  0.12500000000E+03 0.  0.
         25    1    1    2    0    0 -0.66014514043E+02 -0.70023499777E+02  0.12488800953E+03  0.20120442716E+03  0.12500000000E+03 0.  0.
         25    1    1    2    0    0 -0.14159259051E+02  0.19513463257E+03 -0.27223962706E+03  0.35779522633E+03  0.12500000000E+03 0.  0.
</event>
<event>
 5    0  0.5547141E-005  0.3047976E+03  0.7546771E-02  0.1082867E+00
         21   -1    0    0  502  501  0.00000000000E+00  0.00000000000E+00  0.20091038903E+03  0.20091038903E+03  0.00000000000E+00 0. -1.
         21   -1    0    0  501  502 -0.00000000000E+00 -0.00000000000E+00 -0.46240300512E+03  0.46240300512E+03  0.00000000000E+00 0. -1.
         25    1    1    2    0    0 -0.45986668067E+02  0.12208519300E+02  0.89567548225E+02  0.16096946070E+03  0.12500000000E+03 0.  0.
         25    1    1    2    0    0  0.75815114494E+02  0.41281135746E+02 -0.32770218600E+03  0.36120047960E+03  0.12500000000E+03 0.  0.
         25    1    1    2    0    0 -0.29828446427E+02 -0.53489655046E+02 -0.23357978314E+02  0.14114345385E+03  0.12500000000E+03 0.  0.
</event>
<event>
 5    0  0.5547141E-005  0.2589225E+03  0.7546771E-02  0.1107792E+00
         21   -1    0    0  502  501  0.00000000000E+00  0.00000000000E+00  0.78681759133E+02  0.78681759133E+02  0.00000000000E+00 0.  1.
         21   -1    0    0  501  502 -0.00000000000E+00 -0.00000000000E+00 -0.85205070016E+03  0.85205070016E+03  0.00000000000E+00 0.  1.
         25    1    1    2    0    0  0.10917407110E+02 -0.40522410243E+02 -0.61404787177E+02  0.14545378441E+03  0.12500000000E+03 0.  0.
         25    1    1    2    0    0  0.44958498843E+00 -0.86969963301E+02 -0.31656590838E+03  0.35128756168E+03  0.12500000000E+03 0.  0.
         25    1    1    2    0    0 -0.11366992098E+02  0.12749237354E+03 -0.39539824547E+03  0.43399111320E+03  0.12500000000E+03 0.  0.
</event>
<event>
 5    0  0.5547141E-005  0.2700866E+03  0.7546771E-02  0.1101230E+00
         21   -1    0    0  502  501  0.00000000000E+00  0.00000000000E+00  0.13715045605E+04  0.13715045605E+04  0.00000000000E+00 0.  1.
         21   -1    0    0  501  502 -0.00000000000E+00 -0.00000000000E+00 -0.53187423854E+02  0.53187423854E+02  0.00000000000E+00 0.  1.
         25    1    1    2    0    0  0.68121761235E+02 -0.55838324086E+02  0.22829286758E+03  0.27477468257E+03  0.12500000000E+03 0.  0.
         25    1    1    2    0    0  0.17660780887E+02  0.18752577957E+02  0.87479127533E+03  0.88405222569E+03  0.12500000000E+03 0.  0.
         25    1    1    2    0    0 -0.85782542121E+02  0.37085746129E+02  0.21523299377E+03  0.26586507613E+03  0.12500000000E+03 0.  0.
</event>
<event>
 5    0  0.5547141E-005  0.2600414E+03  0.7546771E-02  0.1107118E+00
         21   -1    0    0  502  501  0.00000000000E+00  0.00000000000E+00  0.48129055276E+03  0.48129055276E+03  0.00000000000E+00 0.  1.
         21   -1    0    0  501  502 -0.00000000000E+00 -0.00000000000E+00 -0.14050045080E+03  0.14050045080E+03  0.00000000000E+00 0.  1.
         25    1    1    2    0    0 -0.58187899159E+02  0.65730262650E+02  0.10356222748E+03  0.18454385386E+03  0.12500000000E+03 0.  0.
         25    1    1    2    0    0  0.15356198621E+03 -0.13130556281E+02  0.10100608848E+03  0.22266774582E+03  0.12500000000E+03 0.  0.
         25    1    1    2    0    0 -0.95374087056E+02 -0.52599706368E+02  0.13622178599E+03  0.21457940388E+03  0.12500000000E+03 0.  0.
</event>
<event>
 5    0  0.5547141E-005  0.5066447E+03  0.7546771E-02  0.1012059E+00
         21   -1    0    0  502  501  0.00000000000E+00  0.00000000000E+00  0.82680508890E+03  0.82680508890E+03  0.00000000000E+00 0.  1.
         21   -1    0    0  501  502 -0.00000000000E+00 -0.00000000000E+00 -0.31045874007E+03  0.31045874007E+03  0.00000000000E+00 0.  1.
         25    1    1    2    0    0 -0.16255911509E+03 -0.40653127662E+03  0.35005751538E+03  0.57433301215E+03  0.12500000000E+03 0.  0.
         25    1    1    2    0    0  0.14056476976E+03  0.33721060225E+03  0.79361257295E+02  0.39419874927E+03  0.12500000000E+03 0.  0.
         25    1    1    2    0    0  0.21994345327E+02  0.69320674370E+02  0.86927576158E+02  0.16873206755E+03  0.12500000000E+03 0.  0.
</event>
<event>
 5    0  0.5915382E-005  0.2811788E+03  0.7546771E-02  0.1095047E+00
         21   -1    0    0  502  501  0.00000000000E+00  0.00000000000E+00  0.42341947898E+03  0.42341947898E+03  0.00000000000E+00 0.  1.
         21   -1    0    0  501  502 -0.00000000000E+00 -0.00000000000E+00 -0.18672143681E+03  0.18672143681E+03  0.00000000000E+00 0.  1.
         25    1    1    2    0    0 -0.65870359299E+01 -0.16060110060E+02 -0.99828697651E+02  0.16091017697E+03  0.12500000000E+03 0.  0.
         25    1    1    2    0    0 -0.52269399834E+02 -0.43628983785E+02  0.20364302185E+03  0.24845735798E+03  0.12500000000E+03 0.  0.
         25    1    1    2    0    0  0.58856435764E+02  0.59689093845E+02  0.13288371797E+03  0.20077338085E+03  0.12500000000E+03 0.  0.
</event>
<event>
 5    0  0.5547141E-005  0.3280560E+03  0.7546771E-02  0.1072000E+00
         21   -1    0    0  502  501  0.00000000000E+00  0.00000000000E+00  0.97415578168E+03  0.97415578168E+03  0.00000000000E+00 0.  1.
         21   -1    0    0  501  502 -0.00000000000E+00 -0.00000000000E+00 -0.11047588754E+03  0.11047588754E+03  0.00000000000E+00 0.  1.
         25    1    1    2    0    0 -0.13944254720E+03 -0.99224122796E+02  0.30750479702E+03  0.37346198026E+03  0.12500000000E+03 0.  0.
         25    1    1    2    0    0  0.75868823364E+02  0.13414239246E+03  0.52782959630E+03  0.56389657079E+03  0.12500000000E+03 0.  0.
         25    1    1    2    0    0  0.63573723838E+02 -0.34918269666E+02  0.28345500824E+02  0.14727311817E+03  0.12500000000E+03 0.  0.
</event>
<event>
 5    0  0.5547141E-005  0.2362891E+03  0.7546771E-02  0.1122290E+00
         21   -1    0    0  502  501  0.00000000000E+00  0.00000000000E+00  0.93703732823E+03  0.93703732823E+03  0.00000000000E+00 0. -1.
         21   -1    0    0  501  502 -0.00000000000E+00 -0.00000000000E+00 -0.59584089016E+02  0.59584089016E+02  0.00000000000E+00 0. -1.
         25    1    1    2    0    0  0.88008209030E+02 -0.81156616300E+02  0.32788208749E+03  0.37076071060E+03  0.12500000000E+03 0.  0.
         25    1    1    2    0    0 -0.74414481620E+02 -0.73364060838E+01  0.26219032557E+03  0.29993350054E+03  0.12500000000E+03 0.  0.
         25    1    1    2    0    0 -0.13593727410E+02  0.88493022384E+02  0.28738082616E+03  0.32592720610E+03  0.12500000000E+03 0.  0.
</event>
<event>
 5    0  0.5547141E-005  0.2904034E+03  0.7546771E-02  0.1090139E+00
         21   -1    0    0  502  501  0.00000000000E+00  0.00000000000E+00  0.87768518966E+02  0.87768518966E+02  0.00000000000E+00 0. -1.
         21   -1    0    0  501  502 -0.00000000000E+00 -0.00000000000E+00 -0.96086972371E+03  0.96086972371E+03  0.00000000000E+00 0. -1.
         25    1    1    2    0    0 -0.12106126715E+03  0.91474114010E+02 -0.18460770297E+03  0.26968193847E+03  0.12500000000E+03 0.  0.
         25    1    1    2    0    0  0.10135152545E+03  0.40738901445E+02 -0.21717509876E+03  0.27335290985E+03  0.12500000000E+03 0.  0.
         25    1    1    2    0    0  0.19709741700E+02 -0.13221301545E+03 -0.47131840300E+03  0.50560339435E+03  0.12500000000E+03 0.  0.
</event>
<event>
 5    0  0.5547141E-005  0.5774982E+03  0.7546771E-02  0.9953222E-01
         21   -1    0    0  502  501  0.00000000000E+00  0.00000000000E+00  0.10737047476E+04  0.10737047476E+04  0.00000000000E+00 0.  1.
         21   -1    0    0  501  502 -0.00000000000E+00 -0.00000000000E+00 -0.31061065215E+03  0.31061065215E+03  0.00000000000E+00 0.  1.
         25    1    1    2    0    0 -0.89941776357E+02  0.29684178568E+03  0.17837607057E+02  0.33488468028E+03  0.12500000000E+03 0.  0.
         25    1    1    2    0    0 -0.20909122608E+03 -0.11727935910E+03  0.70135999569E+02  0.27931639288E+03  0.12500000000E+03 0.  0.
         25    1    1    2    0    0  0.29903300243E+03 -0.17956242658E+03  0.67512048879E+03  0.77011432656E+03  0.12500000000E+03 0.  0.
</event>
<event>
 5    0  0.5547141E-005  0.2422070E+03  0.7546771E-02  0.1118331E+00
         21   -1    0    0  502  501  0.00000000000E+00  0.00000000000E+00  0.12140294385E+03  0.12140294385E+03  0.00000000000E+00 0. -1.
         21   -1    0    0  501  502 -0.00000000000E+00 -0.00000000000E+00 -0.48321933547E+03  0.48321933547E+03  0.00000000000E+00 0. -1.
         25    1    1    2    0    0  0.25213978150E+01  0.95255087340E+01  0.16317012360E+02  0.12644499854E+03  0.12500000000E+03 0.  0.
         25    1    1    2    0    0 -0.67103104882E+02  0.27892966852E+02 -0.15714960594E+03  0.21354588016E+03  0.12500000000E+03 0.  0.
         25    1    1    2    0    0  0.64581707067E+02 -0.37418475586E+02 -0.22098379804E+03  0.26463140063E+03  0.12500000000E+03 0.  0.
</event>
<event>
 5    0  0.5547141E-005  0.2198495E+03  0.7546771E-02  0.1133995E+00
         21   -1    0    0  502  501  0.00000000000E+00  0.00000000000E+00  0.60186417052E+02  0.60186417052E+02  0.00000000000E+00 0. -1.
         21   -1    0    0  501  502 -0.00000000000E+00 -0.00000000000E+00 -0.80306837743E+03  0.80306837743E+03  0.00000000000E+00 0. -1.
         25    1    1    2    0    0 -0.64198680076E+02  0.14632642144E+02 -0.24957662296E+03  0.28679099614E+03  0.12500000000E+03 0.  0.
         25    1    1    2    0    0  0.10362172073E+03  0.17359020815E+02 -0.27559836765E+03  0.32034084482E+03  0.12500000000E+03 0.  0.
         25    1    1    2    0    0 -0.39423040655E+02 -0.31991662958E+02 -0.21770696977E+03  0.25612295352E+03  0.12500000000E+03 0.  0.
</event>
<event>
 5    0  0.5547141E-005  0.3499954E+03  0.7546771E-02  0.1062617E+00
         21   -1    0    0  502  501  0.00000000000E+00  0.00000000000E+00  0.38693765226E+03  0.38693765226E+03  0.00000000000E+00 0.  1.
         21   -1    0    0  501  502 -0.00000000000E+00 -0.00000000000E+00 -0.31658012966E+03  0.31658012966E+03  0.00000000000E+00 0.  1.
         25    1    1    2    0    0 -0.61908979072E+02 -0.31241345619E+00 -0.24612558187E+02  0.14164602823E+03  0.12500000000E+03 0.  0.
         25    1    1    2    0    0  0.22796591476E+03 -0.81974065017E+02  0.17556236317E+03  0.32424581569E+03  0.12500000000E+03 0.  0.
         25    1    1    2    0    0 -0.16605693569E+03  0.82286478474E+02 -0.80592282384E+02  0.23762593800E+03  0.12500000000E+03 0.  0.
</event>
<event>
 5    0  0.5547141E-005  0.4538057E+03  0.7546771E-02  0.1026593E+00
         21   -1    0    0  502  501  0.00000000000E+00  0.00000000000E+00  0.51847255079E+03  0.51847255079E+03  0.00000000000E+00 0. -1.
         21   -1    0    0  501  502 -0.00000000000E+00 -0.00000000000E+00 -0.39720450677E+03  0.39720450677E+03  0.00000000000E+00 0. -1.
         25    1    1    2    0    0 -0.78321803534E+00 -0.28419933149E+01 -0.49439201584E+02  0.13445417439E+03  0.12500000000E+03 0.  0.
         25    1    1    2    0    0  0.16793685749E+03  0.27708600852E+03  0.24959648665E+03  0.42767142805E+03  0.12500000000E+03 0.  0.
         25    1    1    2    0    0 -0.16715363945E+03 -0.27424401521E+03 -0.78889241055E+02  0.35355145512E+03  0.12500000000E+03 0.  0.
</event>
<event>
 5    0  0.6145295E-005  0.3322594E+03  0.7546771E-02  0.1070141E+00
         21   -1    0    0  502  501  0.00000000000E+00  0.00000000000E+00  0.12161898080E+03  0.12161898080E+03  0.00000000000E+00 0. -1.
         21   -1    0    0  501  502 -0.00000000000E+00 -0.00000000000E+00 -0.90772282397E+03  0.90772282397E+03  0.00000000000E+00 0. -1.
         25    1    1    2    0    0  0.23305601747E+03 -0.97731841730E+02 -0.37320585528E+03  0.46773307621E+03  0.12500000000E+03 0.  0.
         25    1    1    2    0    0 -0.12266727708E+03  0.56095452734E+02 -0.11270100491E+03  0.21568606165E+03  0.12500000000E+03 0.  0.
         25    1    1    2    0    0 -0.11038874040E+03  0.41636388996E+02 -0.30019698297E+03  0.34592266691E+03  0.12500000000E+03 0.  0.
</event>
<event>
 5    0  0.5547141E-005  0.4149868E+03  0.7546771E-02  0.1038710E+00
         21   -1    0    0  502  501  0.00000000000E+00  0.00000000000E+00  0.21783625382E+04  0.21783625382E+04  0.00000000000E+00 0. -1.
         21   -1    0    0  501  502 -0.00000000000E+00 -0.00000000000E+00 -0.79056645598E+02  0.79056645598E+02  0.00000000000E+00 0. -1.
         25    1    1    2    0    0  0.10164252031E+03  0.19707549658E+03  0.14773214716E+04  0.14990909525E+04  0.12500000000E+03 0.  0.
         25    1    1    2    0    0 -0.13627656186E+03  0.10027206801E+02  0.21651287288E+03  0.28491168862E+03  0.12500000000E+03 0.  0.
         25    1    1    2    0    0  0.34634041547E+02 -0.20710270338E+03  0.40547154808E+03  0.47341654268E+03  0.12500000000E+03 0.  0.
</event>
<event>
 5    0  0.5547141E-005  0.3172096E+03  0.7546771E-02  0.1076941E+00
         21   -1    0    0  502  501  0.00000000000E+00  0.00000000000E+00  0.25264482897E+03  0.25264482897E+03  0.00000000000E+00 0. -1.
         21   -1    0    0  501  502 -0.00000000000E+00 -0.00000000000E+00 -0.39827428504E+03  0.39827428504E+03  0.00000000000E+00 0. -1.
         25    1    1    2    0    0  0.78254147973E+02 -0.11924836800E+03  0.63991771872E+02  0.20015951592E+03  0.12500000000E+03 0.  0.
         25    1    1    2    0    0  0.65960775986E+02  0.14246204534E+03 -0.14630455465E+03  0.24834709791E+03  0.12500000000E+03 0.  0.
         25    1    1    2    0    0 -0.14421492396E+03 -0.23213677341E+02 -0.63316673296E+02  0.20241250017E+03  0.12500000000E+03 0.  0.
</event>
<event>
 5    0  0.5547141E-005  0.4037814E+03  0.7546771E-02  0.1042478E+00
         21   -1    0    0  502  501  0.00000000000E+00  0.00000000000E+00  0.14257054494E+03  0.14257054494E+03  0.00000000000E+00 0. -1.
         21   -1    0    0  501  502 -0.00000000000E+00 -0.00000000000E+00 -0.11435701531E+04  0.11435701531E+04  0.00000000000E+00 0. -1.
         25    1    1    2    0    0 -0.16563791415E+03 -0.12555075492E+02 -0.19679154796E+03  0.28626117772E+03  0.12500000000E+03 0.  0.
         25    1    1    2    0    0  0.19228641373E+03 -0.42044430142E+02 -0.57237740713E+02  0.24008947910E+03  0.12500000000E+03 0.  0.
         25    1    1    2    0    0 -0.26648499586E+02  0.54599505634E+02 -0.74697031948E+03  0.75979004122E+03  0.12500000000E+03 0.  0.
</event>
<event>
 5    0  0.5547141E-005  0.2855601E+03  0.7546771E-02  0.1092690E+00
         21   -1    0    0  502  501  0.00000000000E+00  0.00000000000E+00  0.22753099435E+03  0.22753099435E+03  0.00000000000E+00 0. -1.
         21   -1    0    0  501  502 -0.00000000000E+00 -0.00000000000E+00 -0.35838875918E+03  0.35838875918E+03  0.00000000000E+00 0. -1.
         25    1    1    2    0    0 -0.52532104424E+02  0.39181273196E+01  0.11121410056E+02  0.13610165127E+03  0.12500000000E+03 0.  0.
         25    1    1    2    0    0  0.70792202120E+02  0.81708788191E+02 -0.22258194484E+03  0.27722839702E+03  0.12500000000E+03 0.  0.
         25    1    1    2    0    0 -0.18260097697E+02 -0.85626915510E+02  0.80602769952E+02  0.17258970523E+03  0.12500000000E+03 0.  0.
</event>
<event>
 5    0  0.5547141E-005  0.3013601E+03  0.7546771E-02  0.1084563E+00
         21   -1    0    0  502  501  0.00000000000E+00  0.00000000000E+00  0.74943073572E+03  0.74943073572E+03  0.00000000000E+00 0. -1.
         21   -1    0    0  501  502 -0.00000000000E+00 -0.00000000000E+00 -0.12118255578E+03  0.12118255578E+03  0.00000000000E+00 0. -1.
         25    1    1    2    0    0  0.72407652769E+01  0.14024688033E+03  0.38363922379E+03  0.42723023085E+03  0.12500000000E+03 0.  0.
         25    1    1    2    0    0  0.51536369404E+02 -0.10225777605E+03  0.11677231447E+02  0.16992353536E+03  0.12500000000E+03 0.  0.
         25    1    1    2    0    0 -0.58777134681E+02 -0.37989104280E+02  0.23293172470E+03  0.27345952530E+03  0.12500000000E+03 0.  0.
</event>
<event>
 5    0  0.5547141E-005  0.2883186E+03  0.7546771E-02  0.1091230E+00
         21   -1    0    0  502  501  0.00000000000E+00  0.00000000000E+00  0.18093064731E+04  0.18093064731E+04  0.00000000000E+00 0.  1.
         21   -1    0    0  501  502 -0.00000000000E+00 -0.00000000000E+00 -0.45944473356E+02  0.45944473356E+02  0.00000000000E+00 0.  1.
         25    1    1    2    0    0  0.44134427154E+02 -0.34896552134E+02  0.11249006854E+03  0.17732634472E+03  0.12500000000E+03 0.  0.
         25    1    1    2    0    0 -0.60297210046E+02  0.78493321673E+02  0.71246707124E+03  0.73008991411E+03  0.12500000000E+03 0.  0.
         25    1    1    2    0    0  0.16162782892E+02 -0.43596769539E+02  0.93840485998E+03  0.94783468765E+03  0.12500000000E+03 0.  0.
</event>
<event>
 5    0  0.5547141E-005  0.3271285E+03  0.7546771E-02  0.1072415E+00
         21   -1    0    0  502  501  0.00000000000E+00  0.00000000000E+00  0.96301597599E+03  0.96301597599E+03  0.00000000000E+00 0. -1.
         21   -1    0    0  501  502 -0.00000000000E+00 -0.00000000000E+00 -0.11112283456E+03  0.11112283456E+03  0.00000000000E+00 0. -1.
         25    1    1    2    0    0 -0.30359734988E+02 -0.52544626739E+02  0.73940486382E+03  0.75234779454E+03  0.12500000000E+03 0.  0.
         25    1    1    2    0    0 -0.43448489580E+02  0.30998357476E+02  0.11026422179E+03  0.17501962181E+03  0.12500000000E+03 0.  0.
         25    1    1    2    0    0  0.73808224569E+02  0.21546269263E+02  0.22240558242E+01  0.14677139421E+03  0.12500000000E+03 0.  0.
</event>
<event>
 5    0  0.5547141E-005  0.3002832E+03  0.7546771E-02  0.1085099E+00
         21   -1    0    0  502  501  0.00000000000E+00  0.00000000000E+00  0.15624475283E+03  0.15624475283E+03  0.00000000000E+00 0. -1.
         21   -1    0    0  501  502 -0.00000000000E+00 -0.00000000000E+00 -0.57710751206E+03  0.57710751206E+03  0.00000000000E+00 0. -1.
         25    1    1    2    0    0  0.54016653975E+02  0.58589923042E+02 -0.39014864706E+02  0.15328971804E+03  0.12500000000E+03 0.  0.
         25    1    1    2    0    0 -0.11738736355E+03  0.10621797955E+03 -0.10109362280E+03  0.22562573628E+03  0.12500000000E+03 0.  0.
         25    1    1    2    0    0  0.63370709578E+02 -0.16480790259E+03 -0.28075427173E+03  0.35443681057E+03  0.12500000000E+03 0.  0.
</event>
<event>
 5    0  0.5547141E-005  0.2550909E+03  0.7546771E-02  0.1110129E+00
         21   -1    0    0  502  501  0.00000000000E+00  0.00000000000E+00  0.13822818097E+03  0.13822818097E+03  0.00000000000E+00 0.  1.
         21   -1    0    0  501  502 -0.00000000000E+00 -0.00000000000E+00 -0.47075338358E+03  0.47075338358E+03  0.00000000000E+00 0.  1.
         25    1    1    2    0    0  0.91241645890E+02 -0.10845489393E+03 -0.15981382115E+03  0.24749335222E+03  0.12500000000E+03 0.  0.
         25    1    1    2    0    0 -0.10265245673E+03  0.91320025189E+02 -0.13394819529E+03  0.22900653461E+03  0.12500000000E+03 0.  0.
         25    1    1    2    0    0  0.11410810845E+02  0.17134868737E+02 -0.38763186171E+02  0.13248167773E+03  0.12500000000E+03 0.  0.
</event>
<event>
 5    0  0.5547141E-005  0.3170261E+03  0.7546771E-02  0.1077026E+00
         21   -1    0    0  502  501  0.00000000000E+00  0.00000000000E+00  0.94189427491E+02  0.94189427491E+02  0.00000000000E+00 0. -1.
         21   -1    0    0  501  502 -0.00000000000E+00 -0.00000000000E+00 -0.10670573610E+04  0.10670573610E+04  0.00000000000E+00 0. -1.
         25    1    1    2    0    0  0.83869096902E+02  0.68584961439E+02 -0.42640328289E+03  0.45736493308E+03  0.12500000000E+03 0.  0.
         25    1    1    2    0    0  0.74502717833E+01 -0.19527623370E+03 -0.21251746989E+03  0.31460608545E+03  0.12500000000E+03 0.  0.
         25    1    1    2    0    0 -0.91319368685E+02  0.12669127226E+03 -0.33394718076E+03  0.38927576999E+03  0.12500000000E+03 0.  0.
</event>
<event>
 5    0  0.5547141E-005  0.3146306E+03  0.7546771E-02  0.1078147E+00
         21   -1    0    0  502  501  0.00000000000E+00  0.00000000000E+00  0.37656192938E+03  0.37656192938E+03  0.00000000000E+00 0. -1.
         21   -1    0    0  501  502 -0.00000000000E+00 -0.00000000000E+00 -0.26288479628E+03  0.26288479628E+03  0.00000000000E+00 0. -1.
         25    1    1    2    0    0  0.13367282812E+03 -0.12838286466E+03  0.51862342996E+02  0.22948918828E+03  0.12500000000E+03 0.  0.
         25    1    1    2    0    0  0.71223037198E+02  0.52929349716E+02  0.14810323879E+02  0.15400838543E+03  0.12500000000E+03 0.  0.
         25    1    1    2    0    0 -0.20489586531E+03  0.75453514944E+02  0.47004466222E+02  0.25594915195E+03  0.12500000000E+03 0.  0.
</event>
<event>
 5    0  0.5547141E-005  0.2530332E+03  0.7546771E-02  0.1111403E+00
         21   -1    0    0  502  501  0.00000000000E+00  0.00000000000E+00  0.39377030693E+02  0.39377030693E+02  0.00000000000E+00 0. -1.
         21   -1    0    0  501  502 -0.00000000000E+00 -0.00000000000E+00 -0.16259676182E+04  0.16259676182E+04  0.00000000000E+00 0. -1.
         25    1    1    2    0    0 -0.87534080273E+02 -0.41256068125E+02 -0.77842888443E+03  0.79431782460E+03  0.12500000000E+03 0.  0.
         25    1    1    2    0    0  0.13330757339E+03  0.32596879568E+02 -0.38649121524E+03  0.42875858608E+03  0.12500000000E+03 0.  0.
         25    1    1    2    0    0 -0.45773493116E+02  0.86591885575E+01 -0.42167048787E+03  0.44226823824E+03  0.12500000000E+03 0.  0.
</event>
<event>
 5    0  0.5547141E-005  0.2284761E+03  0.7546771E-02  0.1127717E+00
         21   -1    0    0  502  501  0.00000000000E+00  0.00000000000E+00  0.59812404506E+02  0.59812404506E+02  0.00000000000E+00 0.  1.
         21   -1    0    0  501  502 -0.00000000000E+00 -0.00000000000E+00 -0.87275065338E+03  0.87275065338E+03  0.00000000000E+00 0.  1.
         25    1    1    2    0    0  0.46921665094E+02 -0.37024789700E+02 -0.14709576263E+03  0.20207583005E+03  0.12500000000E+03 0.  0.
         25    1    1    2    0    0  0.24275792578E+02  0.57049505444E+02 -0.44331665155E+03  0.46475651014E+03  0.12500000000E+03 0.  0.
         25    1    1    2    0    0 -0.71197457672E+02 -0.20024715744E+02 -0.22252583469E+03  0.26573071769E+03  0.12500000000E+03 0.  0.
</event>
<event>
 5    0  0.5547141E-005  0.2720634E+03  0.7546771E-02  0.1100104E+00
         21   -1    0    0  502  501  0.00000000000E+00  0.00000000000E+00  0.18073001147E+03  0.18073001147E+03  0.00000000000E+00 0. -1.
         21   -1    0    0  501  502 -0.00000000000E+00 -0.00000000000E+00 -0.40955299970E+03  0.40955299970E+03  0.00000000000E+00 0. -1.
         25    1    1    2    0    0 -0.65770882964E+02  0.29316964957E+02 -0.22801567102E+02  0.14604863896E+03  0.12500000000E+03 0.  0.
         25    1    1    2    0    0  0.12458610683E+03 -0.12022252086E+03 -0.17475129920E+03  0.27593145727E+03  0.12500000000E+03 0.  0.
         25    1    1    2    0    0 -0.58815223869E+02  0.90905555905E+02 -0.31270121931E+02  0.16830291494E+03  0.12500000000E+03 0.  0.
</event>
<event>
 5    0  0.5547141E-005  0.4403018E+03  0.7546771E-02  0.1030654E+00
         21   -1    0    0  502  501  0.00000000000E+00  0.00000000000E+00  0.14564432223E+03  0.14564432223E+03  0.00000000000E+00 0. -1.
         21   -1    0    0  501  502 -0.00000000000E+00 -0.00000000000E+00 -0.13310897286E+04  0.13310897286E+04  0.00000000000E+00 0. -1.
         25    1    1    2    0    0 -0.12642758214E+03  0.31933314143E+03 -0.52967163131E+03  0.64353292515E+03  0.12500000000E+03 0.  0.
         25    1    1    2    0    0  0.13187053909E+03 -0.27069098868E+03 -0.60948736224E+03  0.69120423549E+03  0.12500000000E+03 0.  0.
         25    1    1    2    0    0 -0.54429569523E+01 -0.48642152745E+02 -0.46286412785E+02  0.14199689015E+03  0.12500000000E+03 0.  0.
</event>
<event>
 5    0  0.5547141E-005  0.3078746E+03  0.7546771E-02  0.1081369E+00
         21   -1    0    0  502  501  0.00000000000E+00  0.00000000000E+00  0.28334498515E+03  0.28334498515E+03  0.00000000000E+00 0. -1.
         21   -1    0    0  501  502 -0.00000000000E+00 -0.00000000000E+00 -0.33452768371E+03  0.33452768371E+03  0.00000000000E+00 0. -1.
         25    1    1    2    0    0 -0.23070063577E+02  0.47419399970E+02 -0.17085645203E+03  0.21816909618E+03  0.12500000000E+03 0.  0.
         25    1    1    2    0    0  0.17666541977E+02 -0.63973725073E+02  0.20373220359E+03  0.24806562637E+03  0.12500000000E+03 0.  0.
         25    1    1    2    0    0  0.54035216005E+01  0.16554325103E+02 -0.84058450126E+02  0.15163794632E+03  0.12500000000E+03 0.  0.
</event>
<event>
 5    0  0.5547141E-005  0.3118257E+03  0.7546771E-02  0.1079474E+00
         21   -1    0    0  502  501  0.00000000000E+00  0.00000000000E+00  0.69738133858E+03  0.69738133858E+03  0.00000000000E+00 0.  1.
         21   -1    0    0  501  502 -0.00000000000E+00 -0.00000000000E+00 -0.13942911679E+03  0.13942911679E+03  0.00000000000E+00 0.  1.
         25    1    1    2    0    0 -0.15306219742E+03  0.16089020056E+03  0.26515844892E+03  0.36776037844E+03  0.12500000000E+03 0.  0.
         25    1    1    2    0    0  0.95626450350E+02 -0.14306377559E+03  0.23986588628E+03  0.32058119922E+03  0.12500000000E+03 0.  0.
         25    1    1    2    0    0  0.57435747074E+02 -0.17826424970E+02  0.52927886592E+02  0.14846887771E+03  0.12500000000E+03 0.  0.
</event>
<event>
 5    0  0.5547141E-005  0.6419884E+03  0.7546771E-02  0.9821930E-01
         21   -1    0    0  502  501  0.00000000000E+00  0.00000000000E+00  0.66625278927E+03  0.66625278927E+03  0.00000000000E+00 0.  1.
         21   -1    0    0  501  502 -0.00000000000E+00 -0.00000000000E+00 -0.61860763634E+03  0.61860763634E+03  0.00000000000E+00 0.  1.
         25    1    1    2    0    0 -0.26895806659E+03 -0.20427145804E+03 -0.10907419260E+03  0.37628107798E+03  0.12500000000E+03 0.  0.
         25    1    1    2    0    0  0.38887993173E+03 -0.71401402644E+02  0.33885955675E+03  0.53551522929E+03  0.12500000000E+03 0.  0.
         25    1    1    2    0    0 -0.11992186513E+03  0.27567286068E+03 -0.18214021122E+03  0.37306411834E+03  0.12500000000E+03 0.  0.
</event>
<event>
 5    0  0.5547141E-005  0.3193152E+03  0.7546771E-02  0.1075965E+00
         21   -1    0    0  502  501  0.00000000000E+00  0.00000000000E+00  0.48285816044E+03  0.48285816044E+03  0.00000000000E+00 0. -1.
         21   -1    0    0  501  502 -0.00000000000E+00 -0.00000000000E+00 -0.21116389870E+03  0.21116389870E+03  0.00000000000E+00 0. -1.
         25    1    1    2    0    0 -0.42683264764E+02 -0.38182093889E+02  0.17594176970E+03  0.22329406555E+03  0.12500000000E+03 0.  0.
         25    1    1    2    0    0 -0.10823730070E+03  0.15296995108E+03  0.92739432788E+02  0.24359951065E+03  0.12500000000E+03 0.  0.
         25    1    1    2    0    0  0.15092056547E+03 -0.11478785719E+03  0.30130592536E+01  0.22712848294E+03  0.12500000000E+03 0.  0.
</event>
<event>
 5    0  0.5547141E-005  0.2592947E+03  0.7546771E-02  0.1107568E+00
         21   -1    0    0  502  501  0.00000000000E+00  0.00000000000E+00  0.19334894446E+03  0.19334894446E+03  0.00000000000E+00 0.  1.
         21   -1    0    0  501  502 -0.00000000000E+00 -0.00000000000E+00 -0.34773253871E+03  0.34773253871E+03  0.00000000000E+00 0.  1.
         25    1    1    2    0    0  0.18607227040E+02  0.42374121095E+02  0.68916544164E+02  0.15005427384E+03  0.12500000000E+03 0.  0.
         25    1    1    2    0    0  0.68481531360E+02  0.18440692760E+02 -0.16034251233E+03  0.21532417548E+03  0.12500000000E+03 0.  0.
         25    1    1    2    0    0 -0.87088758400E+02 -0.60814813856E+02 -0.62957626087E+02  0.17570303386E+03  0.12500000000E+03 0.  0.
</event>
<event>
 5    0  0.5547141E-005  0.2803424E+03  0.7546771E-02  0.1095502E+00
         21   -1    0    0  502  501  0.00000000000E+00  0.00000000000E+00  0.26070725766E+03  0.26070725766E+03  0.00000000000E+00 0.  1.
         21   -1    0    0  501  502 -0.00000000000E+00 -0.00000000000E+00 -0.30145639564E+03  0.30145639564E+03  0.00000000000E+00 0.  1.
         25    1    1    2    0    0  0.11031142947E+03  0.16946401978E+02 -0.11373814474E+03  0.20252693051E+03  0.12500000000E+03 0.  0.
         25    1    1    2    0    0  0.16039641019E+02  0.79673223678E+02  0.19355812588E+02  0.15034872842E+03  0.12500000000E+03 0.  0.
         25    1    1    2    0    0 -0.12635107049E+03 -0.96619625655E+02  0.53633194170E+02  0.20928799438E+03  0.12500000000E+03 0.  0.
</event>
<event>
 5    0  0.5547141E-005  0.3961200E+03  0.7546771E-02  0.1045132E+00
         21   -1    0    0  502  501  0.00000000000E+00  0.00000000000E+00  0.13505687525E+03  0.13505687525E+03  0.00000000000E+00 0.  1.
         21   -1    0    0  501  502 -0.00000000000E+00 -0.00000000000E+00 -0.11618147428E+04  0.11618147428E+04  0.00000000000E+00 0.  1.
         25    1    1    2    0    0  0.11115709114E+03 -0.43270771669E+02 -0.91872664667E+03  0.93483255714E+03  0.12500000000E+03 0.  0.
         25    1    1    2    0    0 -0.39213044020E+02 -0.36015902377E+02 -0.13921715581E+03  0.19452821008E+03  0.12500000000E+03 0.  0.
         25    1    1    2    0    0 -0.71944047119E+02  0.79286674046E+02  0.31185934962E+02  0.16751085080E+03  0.12500000000E+03 0.  0.
</event>
<event>
 5    0  0.5547141E-005  0.2494417E+03  0.7546771E-02  0.1113658E+00
         21   -1    0    0  502  501  0.00000000000E+00  0.00000000000E+00  0.13226636964E+04  0.13226636964E+04  0.00000000000E+00 0.  1.
         21   -1    0    0  501  502 -0.00000000000E+00 -0.00000000000E+00 -0.47042317658E+02  0.47042317658E+02  0.00000000000E+00 0.  1.
         25    1    1    2    0    0 -0.98869949452E+02 -0.27203345262E+02  0.48681760594E+03  0.51296361504E+03  0.12500000000E+03 0.  0.
         25    1    1    2    0    0  0.12529696775E+03  0.78841877983E+02  0.40528428685E+03  0.44921679067E+03  0.12500000000E+03 0.  0.
         25    1    1    2    0    0 -0.26427018299E+02 -0.51638532721E+02  0.38351948594E+03  0.40752560834E+03  0.12500000000E+03 0.  0.
</event>
<event>
 5    0  0.6661706E-005  0.2872047E+03  0.7546771E-02  0.1091818E+00
         21   -1    0    0  502  501  0.00000000000E+00  0.00000000000E+00  0.28477988696E+03  0.28477988696E+03  0.00000000000E+00 0. -1.
         21   -1    0    0  501  502 -0.00000000000E+00 -0.00000000000E+00 -0.28965025779E+03  0.28965025779E+03  0.00000000000E+00 0. -1.
         25    1    1    2    0    0 -0.12277497223E+03  0.93211643790E+02  0.10220270962E+03  0.22323193812E+03  0.12500000000E+03 0.  0.
         25    1    1    2    0    0  0.69730213591E+02 -0.11065498277E+03 -0.59883401205E+01  0.18101847452E+03  0.12500000000E+03 0.  0.
         25    1    1    2    0    0  0.53044758640E+02  0.17443338984E+02 -0.10108474033E+03  0.17017973211E+03  0.12500000000E+03 0.  0.
</event>
<event>
 5    0  0.5547141E-005  0.3059182E+03  0.7546771E-02  0.1082319E+00
         21   -1    0    0  502  501  0.00000000000E+00  0.00000000000E+00  0.30707600949E+03  0.30707600949E+03  0.00000000000E+00 0. -1.
         21   -1    0    0  501  502 -0.00000000000E+00 -0.00000000000E+00 -0.30476482560E+03  0.30476482560E+03  0.00000000000E+00 0. -1.
         25    1    1    2    0    0 -0.18760282741E+03 -0.10326497150E+03  0.81272057595E+02  0.26093796684E+03  0.12500000000E+03 0.  0.
         25    1    1    2    0    0  0.67421671458E+02  0.87378999635E+02 -0.52196559783E+02  0.17472908233E+03  0.12500000000E+03 0.  0.
         25    1    1    2    0    0  0.12018115595E+03  0.15885971868E+02 -0.26764313926E+02  0.17617378593E+03  0.12500000000E+03 0.  0.
</event>
<event>
 5    0  0.5547141E-005  0.3651001E+03  0.7546771E-02  0.1056582E+00
         21   -1    0    0  502  501  0.00000000000E+00  0.00000000000E+00  0.12524008288E+04  0.12524008288E+04  0.00000000000E+00 0.  1.
         21   -1    0    0  501  502 -0.00000000000E+00 -0.00000000000E+00 -0.10643406827E+03  0.10643406827E+03  0.00000000000E+00 0.  1.
         25    1    1    2    0    0 -0.18447146514E+03  0.12974969723E+03  0.51877493603E+03  0.57932472727E+03  0.12500000000E+03 0.  0.
         25    1    1    2    0    0  0.25948112580E+03 -0.12609608872E+03  0.38835979242E+03  0.49967890351E+03  0.12500000000E+03 0.  0.
         25    1    1    2    0    0 -0.75009660659E+02 -0.36536085042E+01  0.23883203207E+03  0.27983126628E+03  0.12500000000E+03 0.  0.
</event>
<event>
 5    0  0.5547141E-005  0.3197047E+03  0.7546771E-02  0.1075785E+00
         21   -1    0    0  502  501  0.00000000000E+00  0.00000000000E+00  0.17175736244E+04  0.17175736244E+04  0.00000000000E+00 0.  1.
         21   -1    0    0  501  502 -0.00000000000E+00 -0.00000000000E+00 -0.59508991551E+02  0.59508991551E+02  0.00000000000E+00 0.  1.
         25    1    1    2    0    0 -0.23799987525E+03 -0.32081914181E+01  0.79217204488E+03  0.83654992786E+03  0.12500000000E+03 0.  0.
         25    1    1    2    0    0  0.19162861197E+03 -0.11723159018E+02  0.61007612622E+03  0.65167233881E+03  0.12500000000E+03 0.  0.
         25    1    1    2    0    0  0.46371263283E+02  0.14931350436E+02  0.25581646172E+03  0.28886034925E+03  0.12500000000E+03 0.  0.
</event>
<event>
 5    0  0.5547141E-005  0.4668709E+03  0.7546771E-02  0.1022807E+00
         21   -1    0    0  502  501  0.00000000000E+00  0.00000000000E+00  0.15077272747E+03  0.15077272747E+03  0.00000000000E+00 0.  1.
         21   -1    0    0  501  502 -0.00000000000E+00 -0.00000000000E+00 -0.14456757358E+04  0.14456757358E+04  0.00000000000E+00 0.  1.
         25    1    1    2    0    0  0.43588984806E+02  0.14400048617E+03 -0.84777149060E+03  0.87004461948E+03  0.12500000000E+03 0.  0.
         25    1    1    2    0    0 -0.19856817239E+03  0.75361667575E+02 -0.89927237529E+02  0.26233682181E+03  0.12500000000E+03 0.  0.
         25    1    1    2    0    0  0.15497918759E+03 -0.21936215375E+03 -0.35720428017E+03  0.46406702194E+03  0.12500000000E+03 0.  0.
</event>
<event>
 5    0  0.6013484E-005  0.2845699E+03  0.7546771E-02  0.1093219E+00
         21   -1    0    0  502  501  0.00000000000E+00  0.00000000000E+00  0.58100805274E+03  0.58100805274E+03  0.00000000000E+00 0. -1.
         21   -1    0    0  501  502 -0.00000000000E+00 -0.00000000000E+00 -0.13937849829E+03  0.13937849829E+03  0.00000000000E+00 0. -1.
         25    1    1    2    0    0 -0.18594503822E+03 -0.33260237947E+02  0.12044423156E+03  0.25654164103E+03  0.12500000000E+03 0.  0.
         25    1    1    2    0    0  0.13171805430E+03 -0.30107012188E+02  0.18679577189E+03  0.26224747550E+03  0.12500000000E+03 0.  0.
         25    1    1    2    0    0  0.54226983928E+02  0.63367250136E+02  0.13438955101E+03  0.20159743450E+03  0.12500000000E+03 0.  0.
</event>
<event>
 5    0  0.5547141E-005  0.2163914E+03  0.7546771E-02  0.1136602E+00
         21   -1    0    0  502  501  0.00000000000E+00  0.00000000000E+00  0.33905974869E+03  0.33905974869E+03  0.00000000000E+00 0.  1.
         21   -1    0    0  501  502 -0.00000000000E+00 -0.00000000000E+00 -0.13810324449E+03  0.13810324449E+03  0.00000000000E+00 0.  1.
         25    1    1    2    0    0  0.52572772575E+02 -0.77508760644E+01  0.46300311375E+02  0.14350153772E+03  0.12500000000E+03 0.  0.
         25    1    1    2    0    0 -0.29680015058E+02 -0.52927383781E+02  0.13080644881E+03  0.19083379758E+03  0.12500000000E+03 0.  0.
         25    1    1    2    0    0 -0.22892757518E+02  0.60678259845E+02  0.23849744015E+02  0.14282765788E+03  0.12500000000E+03 0.  0.
</event>
<event>
 5    0  0.5547141E-005  0.3512955E+03  0.7546771E-02  0.1062085E+00
         21   -1    0    0  502  501  0.00000000000E+00  0.00000000000E+00  0.17341721128E+03  0.17341721128E+03  0.00000000000E+00 0. -1.
         21   -1    0    0  501  502 -0.00000000000E+00 -0.00000000000E+00 -0.71162787185E+03  0.71162787185E+03  0.00000000000E+00 0. -1.
         25    1    1    2    0    0  0.42811432689E+02  0.73562269073E+02 -0.33825132366E+02  0.15496246571E+03  0.12500000000E+03 0.  0.
         25    1    1    2    0    0 -0.16600623479E+03  0.80964972460E+02 -0.43051681586E+03  0.48485371556E+03  0.12500000000E+03 0.  0.
         25    1    1    2    0    0  0.12319480210E+03 -0.15452724153E+03 -0.73868712351E+02  0.24522890185E+03  0.12500000000E+03 0.  0.
</event>
<event>
 5    0  0.5547141E-005  0.3418539E+03  0.7546771E-02  0.1066009E+00
         21   -1    0    0  502  501  0.00000000000E+00  0.00000000000E+00  0.20020730838E+03  0.20020730838E+03  0.00000000000E+00 0.  1.
         21   -1    0    0  501  502 -0.00000000000E+00 -0.00000000000E+00 -0.58371555510E+03  0.58371555510E+03  0.00000000000E+00 0.  1.
         25    1    1    2    0    0 -0.11635907080E+03 -0.30997449493E+02  0.26543988079E+02  0.17558433454E+03  0.12500000000E+03 0.  0.
         25    1    1    2    0    0  0.11969592776E+03  0.12225045454E+03 -0.51884588292E+02  0.21814971753E+03  0.12500000000E+03 0.  0.
         25    1    1    2    0    0 -0.33368569538E+01 -0.91253005046E+02 -0.35816764650E+03  0.39018881140E+03  0.12500000000E+03 0.  0.
</event>
<event>
 5    0  0.5701218E-005  0.9759776E+03  0.7546771E-02  0.9335292E-01
         21   -1    0    0  502  501  0.00000000000E+00  0.00000000000E+00  0.21519973817E+04  0.21519973817E+04  0.00000000000E+00 0.  1.
         21   -1    0    0  501  502 -0.00000000000E+00 -0.00000000000E+00 -0.44262707920E+03  0.44262707920E+03  0.00000000000E+00 0.  1.
         25    1    1    2    0    0 -0.42763645238E+03  0.64401105631E+03  0.37728098124E+03  0.86924629126E+03  0.12500000000E+03 0.  0.
         25    1    1    2    0    0  0.51117815917E+02 -0.51974714102E+03  0.11545447017E+04  0.12733218721E+04  0.12500000000E+03 0.  0.
         25    1    1    2    0    0  0.37651863647E+03 -0.12426391529E+03  0.17754461959E+03  0.45205629759E+03  0.12500000000E+03 0.  0.
</event>
<event>
 5    0  0.5547141E-005  0.5925379E+03  0.7546771E-02  0.9921010E-01
         21   -1    0    0  502  501  0.00000000000E+00  0.00000000000E+00  0.50584708244E+03  0.50584708244E+03  0.00000000000E+00 0.  1.
         21   -1    0    0  501  502 -0.00000000000E+00 -0.00000000000E+00 -0.69408564894E+03  0.69408564894E+03  0.00000000000E+00 0.  1.
         25    1    1    2    0    0  0.36303527225E+02 -0.12678780580E+03 -0.24538041516E+02  0.18335814481E+03  0.12500000000E+03 0.  0.
         25    1    1    2    0    0 -0.49285661000E+03  0.39592427324E+02 -0.58562988138E+01  0.51003381707E+03  0.12500000000E+03 0.  0.
         25    1    1    2    0    0  0.45655308278E+03  0.87195378473E+02 -0.15784422617E+03  0.50654076949E+03  0.12500000000E+03 0.  0.
</event>
<event>
 5    0  0.5906191E-005  0.2878667E+03  0.7546771E-02  0.1091468E+00
         21   -1    0    0  502  501  0.00000000000E+00  0.00000000000E+00  0.17736253111E+03  0.17736253111E+03  0.00000000000E+00 0. -1.
         21   -1    0    0  501  502 -0.00000000000E+00 -0.00000000000E+00 -0.46721936531E+03  0.46721936531E+03  0.00000000000E+00 0. -1.
         25    1    1    2    0    0  0.11735322770E+03 -0.56222578945E+02 -0.12135788812E+03  0.21745228314E+03  0.12500000000E+03 0.  0.
         25    1    1    2    0    0 -0.17525647267E+03 -0.46309924319E+02 -0.83231074791E+02  0.23539722197E+03  0.12500000000E+03 0.  0.
         25    1    1    2    0    0  0.57903244962E+02  0.10253250326E+03 -0.85267871291E+02  0.19173239131E+03  0.12500000000E+03 0.  0.
</event>
<event>
 5    0  0.5547141E-005  0.4442872E+03  0.7546771E-02  0.1029439E+00
         21   -1    0    0  502  501  0.00000000000E+00  0.00000000000E+00  0.21609458757E+04  0.21609458757E+04  0.00000000000E+00 0. -1.
         21   -1    0    0  501  502 -0.00000000000E+00 -0.00000000000E+00 -0.91344778082E+02  0.91344778082E+02  0.00000000000E+00 0. -1.
         25    1    1    2    0    0 -0.36100266791E+03  0.32948366337E+02  0.10617709127E+04  0.11288892736E+04  0.12500000000E+03 0.  0.
         25    1    1    2    0    0  0.30696839979E+03  0.31333253285E+02  0.56645829186E+03  0.65704746225E+03  0.12500000000E+03 0.  0.
         25    1    1    2    0    0  0.54034268116E+02 -0.64281619622E+02  0.44137189307E+03  0.46635391790E+03  0.12500000000E+03 0.  0.
</event>
<event>
 5    0  0.5547141E-005  0.3363037E+03  0.7546771E-02  0.1068381E+00
         21   -1    0    0  502  501  0.00000000000E+00  0.00000000000E+00  0.35417819467E+03  0.35417819467E+03  0.00000000000E+00 0. -1.
         21   -1    0    0  501  502 -0.00000000000E+00 -0.00000000000E+00 -0.31933122448E+03  0.31933122448E+03  0.00000000000E+00 0. -1.
         25    1    1    2    0    0  0.35196343647E+01 -0.22260164540E+02  0.35426533747E+02  0.13186334610E+03  0.12500000000E+03 0.  0.
         25    1    1    2    0    0 -0.32009989965E+00 -0.19381440704E+03 -0.12542011292E+03  0.26252491608E+03  0.12500000000E+03 0.  0.
         25    1    1    2    0    0 -0.31995344650E+01  0.21607457158E+03  0.12484054936E+03  0.27912115697E+03  0.12500000000E+03 0.  0.
</event>
<event>
 5    0  0.5547141E-005  0.4741432E+03  0.7546771E-02  0.1020757E+00
         21   -1    0    0  502  501  0.00000000000E+00  0.00000000000E+00  0.20453245337E+03  0.20453245337E+03  0.00000000000E+00 0.  1.
         21   -1    0    0  501  502 -0.00000000000E+00 -0.00000000000E+00 -0.10991497581E+04  0.10991497581E+04  0.00000000000E+00 0.  1.
         25    1    1    2    0    0 -0.27009259951E+03  0.24651283741E+03 -0.24071832660E+03  0.45528991212E+03  0.12500000000E+03 0.  0.
         25    1    1    2    0    0  0.26819783885E+03 -0.25786740209E+03 -0.37633914978E+03  0.54376634089E+03  0.12500000000E+03 0.  0.
         25    1    1    2    0    0  0.18947606589E+01  0.11354564674E+02 -0.27755982834E+03  0.30462595846E+03  0.12500000000E+03 0.  0.
</event>
<event>
 5    0  0.5547141E-005  0.3032411E+03  0.7546771E-02  0.1083632E+00
         21   -1    0    0  502  501  0.00000000000E+00  0.00000000000E+00  0.10532628313E+04  0.10532628313E+04  0.00000000000E+00 0.  1.
         21   -1    0    0  501  502 -0.00000000000E+00 -0.00000000000E+00 -0.87305062718E+02  0.87305062718E+02  0.00000000000E+00 0.  1.
         25    1    1    2    0    0  0.15400807294E+03  0.45579294828E+02  0.65473513483E+03  0.68563769983E+03  0.12500000000E+03 0.  0.
         25    1    1    2    0    0 -0.25026123761E+01 -0.42090205328E+02  0.15775728731E+03  0.20564583671E+03  0.12500000000E+03 0.  0.
         25    1    1    2    0    0 -0.15150546056E+03 -0.34890895005E+01  0.15346534642E+03  0.24928435746E+03  0.12500000000E+03 0.  0.
</event>
<event>
 5    0  0.5547141E-005  0.2761091E+03  0.7546771E-02  0.1097833E+00
         21   -1    0    0  502  501  0.00000000000E+00  0.00000000000E+00  0.23027424635E+03  0.23027424635E+03  0.00000000000E+00 0. -1.
         21   -1    0    0  501  502 -0.00000000000E+00 -0.00000000000E+00 -0.33106719402E+03  0.33106719402E+03  0.00000000000E+00 0. -1.
         25    1    1    2    0    0 -0.51067164310E+02 -0.32419529387E+02  0.39809966306E+02  0.14446007952E+03  0.12500000000E+03 0.  0.
         25    1    1    2    0    0 -0.41121375133E+02  0.10214204443E+03  0.37231598993E+02  0.17069023609E+03  0.12500000000E+03 0.  0.
         25    1    1    2    0    0  0.92188539444E+02 -0.69722515040E+02 -0.17783451297E+03  0.24619112476E+03  0.12500000000E+03 0.  0.
</event>
<event>
 5    0  0.5547141E-005  0.2965335E+03  0.7546771E-02  0.1086986E+00
         21   -1    0    0  502  501  0.00000000000E+00  0.00000000000E+00  0.68143785237E+02  0.68143785237E+02  0.00000000000E+00 0. -1.
         21   -1    0    0  501  502 -0.00000000000E+00 -0.00000000000E+00 -0.12903907878E+04  0.12903907878E+04  0.00000000000E+00 0. -1.
         25    1    1    2    0    0 -0.33746560716E+01 -0.72524737588E+02 -0.12996537101E+03  0.19438936063E+03  0.12500000000E+03 0.  0.
         25    1    1    2    0    0  0.80261249597E+02  0.28716761470E+01 -0.16211641291E+03  0.21990190096E+03  0.12500000000E+03 0.  0.
         25    1    1    2    0    0 -0.76886593526E+02  0.69653061441E+02 -0.93016521862E+03  0.94424331142E+03  0.12500000000E+03 0.  0.
</event>
<event>
 5    0  0.8263787E-005  0.7138951E+03  0.7546771E-02  0.9693760E-01
         21   -1    0    0  502  501  0.00000000000E+00  0.00000000000E+00  0.32860481439E+03  0.32860481439E+03  0.00000000000E+00 0.  1.
         21   -1    0    0  501  502 -0.00000000000E+00 -0.00000000000E+00 -0.15509397465E+04  0.15509397465E+04  0.00000000000E+00 0.  1.
         25    1    1    2    0    0 -0.36686418152E+03 -0.70578702276E+01 -0.16261809387E+03  0.42036744126E+03  0.12500000000E+03 0.  0.
         25    1    1    2    0    0  0.31646382120E+03  0.23019614339E+03 -0.47049678950E+02  0.41349520777E+03  0.12500000000E+03 0.  0.
         25    1    1    2    0    0  0.50400360322E+02 -0.22313827316E+03 -0.10126671593E+04  0.10456819119E+04  0.12500000000E+03 0.  0.
</event>
<event>
 5    0  0.5547141E-005  0.2753783E+03  0.7546771E-02  0.1098240E+00
         21   -1    0    0  502  501  0.00000000000E+00  0.00000000000E+00  0.15257954675E+03  0.15257954675E+03  0.00000000000E+00 0.  1.
         21   -1    0    0  501  502 -0.00000000000E+00 -0.00000000000E+00 -0.49700772595E+03  0.49700772595E+03  0.00000000000E+00 0.  1.
         25    1    1    2    0    0  0.85084118108E+02  0.11371871786E+03 -0.65218048284E+02  0.20012408093E+03  0.12500000000E+03 0.  0.
         25    1    1    2    0    0  0.62004007112E+02 -0.57912598787E+02 -0.12758049388E+03  0.19773757462E+03  0.12500000000E+03 0.  0.
         25    1    1    2    0    0 -0.14708812522E+03 -0.55806119076E+02 -0.15162963703E+03  0.25172561716E+03  0.12500000000E+03 0.  0.
</event>
<event>
 5    0  0.5547141E-005  0.2657303E+03  0.7546771E-02  0.1103748E+00
         21   -1    0    0  502  501  0.00000000000E+00  0.00000000000E+00  0.90447674690E+03  0.90447674690E+03  0.00000000000E+00 0. -1.
         21   -1    0    0  501  502 -0.00000000000E+00 -0.00000000000E+00 -0.78070101001E+02  0.78070101001E+02  0.00000000000E+00 0. -1.
         25    1    1    2    0    0  0.41391048770E+02  0.22010836930E+02  0.31180404895E+03  0.33918204670E+03  0.12500000000E+03 0.  0.
         25    1    1    2    0    0 -0.15315873598E+03  0.28268407459E+02  0.19588926038E+03  0.27973970687E+03  0.12500000000E+03 0.  0.
         25    1    1    2    0    0  0.11176768721E+03 -0.50279244389E+02  0.31871333657E+03  0.36362509434E+03  0.12500000000E+03 0.  0.
</event>
<event>
 5    0  0.5547141E-005  0.2618681E+03  0.7546771E-02  0.1106026E+00
         21   -1    0    0  502  501  0.00000000000E+00  0.00000000000E+00  0.51292858201E+03  0.51292858201E+03  0.00000000000E+00 0.  1.
         21   -1    0    0  501  502 -0.00000000000E+00 -0.00000000000E+00 -0.13369292485E+03  0.13369292485E+03  0.00000000000E+00 0.  1.
         25    1    1    2    0    0 -0.47375279751E+02 -0.12789762488E+03  0.23632230998E+03  0.30012572995E+03  0.12500000000E+03 0.  0.
         25    1    1    2    0    0  0.88903769806E+02  0.86371364219E+02  0.63227357394E+02  0.18704703036E+03  0.12500000000E+03 0.  0.
         25    1    1    2    0    0 -0.41528490056E+02  0.41526260664E+02  0.79685989774E+02  0.15944874655E+03  0.12500000000E+03 0.  0.
</event>
<event>
 5    0  0.5547141E-005  0.2090711E+03  0.7546771E-02  0.1142304E+00
         21   -1    0    0  502  501  0.00000000000E+00  0.00000000000E+00  0.96656191718E+03  0.96656191718E+03  0.00000000000E+00 0. -1.
         21   -1    0    0  501  502 -0.00000000000E+00 -0.00000000000E+00 -0.45222897325E+02  0.45222897325E+02  0.00000000000E+00 0. -1.
         25    1    1    2    0    0  0.52512214016E+02 -0.56055747512E+02  0.29302497524E+03  0.32770171737E+03  0.12500000000E+03 0.  0.
         25    1    1    2    0    0 -0.47947755566E+00  0.35014681671E+02  0.36228373823E+03  0.38483862178E+03  0.12500000000E+03 0.  0.
         25    1    1    2    0    0 -0.52032736460E+02  0.21041065841E+02  0.26603030639E+03  0.29924447536E+03  0.12500000000E+03 0.  0.
</event>
<event>
 5    0  0.5547141E-005  0.3397477E+03  0.7546771E-02  0.1066903E+00
         21   -1    0    0  502  501  0.00000000000E+00  0.00000000000E+00  0.85740438931E+03  0.85740438931E+03  0.00000000000E+00 0.  1.
         21   -1    0    0  501  502 -0.00000000000E+00 -0.00000000000E+00 -0.13462550714E+03  0.13462550714E+03  0.00000000000E+00 0.  1.
         25    1    1    2    0    0  0.12036011839E+03 -0.15778494829E+02  0.56325458851E+02  0.18312038749E+03  0.12500000000E+03 0.  0.
         25    1    1    2    0    0  0.30527513784E+02 -0.11985390361E+03  0.46405252595E+03  0.49625259108E+03  0.12500000000E+03 0.  0.
         25    1    1    2    0    0 -0.15088763218E+03  0.13563239844E+03  0.20240089737E+03  0.31265691789E+03  0.12500000000E+03 0.  0.
</event>
<event>
 5    0  0.5547141E-005  0.2854225E+03  0.7546771E-02  0.1092764E+00
         21   -1    0    0  502  501  0.00000000000E+00  0.00000000000E+00  0.64458077822E+02  0.64458077822E+02  0.00000000000E+00 0. -1.
         21   -1    0    0  501  502 -0.00000000000E+00 -0.00000000000E+00 -0.12638604757E+04  0.12638604757E+04  0.00000000000E+00 0. -1.
         25    1    1    2    0    0  0.23202655200E+02 -0.83700593933E+02 -0.52047468207E+03  0.54227580373E+03  0.12500000000E+03 0.  0.
         25    1    1    2    0    0  0.14491083270E+02 -0.83492335636E+02 -0.44658626838E+03  0.47142895192E+03  0.12500000000E+03 0.  0.
         25    1    1    2    0    0 -0.37693738470E+02  0.16719292957E+03 -0.23234144742E+03  0.31461379786E+03  0.12500000000E+03 0.  0.
</event>
<event>
 5    0  0.5547141E-005  0.3511125E+03  0.7546771E-02  0.1062159E+00
         21   -1    0    0  502  501  0.00000000000E+00  0.00000000000E+00  0.90064293389E+03  0.90064293389E+03  0.00000000000E+00 0. -1.
         21   -1    0    0  501  502 -0.00000000000E+00 -0.00000000000E+00 -0.13687994286E+03  0.13687994286E+03  0.00000000000E+00 0. -1.
         25    1    1    2    0    0 -0.19079495399E+03  0.16021306195E+03  0.24061420238E+03  0.36822701432E+03  0.12500000000E+03 0.  0.
         25    1    1    2    0    0  0.19640856356E+03 -0.10011288892E+03  0.21889074448E+03  0.33486873904E+03  0.12500000000E+03 0.  0.
         25    1    1    2    0    0 -0.56136095730E+01 -0.60100173029E+02  0.30425804418E+03  0.33442712339E+03  0.12500000000E+03 0.  0.
</event>
<event>
 5    0  0.5547141E-005  0.4093525E+03  0.7546771E-02  0.1040589E+00
         21   -1    0    0  502  501  0.00000000000E+00  0.00000000000E+00  0.36313854679E+03  0.36313854679E+03  0.00000000000E+00 0.  1.
         21   -1    0    0  501  502 -0.00000000000E+00 -0.00000000000E+00 -0.46144770982E+03  0.46144770982E+03  0.00000000000E+00 0.  1.
         25    1    1    2    0    0 -0.50989048537E+02 -0.55293397632E+01 -0.30288539403E+03  0.33165496918E+03  0.12500000000E+03 0.  0.
         25    1    1    2    0    0  0.90495472791E+02 -0.32793619560E+02  0.29120421151E+03  0.33119442157E+03  0.12500000000E+03 0.  0.
         25    1    1    2    0    0 -0.39506424254E+02  0.38322959323E+02 -0.86627980509E+02  0.16173686585E+03  0.12500000000E+03 0.  0.
</event>
<event>
 5    0  0.5547141E-005  0.4882320E+03  0.7546771E-02  0.1016897E+00
         21   -1    0    0  502  501  0.00000000000E+00  0.00000000000E+00  0.78741515706E+03  0.78741515706E+03  0.00000000000E+00 0.  1.
         21   -1    0    0  501  502 -0.00000000000E+00 -0.00000000000E+00 -0.30272534796E+03  0.30272534796E+03  0.00000000000E+00 0.  1.
         25    1    1    2    0    0 -0.93733761631E+02 -0.40008497483E+02 -0.11277186700E+03  0.19679733719E+03  0.12500000000E+03 0.  0.
         25    1    1    2    0    0  0.25597072180E+03  0.17853355345E+03  0.54536650587E+03  0.64065971143E+03  0.12500000000E+03 0.  0.
         25    1    1    2    0    0 -0.16223696017E+03 -0.13852505597E+03  0.52095170225E+02  0.25268345640E+03  0.12500000000E+03 0.  0.
</event>
<event>
 5    0  0.5547141E-005  0.4652570E+03  0.7546771E-02  0.1023267E+00
         21   -1    0    0  502  501  0.00000000000E+00  0.00000000000E+00  0.12896413305E+03  0.12896413305E+03  0.00000000000E+00 0. -1.
         21   -1    0    0  501  502 -0.00000000000E+00 -0.00000000000E+00 -0.16784825266E+04  0.16784825266E+04  0.00000000000E+00 0. -1.
         25    1    1    2    0    0 -0.69377948364E+02  0.21164161844E+03 -0.66167323606E+03  0.70925449995E+03  0.12500000000E+03 0.  0.
         25    1    1    2    0    0 -0.11284374447E+03  0.72532825358E+02 -0.55872658235E+02  0.19168065985E+03  0.12500000000E+03 0.  0.
         25    1    1    2    0    0  0.18222169284E+03 -0.28417444380E+03 -0.83197249921E+03  0.90651149981E+03  0.12500000000E+03 0.  0.
</event>
<event>
 5    0  0.5547141E-005  0.3908483E+03  0.7546771E-02  0.1046995E+00
         21   -1    0    0  502  501  0.00000000000E+00  0.00000000000E+00  0.12446101534E+04  0.12446101534E+04  0.00000000000E+00 0.  1.
         21   -1    0    0  501  502 -0.00000000000E+00 -0.00000000000E+00 -0.12273914738E+03  0.12273914738E+03  0.00000000000E+00 0.  1.
         25    1    1    2    0    0 -0.94096167581E+02  0.10581851656E+02  0.19808276827E+03  0.25264173729E+03  0.12500000000E+03 0.  0.
         25    1    1    2    0    0 -0.22058989709E+03 -0.63523537001E+02  0.54152725287E+03  0.60130849658E+03  0.12500000000E+03 0.  0.
         25    1    1    2    0    0  0.31468606467E+03  0.52941685345E+02  0.38226098492E+03  0.51339906695E+03  0.12500000000E+03 0.  0.
</event>
<event>
 5    0  0.5547141E-005  0.2549659E+03  0.7546771E-02  0.1110206E+00
         21   -1    0    0  502  501  0.00000000000E+00  0.00000000000E+00  0.20418053229E+03  0.20418053229E+03  0.00000000000E+00 0. -1.
         21   -1    0    0  501  502 -0.00000000000E+00 -0.00000000000E+00 -0.31838300466E+03  0.31838300466E+03  0.00000000000E+00 0. -1.
         25    1    1    2    0    0 -0.60509829978E+02 -0.72442252525E+02 -0.10406317106E+03  0.18805175630E+03  0.12500000000E+03 0.  0.
         25    1    1    2    0    0  0.45947079152E+02 -0.40669854543E+02 -0.68937495740E+02  0.15537872914E+03  0.12500000000E+03 0.  0.
         25    1    1    2    0    0  0.14562750826E+02  0.11311210707E+03  0.58798194431E+02  0.17913305152E+03  0.12500000000E+03 0.  0.
</event>
<event>
 5    0  0.5943323E-005  0.4915369E+03  0.7546771E-02  0.1016012E+00
         21   -1    0    0  502  501  0.00000000000E+00  0.00000000000E+00  0.44438784188E+03  0.44438784188E+03  0.00000000000E+00 0.  1.
         21   -1    0    0  501  502 -0.00000000000E+00 -0.00000000000E+00 -0.54368833568E+03  0.54368833568E+03  0.00000000000E+00 0.  1.
         25    1    1    2    0    0 -0.47096443033E+02  0.13143093226E+02 -0.34501118208E+03  0.37020066397E+03  0.12500000000E+03 0.  0.
         25    1    1    2    0    0  0.21595227292E+03  0.92840831836E+02 -0.15028545757E+02  0.26665644830E+03  0.12500000000E+03 0.  0.
         25    1    1    2    0    0 -0.16885582989E+03 -0.10598392506E+03  0.26073923403E+03  0.35121906529E+03  0.12500000000E+03 0.  0.
</event>
<event>
 5    0  0.5547141E-005  0.3186046E+03  0.7546771E-02  0.1076293E+00
         21   -1    0    0  502  501  0.00000000000E+00  0.00000000000E+00  0.86691496331E+03  0.86691496331E+03  0.00000000000E+00 0. -1.
         21   -1    0    0  501  502 -0.00000000000E+00 -0.00000000000E+00 -0.11709209445E+03  0.11709209445E+03  0.00000000000E+00 0. -1.
         25    1    1    2    0    0 -0.12469544411E+03  0.16022257402E+03  0.32629286003E+03  0.40411911303E+03  0.12500000000E+03 0.  0.
         25    1    1    2    0    0 -0.91790141810E+01 -0.17096223475E+03  0.21057429803E+03  0.29879570781E+03  0.12500000000E+03 0.  0.
         25    1    1    2    0    0  0.13387445829E+03  0.10739660731E+02  0.21295571080E+03  0.28109223692E+03  0.12500000000E+03 0.  0.
</event>
<event>
 5    0  0.5547141E-005  0.3553530E+03  0.7546771E-02  0.1060439E+00
         21   -1    0    0  502  501  0.00000000000E+00  0.00000000000E+00  0.80279365887E+03  0.80279365887E+03  0.00000000000E+00 0.  1.
         21   -1    0    0  501  502 -0.00000000000E+00 -0.00000000000E+00 -0.15729538383E+03  0.15729538383E+03  0.00000000000E+00 0.  1.
         25    1    1    2    0    0 -0.82889399354E+02  0.37983310633E+02  0.15947566459E+03  0.22219557153E+03  0.12500000000E+03 0.  0.
         25    1    1    2    0    0  0.56516279613E+02  0.55441438294E+02 -0.67177911090E+02  0.16249835285E+03  0.12500000000E+03 0.  0.
         25    1    1    2    0    0  0.26373119742E+02 -0.93424748927E+02  0.55320052154E+03  0.57539511833E+03  0.12500000000E+03 0.  0.
</event>
<event>
 5    0  0.5547141E-005  0.2566349E+03  0.7546771E-02  0.1109182E+00
         21   -1    0    0  502  501  0.00000000000E+00  0.00000000000E+00  0.23022625340E+03  0.23022625340E+03  0.00000000000E+00 0.  1.
         21   -1    0    0  501  502 -0.00000000000E+00 -0.00000000000E+00 -0.28607291155E+03  0.28607291155E+03  0.00000000000E+00 0.  1.
         25    1    1    2    0    0 -0.10081535968E+02  0.59053184778E+02 -0.54801247880E+02  0.14905399280E+03  0.12500000000E+03 0.  0.
         25    1    1    2    0    0  0.59385725785E+02 -0.78292236246E+02  0.10876906563E+03  0.19264487619E+03  0.12500000000E+03 0.  0.
         25    1    1    2    0    0 -0.49304189817E+02  0.19239051468E+02 -0.10981447590E+03  0.17460029597E+03  0.12500000000E+03 0.  0.
</event>
<event>
 5    0  0.6319969E-005  0.2927126E+03  0.7546771E-02  0.1088941E+00
         21   -1    0    0  502  501  0.00000000000E+00  0.00000000000E+00  0.24339797907E+03  0.24339797907E+03  0.00000000000E+00 0.  1.
         21   -1    0    0  501  502 -0.00000000000E+00 -0.00000000000E+00 -0.35201878639E+03  0.35201878639E+03  0.00000000000E+00 0.  1.
         25    1    1    2    0    0  0.33336091105E+02 -0.42144275328E+02 -0.92890075447E+02  0.16474526102E+03  0.12500000000E+03 0.  0.
         25    1    1    2    0    0  0.14158182045E+02  0.76689582175E+02  0.15314763357E+03  0.21251104395E+03  0.12500000000E+03 0.  0.
         25    1    1    2    0    0 -0.47494273150E+02 -0.34545306847E+02 -0.16887836544E+03  0.21816046049E+03  0.12500000000E+03 0.  0.
</event>
<event>
 5    0  0.5547141E-005  0.2434272E+03  0.7546771E-02  0.1117531E+00
         21   -1    0    0  502  501  0.00000000000E+00  0.00000000000E+00  0.11752151599E+03  0.11752151599E+03  0.00000000000E+00 0. -1.
         21   -1    0    0  501  502 -0.00000000000E+00 -0.00000000000E+00 -0.50422074737E+03  0.50422074737E+03  0.00000000000E+00 0. -1.
         25    1    1    2    0    0  0.57660044659E+02 -0.63748474488E+02 -0.45770152055E+02  0.15845647847E+03  0.12500000000E+03 0.  0.
         25    1    1    2    0    0 -0.73674252596E+02  0.67952629762E+02 -0.28147413640E+03  0.32387983088E+03  0.12500000000E+03 0.  0.
         25    1    1    2    0    0  0.16014207938E+02 -0.42041552733E+01 -0.59454942923E+02  0.13940595402E+03  0.12500000000E+03 0.  0.
</event>
<event>
 5    0  0.5547141E-005  0.3820017E+03  0.7546771E-02  0.1050196E+00
         21   -1    0    0  502  501  0.00000000000E+00  0.00000000000E+00  0.82678071362E+03  0.82678071362E+03  0.00000000000E+00 0. -1.
         21   -1    0    0  501  502 -0.00000000000E+00 -0.00000000000E+00 -0.17649819025E+03  0.17649819025E+03  0.00000000000E+00 0.  1.
         25    1    1    2    0    0 -0.21540584909E+03  0.10845567352E+03  0.36916058725E+03  0.45833050534E+03  0.12500000000E+03 0.  0.
         25    1    1    2    0    0  0.26751373230E+03 -0.58863395568E+02  0.26265304147E+03  0.39954989238E+03  0.12500000000E+03 0.  0.
         25    1    1    2    0    0 -0.52107883205E+02 -0.49592277949E+02  0.18468894645E+02  0.14539850616E+03  0.12500000000E+03 0.  0.
</event>
<event>
 5    0  0.5547141E-005  0.3385620E+03  0.7546771E-02  0.1067410E+00
         21   -1    0    0  502  501  0.00000000000E+00  0.00000000000E+00  0.14451216961E+04  0.14451216961E+04  0.00000000000E+00 0.  1.
         21   -1    0    0  501  502 -0.00000000000E+00 -0.00000000000E+00 -0.79318068164E+02  0.79318068164E+02  0.00000000000E+00 0.  1.
         25    1    1    2    0    0 -0.12440145634E+03 -0.20225991958E+03  0.61588701078E+03  0.67180846039E+03  0.12500000000E+03 0.  0.
         25    1    1    2    0    0  0.15666841394E+02  0.34114835861E+02  0.11041813135E+03  0.17095740896E+03  0.12500000000E+03 0.  0.
         25    1    1    2    0    0  0.10873461494E+03  0.16814508372E+03  0.63949848580E+03  0.68167389492E+03  0.12500000000E+03 0.  0.
</event>
<event>
 5    0  0.5547141E-005  0.3719317E+03  0.7546771E-02  0.1053957E+00
         21   -1    0    0  502  501  0.00000000000E+00  0.00000000000E+00  0.92039749204E+02  0.92039749204E+02  0.00000000000E+00 0. -1.
         21   -1    0    0  501  502 -0.00000000000E+00 -0.00000000000E+00 -0.15029722926E+04  0.15029722926E+04  0.00000000000E+00 0. -1.
         25    1    1    2    0    0  0.16838460076E+03 -0.17197379537E+03 -0.58298682633E+03  0.64298289226E+03  0.12500000000E+03 0.  0.
         25    1    1    2    0    0 -0.47304791279E+02  0.16329130107E+03 -0.16874333025E+03  0.27018716437E+03  0.12500000000E+03 0.  0.
         25    1    1    2    0    0 -0.12107980948E+03  0.86824942995E+01 -0.65920238686E+03  0.68184198522E+03  0.12500000000E+03 0.  0.
</event>
<event>
 5    0  0.5547141E-005  0.2787380E+03  0.7546771E-02  0.1096380E+00
         21   -1    0    0  502  501  0.00000000000E+00  0.00000000000E+00  0.23018856279E+03  0.23018856279E+03  0.00000000000E+00 0. -1.
         21   -1    0    0  501  502 -0.00000000000E+00 -0.00000000000E+00 -0.33752696465E+03  0.33752696465E+03  0.00000000000E+00 0. -1.
         25    1    1    2    0    0 -0.74784977847E+01 -0.16303544314E+03 -0.68132624128E+02  0.21657224688E+03  0.12500000000E+03 0.  0.
         25    1    1    2    0    0  0.64809959453E+02  0.11889801287E+03 -0.80237732975E+02  0.20099791567E+03  0.12500000000E+03 0.  0.
         25    1    1    2    0    0 -0.57331461668E+02  0.44137430265E+02  0.41031955240E+02  0.15014536489E+03  0.12500000000E+03 0.  0.
</event>
<event>
 5    0  0.5547141E-005  0.2640796E+03  0.7546771E-02  0.1104717E+00
         21   -1    0    0  502  501  0.00000000000E+00  0.00000000000E+00  0.19836413477E+03  0.19836413477E+03  0.00000000000E+00 0. -1.
         21   -1    0    0  501  502 -0.00000000000E+00 -0.00000000000E+00 -0.35156580883E+03  0.35156580883E+03  0.00000000000E+00 0. -1.
         25    1    1    2    0    0  0.14550846850E+02 -0.12764866631E+03  0.14106822351E+02  0.17980520457E+03  0.12500000000E+03 0.  0.
         25    1    1    2    0    0  0.79263672176E+01  0.15134307545E+03 -0.13029356708E+03  0.23573070951E+03  0.12500000000E+03 0.  0.
         25    1    1    2    0    0 -0.22477214068E+02 -0.23694409145E+02 -0.37014929331E+02  0.13439402952E+03  0.12500000000E+03 0.  0.
</event>
<event>
 5    0  0.5547141E-005  0.2630676E+03  0.7546771E-02  0.1105314E+00
         21   -1    0    0  502  501  0.00000000000E+00  0.00000000000E+00  0.13853769098E+04  0.13853769098E+04  0.00000000000E+00 0. -1.
         21   -1    0    0  501  502 -0.00000000000E+00 -0.00000000000E+00 -0.49953582188E+02  0.49953582188E+02  0.00000000000E+00 0. -1.
         25    1    1    2    0    0 -0.55009111580E+02  0.39761725365E+02  0.51287616762E+03  0.53223487341E+03  0.12500000000E+03 0.  0.
         25    1    1    2    0    0  0.12864955187E+02 -0.14642043315E+03  0.54116116391E+03  0.57453011727E+03  0.12500000000E+03 0.  0.
         25    1    1    2    0    0  0.42144156392E+02  0.10665870779E+03  0.28138599609E+03  0.32856550132E+03  0.12500000000E+03 0.  0.
</event>
<event>
 5    0  0.5547141E-005  0.3428857E+03  0.7546771E-02  0.1065574E+00
         21   -1    0    0  502  501  0.00000000000E+00  0.00000000000E+00  0.25230775100E+03  0.25230775100E+03  0.00000000000E+00 0. -1.
         21   -1    0    0  501  502 -0.00000000000E+00 -0.00000000000E+00 -0.46598086570E+03  0.46598086570E+03  0.00000000000E+00 0. -1.
         25    1    1    2    0    0 -0.36619967809E+02  0.18958804538E+03  0.84252789888E+02  0.24496567432E+03  0.12500000000E+03 0.  0.
         25    1    1    2    0    0  0.38112417087E+02 -0.19967828776E+03 -0.16231664018E+03  0.28860988656E+03  0.12500000000E+03 0.  0.
         25    1    1    2    0    0 -0.14924492775E+01  0.10090242385E+02 -0.13560926441E+03  0.18471305582E+03  0.12500000000E+03 0.  0.
</event>
<event>
 5    0  0.5547141E-005  0.3922316E+03  0.7546771E-02  0.1046503E+00
         21   -1    0    0  502  501  0.00000000000E+00  0.00000000000E+00  0.49998444172E+03  0.49998444172E+03  0.00000000000E+00 0.  1.
         21   -1    0    0  501  502 -0.00000000000E+00 -0.00000000000E+00 -0.30770086513E+03  0.30770086513E+03  0.00000000000E+00 0.  1.
         25    1    1    2    0    0 -0.39590886712E+02 -0.28865176454E+02  0.35650643954E+03  0.38094944304E+03  0.12500000000E+03 0.  0.
         25    1    1    2    0    0  0.15756710346E+03 -0.44541366045E+02 -0.10102648019E+03  0.22943991606E+03  0.12500000000E+03 0.  0.
         25    1    1    2    0    0 -0.11797621675E+03  0.73406542499E+02 -0.63196382765E+02  0.19729594774E+03  0.12500000000E+03 0.  0.
</event>
<event>
 5    0  0.5547141E-005  0.3072129E+03  0.7546771E-02  0.1081690E+00
         21   -1    0    0  502  501  0.00000000000E+00  0.00000000000E+00  0.27178667142E+03  0.27178667142E+03  0.00000000000E+00 0.  1.
         21   -1    0    0  501  502 -0.00000000000E+00 -0.00000000000E+00 -0.34725687728E+03  0.34725687728E+03  0.00000000000E+00 0.  1.
         25    1    1    2    0    0 -0.80072837130E+02  0.78236675341E+02 -0.21757082591E+03  0.27476299042E+03  0.12500000000E+03 0.  0.
         25    1    1    2    0    0 -0.35630793646E+02 -0.56842101065E+02  0.61135323432E+02  0.15447687749E+03  0.12500000000E+03 0.  0.
         25    1    1    2    0    0  0.11570363078E+03 -0.21394574275E+02  0.80965296615E+02  0.18980368078E+03  0.12500000000E+03 0.  0.
</event>
<event>
 5    0  0.5547141E-005  0.2877997E+03  0.7546771E-02  0.1091504E+00
         21   -1    0    0  502  501  0.00000000000E+00  0.00000000000E+00  0.33602608264E+03  0.33602608264E+03  0.00000000000E+00 0.  1.
         21   -1    0    0  501  502 -0.00000000000E+00 -0.00000000000E+00 -0.24649469126E+03  0.24649469126E+03  0.00000000000E+00 0.  1.
         25    1    1    2    0    0  0.47004923698E+02  0.19491432880E+03  0.26811449849E+02  0.23779174138E+03  0.12500000000E+03 0.  0.
         25    1    1    2    0    0 -0.24448974198E+01 -0.69313124298E+02  0.75310896475E+02  0.16157666246E+03  0.12500000000E+03 0.  0.
         25    1    1    2    0    0 -0.44560026278E+02 -0.12560120450E+03 -0.12590954939E+02  0.18315237006E+03  0.12500000000E+03 0.  0.
</event>
<event>
 5    0  0.5547141E-005  0.4193693E+03  0.7546771E-02  0.1037272E+00
         21   -1    0    0  502  501  0.00000000000E+00  0.00000000000E+00  0.45251508008E+03  0.45251508008E+03  0.00000000000E+00 0. -1.
         21   -1    0    0  501  502 -0.00000000000E+00 -0.00000000000E+00 -0.38865144385E+03  0.38865144385E+03  0.00000000000E+00 0. -1.
         25    1    1    2    0    0 -0.23988313846E+03 -0.19309050232E+03 -0.92249034025E+02  0.34490976571E+03  0.12500000000E+03 0.  0.
         25    1    1    2    0    0  0.10233839343E+03  0.13137116916E+03  0.20732041350E+03  0.29383377054E+03  0.12500000000E+03 0.  0.
         25    1    1    2    0    0  0.13754474503E+03  0.61719333167E+02 -0.51207743244E+02  0.20242298767E+03  0.12500000000E+03 0.  0.
</event>
<event>
 5    0  0.5547141E-005  0.2428496E+03  0.7546771E-02  0.1117909E+00
         21   -1    0    0  502  501  0.00000000000E+00  0.00000000000E+00  0.48834151658E+03  0.48834151658E+03  0.00000000000E+00 0.  1.
         21   -1    0    0  501  502 -0.00000000000E+00 -0.00000000000E+00 -0.12076778664E+03  0.12076778664E+03  0.00000000000E+00 0.  1.
         25    1    1    2    0    0 -0.12579199999E+02  0.57999872784E+02  0.10209097486E+03  0.17195868301E+03  0.12500000000E+03 0.  0.
         25    1    1    2    0    0 -0.83389843503E+02 -0.76895428357E+02  0.20906759776E+03  0.26870249968E+03  0.12500000000E+03 0.  0.
         25    1    1    2    0    0  0.95969043502E+02  0.18895555573E+02  0.56415157320E+02  0.16844812052E+03  0.12500000000E+03 0.  0.
</event>
<event>
 5    0  0.5547141E-005  0.5002456E+03  0.7546771E-02  0.1013715E+00
         21   -1    0    0  502  501  0.00000000000E+00  0.00000000000E+00  0.26285424042E+03  0.26285424042E+03  0.00000000000E+00 0.  1.
         21   -1    0    0  501  502 -0.00000000000E+00 -0.00000000000E+00 -0.95203199446E+03  0.95203199446E+03  0.00000000000E+00 0.  1.
         25    1    1    2    0    0 -0.13040429635E+03  0.15032343961E+03 -0.43911518125E+03  0.49804574028E+03  0.12500000000E+03 0.  0.
         25    1    1    2    0    0 -0.17713192074E+03  0.10800720304E+03 -0.14850975526E+03  0.28411515387E+03  0.12500000000E+03 0.  0.
         25    1    1    2    0    0  0.30753621709E+03 -0.25833064266E+03 -0.10155281752E+03  0.43272534072E+03  0.12500000000E+03 0.  0.
</event>
<event>
 5    0  0.5547141E-005  0.3949222E+03  0.7546771E-02  0.1045552E+00
         21   -1    0    0  502  501  0.00000000000E+00  0.00000000000E+00  0.30033543062E+03  0.30033543062E+03  0.00000000000E+00 0. -1.
         21   -1    0    0  501  502 -0.00000000000E+00 -0.00000000000E+00 -0.51929794409E+03  0.51929794409E+03  0.00000000000E+00 0. -1.
         25    1    1    2    0    0  0.31929061819E+02 -0.25400118374E+03 -0.19719067270E+03  0.34647543597E+03  0.12500000000E+03 0.  0.
         25    1    1    2    0    0  0.11397023413E+02  0.26112636496E+02  0.11855223111E+03  0.17461784968E+03  0.12500000000E+03 0.  0.
         25    1    1    2    0    0 -0.43326085232E+02  0.22788854725E+03 -0.14032407187E+03  0.29854008905E+03  0.12500000000E+03 0.  0.
</event>
<event>
 5    0  0.5547141E-005  0.2688559E+03  0.7546771E-02  0.1101936E+00
         21   -1    0    0  502  501  0.00000000000E+00  0.00000000000E+00  0.17735214675E+04  0.17735214675E+04  0.00000000000E+00 0. -1.
         21   -1    0    0  501  502 -0.00000000000E+00 -0.00000000000E+00 -0.40757036054E+02  0.40757036054E+02  0.00000000000E+00 0. -1.
         25    1    1    2    0    0 -0.59280569867E+02 -0.12401642700E+03  0.39706852392E+03  0.43838644233E+03  0.12500000000E+03 0.  0.
         25    1    1    2    0    0  0.10208349626E+03  0.21486885073E+02  0.67513465480E+03  0.69448868137E+03  0.12500000000E+03 0.  0.
         25    1    1    2    0    0 -0.42802926390E+02  0.10252954193E+03  0.66056125274E+03  0.68140337987E+03  0.12500000000E+03 0.  0.
</event>
<event>
 5    0  0.5547141E-005  0.2395664E+03  0.7546771E-02  0.1120082E+00
         21   -1    0    0  502  501  0.00000000000E+00  0.00000000000E+00  0.12716723024E+03  0.12716723024E+03  0.00000000000E+00 0.  1.
         21   -1    0    0  501  502 -0.00000000000E+00 -0.00000000000E+00 -0.45131181911E+03  0.45131181911E+03  0.00000000000E+00 0.  1.
         25    1    1    2    0    0 -0.47537009479E+02 -0.30600151263E+02  0.80785600935E+01  0.13742779799E+03  0.12500000000E+03 0.  0.
         25    1    1    2    0    0 -0.15767412657E+02  0.28781588560E+02 -0.24212759286E+03  0.27445903586E+03  0.12500000000E+03 0.  0.
         25    1    1    2    0    0  0.63304422136E+02  0.18185627034E+01 -0.90095556103E+02  0.16659221549E+03  0.12500000000E+03 0.  0.
</event>
<event>
 5    0  0.5601631E-005  0.3093925E+03  0.7546771E-02  0.1080637E+00
         21   -1    0    0  502  501  0.00000000000E+00  0.00000000000E+00  0.46674966238E+03  0.46674966238E+03  0.00000000000E+00 0.  1.
         21   -1    0    0  501  502 -0.00000000000E+00 -0.00000000000E+00 -0.20508578372E+03  0.20508578372E+03  0.00000000000E+00 0.  1.
         25    1    1    2    0    0 -0.24862212962E+02 -0.14789172547E+03  0.17932107113E+03  0.26508703976E+03  0.12500000000E+03 0.  0.
         25    1    1    2    0    0  0.64880718524E+02  0.90573661735E+02 -0.83926001992E+02  0.18730101347E+03  0.12500000000E+03 0.  0.
         25    1    1    2    0    0 -0.40018505562E+02  0.57318063738E+02  0.16626880952E+03  0.21944739287E+03  0.12500000000E+03 0.  0.
</event>
<event>
 5    0  0.5547141E-005  0.5379522E+03  0.7546771E-02  0.1004322E+00
         21   -1    0    0  502  501  0.00000000000E+00  0.00000000000E+00  0.63606028095E+03  0.63606028095E+03  0.00000000000E+00 0. -1.
         21   -1    0    0  501  502 -0.00000000000E+00 -0.00000000000E+00 -0.45497669169E+03  0.45497669169E+03  0.00000000000E+00 0. -1.
         25    1    1    2    0    0 -0.31531395191E+02 -0.13755254781E+03  0.11532458382E+03  0.22099704053E+03  0.12500000000E+03 0.  0.
         25    1    1    2    0    0  0.21840476705E+02 -0.29040136632E+03  0.23344517523E+03  0.39361352850E+03  0.12500000000E+03 0.  0.
         25    1    1    2    0    0  0.96909184862E+01  0.42795391413E+03 -0.16768616978E+03  0.47642640361E+03  0.12500000000E+03 0.  0.
</event>
<event>
 5    0  0.5547141E-005  0.2938246E+03  0.7546771E-02  0.1088369E+00
         21   -1    0    0  502  501  0.00000000000E+00  0.00000000000E+00  0.36705063462E+03  0.36705063462E+03  0.00000000000E+00 0. -1.
         21   -1    0    0  501  502 -0.00000000000E+00 -0.00000000000E+00 -0.23520708704E+03  0.23520708704E+03  0.00000000000E+00 0. -1.
         25    1    1    2    0    0 -0.14701529095E+02  0.42948968557E+02 -0.17968412669E+02  0.13419617249E+03  0.12500000000E+03 0.  0.
         25    1    1    2    0    0  0.27181884774E+02  0.15186091271E+03  0.13194863514E+02  0.19899672382E+03  0.12500000000E+03 0.  0.
         25    1    1    2    0    0 -0.12480355679E+02 -0.19480988126E+03  0.13661709673E+03  0.26906482534E+03  0.12500000000E+03 0.  0.
</event>
<event>
 5    0  0.5547141E-005  0.2986999E+03  0.7546771E-02  0.1085892E+00
         21   -1    0    0  502  501  0.00000000000E+00  0.00000000000E+00  0.29020885667E+03  0.29020885667E+03  0.00000000000E+00 0.  1.
         21   -1    0    0  501  502 -0.00000000000E+00 -0.00000000000E+00 -0.30743934456E+03  0.30743934456E+03  0.00000000000E+00 0.  1.
         25    1    1    2    0    0 -0.16572843491E+02  0.59601302311E+02  0.17547087020E+01  0.13948137288E+03  0.12500000000E+03 0.  0.
         25    1    1    2    0    0 -0.15590800276E+03 -0.52805979575E+02 -0.10070113475E+03  0.22991627898E+03  0.12500000000E+03 0.  0.
         25    1    1    2    0    0  0.17248084625E+03 -0.67953227361E+01  0.81715938166E+02  0.22825054936E+03  0.12500000000E+03 0.  0.
</event>
<event>
 5    0  0.5547141E-005  0.3182969E+03  0.7546771E-02  0.1076436E+00
         21   -1    0    0  502  501  0.00000000000E+00  0.00000000000E+00  0.46080481190E+03  0.46080481190E+03  0.00000000000E+00 0.  1.
         21   -1    0    0  501  502 -0.00000000000E+00 -0.00000000000E+00 -0.21986087259E+03  0.21986087259E+03  0.00000000000E+00 0.  1.
         25    1    1    2    0    0  0.17136483311E+02  0.39359919765E+02  0.24472421928E+03  0.27813271265E+03  0.12500000000E+03 0.  0.
         25    1    1    2    0    0  0.85420701878E+02  0.21047947795E+02 -0.12009957946E+03  0.19439295615E+03  0.12500000000E+03 0.  0.
         25    1    1    2    0    0 -0.10255718519E+03 -0.60407867559E+02  0.11631929948E+03  0.20814001568E+03  0.12500000000E+03 0.  0.
</event>
<event>
 5    0  0.5547141E-005  0.2615408E+03  0.7546771E-02  0.1106221E+00
         21   -1    0    0  502  501  0.00000000000E+00  0.00000000000E+00  0.94669129957E+02  0.94669129957E+02  0.00000000000E+00 0. -1.
         21   -1    0    0  501  502 -0.00000000000E+00 -0.00000000000E+00 -0.72255428113E+03  0.72255428113E+03  0.00000000000E+00 0. -1.
         25    1    1    2    0    0  0.59280067487E+02 -0.15478896670E+01 -0.26321213004E+03  0.29735861811E+03  0.12500000000E+03 0.  0.
         25    1    1    2    0    0 -0.53711036630E+02  0.69499340487E+02 -0.34346419427E+03  0.37590914664E+03  0.12500000000E+03 0.  0.
         25    1    1    2    0    0 -0.55690308571E+01 -0.67951450820E+02 -0.21208826857E+02  0.14395564633E+03  0.12500000000E+03 0.  0.
</event>
<event>
 5    0  0.5547141E-005  0.3039806E+03  0.7546771E-02  0.1083267E+00
         21   -1    0    0  502  501  0.00000000000E+00  0.00000000000E+00  0.47309376685E+03  0.47309376685E+03  0.00000000000E+00 0.  1.
         21   -1    0    0  501  502 -0.00000000000E+00 -0.00000000000E+00 -0.19531905196E+03  0.19531905196E+03  0.00000000000E+00 0.  1.
         25    1    1    2    0    0  0.13582924146E+03  0.68732279014E+02  0.30534884595E+03  0.36336844488E+03  0.12500000000E+03 0.  0.
         25    1    1    2    0    0 -0.91570961867E+02 -0.41778714594E+01 -0.28241719374E+02  0.15756043406E+03  0.12500000000E+03 0.  0.
         25    1    1    2    0    0 -0.44258279591E+02 -0.64554407555E+02  0.66758832632E+00  0.14748393988E+03  0.12500000000E+03 0.  0.
</event>
<event>
 5    0  0.5547141E-005  0.3676070E+03  0.7546771E-02  0.1055612E+00
         21   -1    0    0  502  501  0.00000000000E+00  0.00000000000E+00  0.19647281952E+03  0.19647281952E+03  0.00000000000E+00 0.  1.
         21   -1    0    0  501  502 -0.00000000000E+00 -0.00000000000E+00 -0.68780451268E+03  0.68780451268E+03  0.00000000000E+00 0.  1.
         25    1    1    2    0    0 -0.13638360846E+03  0.14486797971E+02  0.71063369558E+01  0.18570367793E+03  0.12500000000E+03 0.  0.
         25    1    1    2    0    0  0.19771753873E+03  0.13460377779E+03 -0.36831709073E+03  0.45661020733E+03  0.12500000000E+03 0.  0.
         25    1    1    2    0    0 -0.61333930275E+02 -0.14909057576E+03 -0.13012093939E+03  0.24196344693E+03  0.12500000000E+03 0.  0.
</event>
<event>
 5    0  0.5547141E-005  0.2850724E+03  0.7546771E-02  0.1092950E+00
         21   -1    0    0  502  501  0.00000000000E+00  0.00000000000E+00  0.33770917996E+03  0.33770917996E+03  0.00000000000E+00 0.  1.
         21   -1    0    0  501  502 -0.00000000000E+00 -0.00000000000E+00 -0.24063986156E+03  0.24063986156E+03  0.00000000000E+00 0.  1.
         25    1    1    2    0    0  0.17150608408E+02 -0.21496126969E+01  0.71753258748E+02  0.14516299234E+03  0.12500000000E+03 0.  0.
         25    1    1    2    0    0 -0.24749969790E+02 -0.31645128697E+02 -0.16000584038E+03  0.20698029889E+03  0.12500000000E+03 0.  0.
         25    1    1    2    0    0  0.75993613819E+01  0.33794741394E+02  0.18532190003E+03  0.22620575030E+03  0.12500000000E+03 0.  0.
</event>
<event>
 5    0  0.5547141E-005  0.3763898E+03  0.7546771E-02  0.1052276E+00
         21   -1    0    0  502  501  0.00000000000E+00  0.00000000000E+00  0.26095207931E+03  0.26095207931E+03  0.00000000000E+00 0.  1.
         21   -1    0    0  501  502 -0.00000000000E+00 -0.00000000000E+00 -0.54289382912E+03  0.54289382912E+03  0.00000000000E+00 0.  1.
         25    1    1    2    0    0  0.99705687770E+02  0.26198137716E+02 -0.64560436998E+02  0.17441506993E+03  0.12500000000E+03 0.  0.
         25    1    1    2    0    0 -0.19978014108E+03 -0.10451520899E+03  0.90875003801E+02  0.27334739800E+03  0.12500000000E+03 0.  0.
         25    1    1    2    0    0  0.10007445331E+03  0.78317071274E+02 -0.30825631662E+03  0.35608344050E+03  0.12500000000E+03 0.  0.
</event>
<event>
 5    0  0.5547141E-005  0.3658373E+03  0.7546771E-02  0.1056296E+00
         21   -1    0    0  502  501  0.00000000000E+00  0.00000000000E+00  0.20685767825E+03  0.20685767825E+03  0.00000000000E+00 0.  1.
         21   -1    0    0  501  502 -0.00000000000E+00 -0.00000000000E+00 -0.64700012689E+03  0.64700012689E+03  0.00000000000E+00 0.  1.
         25    1    1    2    0    0  0.12434412826E+03  0.12859355897E+03 -0.39043748590E+03  0.44728536309E+03  0.12500000000E+03 0.  0.
         25    1    1    2    0    0 -0.25147238990E+02  0.53428814757E+02 -0.84485617637E+02  0.16201802820E+03  0.12500000000E+03 0.  0.
         25    1    1    2    0    0 -0.99196889265E+02 -0.18202237373E+03  0.34780654888E+02  0.24455441385E+03  0.12500000000E+03 0.  0.
</event>
<event>
 5    0  0.5547141E-005  0.2769535E+03  0.7546771E-02  0.1097365E+00
         21   -1    0    0  502  501  0.00000000000E+00  0.00000000000E+00  0.18716034496E+03  0.18716034496E+03  0.00000000000E+00 0. -1.
         21   -1    0    0  501  502 -0.00000000000E+00 -0.00000000000E+00 -0.40982646953E+03  0.40982646953E+03  0.00000000000E+00 0. -1.
         25    1    1    2    0    0 -0.37588137168E+02  0.63759698673E+01 -0.24639163273E+03  0.27890385032E+03  0.12500000000E+03 0.  0.
         25    1    1    2    0    0  0.10837342587E+03 -0.89455983905E+01 -0.22398402240E+02  0.16718705568E+03  0.12500000000E+03 0.  0.
         25    1    1    2    0    0 -0.70785288700E+02  0.25696285231E+01  0.46123910393E+02  0.15089590848E+03  0.12500000000E+03 0.  0.
</event>
<event>
 5    0  0.5547141E-005  0.3390264E+03  0.7546771E-02  0.1067211E+00
         21   -1    0    0  502  501  0.00000000000E+00  0.00000000000E+00  0.14251232795E+03  0.14251232795E+03  0.00000000000E+00 0.  1.
         21   -1    0    0  501  502 -0.00000000000E+00 -0.00000000000E+00 -0.80651883757E+03  0.80651883757E+03  0.00000000000E+00 0.  1.
         25    1    1    2    0    0 -0.92376333987E+02  0.19624136184E+03 -0.32729768934E+03  0.41205926348E+03  0.12500000000E+03 0.  0.
         25    1    1    2    0    0  0.28126203684E+02 -0.12427754012E+03 -0.15643912075E+02  0.17918069734E+03  0.12500000000E+03 0.  0.
         25    1    1    2    0    0  0.64250130303E+02 -0.71963821712E+02 -0.32106490821E+03  0.35779120470E+03  0.12500000000E+03 0.  0.
</event>
<event>
 5    0  0.5547141E-005  0.2654784E+03  0.7546771E-02  0.1103896E+00
         21   -1    0    0  502  501  0.00000000000E+00  0.00000000000E+00  0.71360389125E+03  0.71360389125E+03  0.00000000000E+00 0. -1.
         21   -1    0    0  501  502 -0.00000000000E+00 -0.00000000000E+00 -0.98764598014E+02  0.98764598014E+02  0.00000000000E+00 0. -1.
         25    1    1    2    0    0  0.16153081060E+01 -0.22518213533E+02  0.81978046112E+02  0.15117896416E+03  0.12500000000E+03 0.  0.
         25    1    1    2    0    0  0.87219387021E+02  0.40243123944E+02  0.68577774802E+02  0.17191463490E+03  0.12500000000E+03 0.  0.
         25    1    1    2    0    0 -0.88834695127E+02 -0.17724910411E+02  0.46428347233E+03  0.48927489020E+03  0.12500000000E+03 0.  0.
</event>
<event>
 5    0  0.5547141E-005  0.2300582E+03  0.7546771E-02  0.1126599E+00
         21   -1    0    0  502  501  0.00000000000E+00  0.00000000000E+00  0.84797675908E+02  0.84797675908E+02  0.00000000000E+00 0. -1.
         21   -1    0    0  501  502 -0.00000000000E+00 -0.00000000000E+00 -0.62415364065E+03  0.62415364065E+03  0.00000000000E+00 0. -1.
         25    1    1    2    0    0  0.26561147859E+02  0.25309127457E+02 -0.14093655542E+03  0.19192227375E+03  0.12500000000E+03 0.  0.
         25    1    1    2    0    0 -0.98959812767E+02 -0.75745683208E+02 -0.21444941761E+03  0.27774809771E+03  0.12500000000E+03 0.  0.
         25    1    1    2    0    0  0.72398664908E+02  0.50436555752E+02 -0.18396999172E+03  0.23928094510E+03  0.12500000000E+03 0.  0.
</event>
<event>
 5    0  0.5547141E-005  0.3600454E+03  0.7546771E-02  0.1058566E+00
         21   -1    0    0  502  501  0.00000000000E+00  0.00000000000E+00  0.11608013260E+04  0.11608013260E+04  0.00000000000E+00 0. -1.
         21   -1    0    0  501  502 -0.00000000000E+00 -0.00000000000E+00 -0.11167516214E+03  0.11167516214E+03  0.00000000000E+00 0. -1.
         25    1    1    2    0    0 -0.86101151702E+02  0.22221459279E+03  0.26686846326E+03  0.37899407680E+03  0.12500000000E+03 0.  0.
         25    1    1    2    0    0 -0.66080496222E+02 -0.83247804418E+02  0.47765842345E+03  0.50505385694E+03  0.12500000000E+03 0.  0.
         25    1    1    2    0    0  0.15218164792E+03 -0.13896678837E+03  0.30459927717E+03  0.38842855441E+03  0.12500000000E+03 0.  0.
</event>
<event>
 5    0  0.5547141E-005  0.3446994E+03  0.7546771E-02  0.1064812E+00
         21   -1    0    0  502  501  0.00000000000E+00  0.00000000000E+00  0.12333948363E+03  0.12333948363E+03  0.00000000000E+00 0. -1.
         21   -1    0    0  501  502 -0.00000000000E+00 -0.00000000000E+00 -0.96333874115E+03  0.96333874115E+03  0.00000000000E+00 0. -1.
         25    1    1    2    0    0  0.55475175516E+02  0.18813213559E+03 -0.48725495550E+03  0.53991998222E+03  0.12500000000E+03 0.  0.
         25    1    1    2    0    0 -0.91003151546E+00 -0.14482047569E+03 -0.35541420143E+03  0.40363108517E+03  0.12500000000E+03 0.  0.
         25    1    1    2    0    0 -0.54565144001E+02 -0.43311659898E+02  0.26698994120E+01  0.14312715740E+03  0.12500000000E+03 0.  0.
</event>
<event>
 5    0  0.5547141E-005  0.3436878E+03  0.7546771E-02  0.1065236E+00
         21   -1    0    0  502  501  0.00000000000E+00  0.00000000000E+00  0.13758996629E+03  0.13758996629E+03  0.00000000000E+00 0. -1.
         21   -1    0    0  501  502 -0.00000000000E+00 -0.00000000000E+00 -0.85850239711E+03  0.85850239711E+03  0.00000000000E+00 0. -1.
         25    1    1    2    0    0  0.15158094212E+03  0.73844324084E+02 -0.10112720877E+03  0.23298385902E+03  0.12500000000E+03 0.  0.
         25    1    1    2    0    0  0.34790719510E+02 -0.14798914339E+03 -0.37091855455E+03  0.41990088692E+03  0.12500000000E+03 0.  0.
         25    1    1    2    0    0 -0.18637166163E+03  0.74144819304E+02 -0.24886666750E+03  0.34320761745E+03  0.12500000000E+03 0.  0.
</event>
<event>
 5    0  0.5547141E-005  0.4095914E+03  0.7546771E-02  0.1040508E+00
         21   -1    0    0  502  501  0.00000000000E+00  0.00000000000E+00  0.46578554577E+03  0.46578554577E+03  0.00000000000E+00 0. -1.
         21   -1    0    0  501  502 -0.00000000000E+00 -0.00000000000E+00 -0.36017671184E+03  0.36017671184E+03  0.00000000000E+00 0. -1.
         25    1    1    2    0    0 -0.11788129302E+03  0.32555585285E+03  0.76232489082E+01  0.36819251282E+03  0.12500000000E+03 0.  0.
         25    1    1    2    0    0  0.64218560101E+02 -0.16231380979E+03 -0.18415033531E+02  0.21548528899E+03  0.12500000000E+03 0.  0.
         25    1    1    2    0    0  0.53662732921E+02 -0.16324204306E+03  0.11640061855E+03  0.24228445581E+03  0.12500000000E+03 0.  0.
</event>
<event>
 5    0  0.5547141E-005  0.4059320E+03  0.7546771E-02  0.1041745E+00
         21   -1    0    0  502  501  0.00000000000E+00  0.00000000000E+00  0.41783142849E+03  0.41783142849E+03  0.00000000000E+00 0. -1.
         21   -1    0    0  501  502 -0.00000000000E+00 -0.00000000000E+00 -0.39437153440E+03  0.39437153440E+03  0.00000000000E+00 0. -1.
         25    1    1    2    0    0 -0.91426195961E+02  0.12137286359E+03  0.19008980469E+03  0.27358591917E+03  0.12500000000E+03 0.  0.
         25    1    1    2    0    0  0.20440793718E+03 -0.20147035831E+03 -0.16087969735E+03  0.35196617320E+03  0.12500000000E+03 0.  0.
         25    1    1    2    0    0 -0.11298174122E+03  0.80097494722E+02 -0.57502132534E+01  0.18665087051E+03  0.12500000000E+03 0.  0.
</event>
<event>
 5    0  0.5547141E-005  0.2754675E+03  0.7546771E-02  0.1098191E+00
         21   -1    0    0  502  501  0.00000000000E+00  0.00000000000E+00  0.25532598669E+04  0.25532598669E+04  0.00000000000E+00 0.  1.
         21   -1    0    0  501  502 -0.00000000000E+00 -0.00000000000E+00 -0.29719786235E+02  0.29719786235E+02  0.00000000000E+00 0.  1.
         25    1    1    2    0    0  0.95029034705E+02  0.39900294716E+02  0.46971769204E+03  0.49687247979E+03  0.12500000000E+03 0.  0.
         25    1    1    2    0    0  0.89736819542E+00 -0.65273832853E+00  0.30303074641E+03  0.32780156285E+03  0.12500000000E+03 0.  0.
         25    1    1    2    0    0 -0.95926402900E+02 -0.39247556388E+02  0.17507916422E+04  0.17583056105E+04  0.12500000000E+03 0.  0.
</event>
<event>
 5    0  0.5547141E-005  0.2929471E+03  0.7546771E-02  0.1088820E+00
         21   -1    0    0  502  501  0.00000000000E+00  0.00000000000E+00  0.77387919247E+02  0.77387919247E+02  0.00000000000E+00 0. -1.
         21   -1    0    0  501  502 -0.00000000000E+00 -0.00000000000E+00 -0.11089326650E+04  0.11089326650E+04  0.00000000000E+00 0. -1.
         25    1    1    2    0    0  0.73464079652E+02 -0.92436194172E+02 -0.20995649887E+03  0.27138193088E+03  0.12500000000E+03 0.  0.
         25    1    1    2    0    0 -0.11735991890E+03  0.16337794816E+03 -0.37290422740E+03  0.44175589110E+03  0.12500000000E+03 0.  0.
         25    1    1    2    0    0  0.43895839252E+02 -0.70941753991E+02 -0.44868401952E+03  0.47318276229E+03  0.12500000000E+03 0.  0.
</event>
<event>
 5    0  0.5547141E-005  0.2434523E+03  0.7546771E-02  0.1117514E+00
         21   -1    0    0  502  501  0.00000000000E+00  0.00000000000E+00  0.56227169580E+03  0.56227169580E+03  0.00000000000E+00 0.  1.
         21   -1    0    0  501  502 -0.00000000000E+00 -0.00000000000E+00 -0.10540996965E+03  0.10540996965E+03  0.00000000000E+00 0.  1.
         25    1    1    2    0    0 -0.34466518937E+02 -0.14415585044E+02  0.22483940966E+03  0.25994905301E+03  0.12500000000E+03 0.  0.
         25    1    1    2    0    0  0.68862310442E+01  0.11555238343E+03  0.13943041444E+03  0.22014907214E+03  0.12500000000E+03 0.  0.
         25    1    1    2    0    0  0.27580287893E+02 -0.10113679838E+03  0.92591902040E+02  0.18758354030E+03  0.12500000000E+03 0.  0.
</event>
<event>
 5    0  0.7614716E-004  0.6699840E+03  0.7546771E-02  0.9769987E-01
         21   -1    0    0  502  501  0.00000000000E+00  0.00000000000E+00  0.35404060339E+03  0.35404060339E+03  0.00000000000E+00 0.  1.
         21   -1    0    0  501  502 -0.00000000000E+00 -0.00000000000E+00 -0.12678729380E+04  0.12678729380E+04  0.00000000000E+00 0.  1.
         25    1    1    2    0    0 -0.24680167862E+03  0.19522130565E+03 -0.19162207294E+03  0.38905840896E+03  0.12500000000E+03 0.  0.
         25    1    1    2    0    0  0.36610976926E+03  0.24051430787E+03 -0.59081983888E+03  0.74604060040E+03  0.12500000000E+03 0.  0.
         25    1    1    2    0    0 -0.11930809065E+03 -0.43573561352E+03 -0.13139042278E+03  0.48681453202E+03  0.12500000000E+03 0.  0.
</event>
<event>
 5    0  0.5547141E-005  0.2609814E+03  0.7546771E-02  0.1106555E+00
         21   -1    0    0  502  501  0.00000000000E+00  0.00000000000E+00  0.39653575755E+02  0.39653575755E+02  0.00000000000E+00 0. -1.
         21   -1    0    0  501  502 -0.00000000000E+00 -0.00000000000E+00 -0.17176584836E+04  0.17176584836E+04  0.00000000000E+00 0. -1.
         25    1    1    2    0    0 -0.27149802524E+02  0.24606273735E+00 -0.55151149416E+03  0.56615112868E+03  0.12500000000E+03 0.  0.
         25    1    1    2    0    0  0.28933863335E+02 -0.14469934288E+03 -0.49627673412E+03  0.53262619641E+03  0.12500000000E+03 0.  0.
         25    1    1    2    0    0 -0.17840608109E+01  0.14445328014E+03 -0.63021667960E+03  0.65853473429E+03  0.12500000000E+03 0.  0.
</event>
<event>
 5    0  0.5547141E-005  0.3799717E+03  0.7546771E-02  0.1050944E+00
         21   -1    0    0  502  501  0.00000000000E+00  0.00000000000E+00  0.57513355376E+03  0.57513355376E+03  0.00000000000E+00 0.  1.
         21   -1    0    0  501  502 -0.00000000000E+00 -0.00000000000E+00 -0.25103472660E+03  0.25103472660E+03  0.00000000000E+00 0.  1.
         25    1    1    2    0    0 -0.34283248198E+02  0.23099119886E+02 -0.76424096994E+01  0.13187993355E+03  0.12500000000E+03 0.  0.
         25    1    1    2    0    0  0.29486691522E+03 -0.11723778058E+02  0.16582142386E+03  0.36084025450E+03  0.12500000000E+03 0.  0.
         25    1    1    2    0    0 -0.26058366702E+03 -0.11375341827E+02  0.16591981301E+03  0.33344809231E+03  0.12500000000E+03 0.  0.
</event>
<event>
 5    0  0.5547141E-005  0.2509438E+03  0.7546771E-02  0.1112710E+00
         21   -1    0    0  502  501  0.00000000000E+00  0.00000000000E+00  0.65215527492E+03  0.65215527492E+03  0.00000000000E+00 0. -1.
         21   -1    0    0  501  502 -0.00000000000E+00 -0.00000000000E+00 -0.96561062587E+02  0.96561062587E+02  0.00000000000E+00 0. -1.
         25    1    1    2    0    0  0.70377593443E+02 -0.69333416057E+02  0.27348035155E+03  0.31650692081E+03  0.12500000000E+03 0.  0.
         25    1    1    2    0    0  0.36926630935E+02  0.93704660102E+02  0.14886937652E+03  0.21893202292E+03  0.12500000000E+03 0.  0.
         25    1    1    2    0    0 -0.10730422438E+03 -0.24371244045E+02  0.13324448427E+03  0.21327739377E+03  0.12500000000E+03 0.  0.
</event>
<event>
 5    0  0.5547141E-005  0.4580745E+03  0.7546771E-02  0.1025341E+00
         21   -1    0    0  502  501  0.00000000000E+00  0.00000000000E+00  0.27230539164E+03  0.27230539164E+03  0.00000000000E+00 0.  1.
         21   -1    0    0  501  502 -0.00000000000E+00 -0.00000000000E+00 -0.77057675570E+03  0.77057675570E+03  0.00000000000E+00 0.  1.
         25    1    1    2    0    0  0.69804984316E+02  0.25911131003E+03 -0.13371484296E+03  0.32483236608E+03  0.12500000000E+03 0.  0.
         25    1    1    2    0    0 -0.28444459344E+03 -0.11855089016E+03 -0.21288928359E+03  0.39485426091E+03  0.12500000000E+03 0.  0.
         25    1    1    2    0    0  0.21463960912E+03 -0.14056041987E+03 -0.15166723752E+03  0.32319552035E+03  0.12500000000E+03 0.  0.
</event>
<event>
 5    0  0.5547141E-005  0.2372023E+03  0.7546771E-02  0.1121671E+00
         21   -1    0    0  502  501  0.00000000000E+00  0.00000000000E+00  0.34472434689E+03  0.34472434689E+03  0.00000000000E+00 0. -1.
         21   -1    0    0  501  502 -0.00000000000E+00 -0.00000000000E+00 -0.16321720322E+03  0.16321720322E+03  0.00000000000E+00 0. -1.
         25    1    1    2    0    0  0.11020309916E+03 -0.25128870005E+02  0.15051309860E+03  0.22595436713E+03  0.12500000000E+03 0.  0.
         25    1    1    2    0    0 -0.24516800554E+02  0.79626650000E+01  0.18401413312E+02  0.12894994981E+03  0.12500000000E+03 0.  0.
         25    1    1    2    0    0 -0.85686298606E+02  0.17166205005E+02  0.12592631750E+02  0.15303723317E+03  0.12500000000E+03 0.  0.
</event>
<event>
 5    0  0.5547141E-005  0.2476574E+03  0.7546771E-02  0.1114794E+00
         21   -1    0    0  502  501  0.00000000000E+00  0.00000000000E+00  0.56986777129E+03  0.56986777129E+03  0.00000000000E+00 0. -1.
         21   -1    0    0  501  502 -0.00000000000E+00 -0.00000000000E+00 -0.10762880565E+03  0.10762880565E+03  0.00000000000E+00 0. -1.
         25    1    1    2    0    0  0.11010295263E+03 -0.21228715338E+02  0.97958867804E+02  0.19440745437E+03  0.12500000000E+03 0.  0.
         25    1    1    2    0    0 -0.39579624269E+02 -0.19569270004E+02  0.62767564915E+02  0.14667743586E+03  0.12500000000E+03 0.  0.
         25    1    1    2    0    0 -0.70523328356E+02  0.40797985342E+02  0.30151253292E+03  0.33641168672E+03  0.12500000000E+03 0.  0.
</event>
<event>
 5    0  0.5547141E-005  0.2318482E+03  0.7546771E-02  0.1125346E+00
         21   -1    0    0  502  501  0.00000000000E+00  0.00000000000E+00  0.23616438598E+03  0.23616438598E+03  0.00000000000E+00 0. -1.
         21   -1    0    0  501  502 -0.00000000000E+00 -0.00000000000E+00 -0.22761093300E+03  0.22761093300E+03  0.00000000000E+00 0. -1.
         25    1    1    2    0    0 -0.15552249494E+02  0.37277791982E+02 -0.65567352917E+02  0.14681820053E+03  0.12500000000E+03 0.  0.
         25    1    1    2    0    0 -0.12987774259E+02  0.67436016215E+02  0.33649549699E+02  0.14653870055E+03  0.12500000000E+03 0.  0.
         25    1    1    2    0    0  0.28540023752E+02 -0.10471380820E+03  0.40471256192E+02  0.17041841790E+03  0.12500000000E+03 0.  0.
</event>
<event>
 5    0  0.6561868E-005  0.5810972E+03  0.7546771E-02  0.9945418E-01
         21   -1    0    0  502  501  0.00000000000E+00  0.00000000000E+00  0.11087997516E+04  0.11087997516E+04  0.00000000000E+00 0. -1.
         21   -1    0    0  501  502 -0.00000000000E+00 -0.00000000000E+00 -0.30454010934E+03  0.30454010934E+03  0.00000000000E+00 0. -1.
         25    1    1    2    0    0 -0.11280238619E+03  0.15166103554E+03  0.59853451616E+03  0.63999532425E+03  0.12500000000E+03 0.  0.
         25    1    1    2    0    0 -0.27737772994E+03 -0.94525051721E+02  0.18090199549E+02  0.31910130960E+03  0.12500000000E+03 0.  0.
         25    1    1    2    0    0  0.39018011613E+03 -0.57135983815E+02  0.18763492652E+03  0.45424322705E+03  0.12500000000E+03 0.  0.
</event>
<event>
 5    0  0.5547141E-005  0.3196124E+03  0.7546771E-02  0.1075828E+00
         21   -1    0    0  502  501  0.00000000000E+00  0.00000000000E+00  0.59348647637E+03  0.59348647637E+03  0.00000000000E+00 0. -1.
         21   -1    0    0  501  502 -0.00000000000E+00 -0.00000000000E+00 -0.17212200551E+03  0.17212200551E+03  0.00000000000E+00 0. -1.
         25    1    1    2    0    0  0.41680955366E+02  0.27763103494E+02  0.24344273410E+03  0.27820398405E+03  0.12500000000E+03 0.  0.
         25    1    1    2    0    0 -0.14711904137E+03  0.78991661366E+02  0.20232687712E+03  0.29059397810E+03  0.12500000000E+03 0.  0.
         25    1    1    2    0    0  0.10543808601E+03 -0.10675476486E+03 -0.24405140358E+02  0.19681051973E+03  0.12500000000E+03 0.  0.
</event>
<event>
 5    0  0.5547141E-005  0.3684213E+03  0.7546771E-02  0.1055298E+00
         21   -1    0    0  502  501  0.00000000000E+00  0.00000000000E+00  0.32404133442E+03  0.32404133442E+03  0.00000000000E+00 0.  1.
         21   -1    0    0  501  502 -0.00000000000E+00 -0.00000000000E+00 -0.41887936178E+03  0.41887936178E+03  0.00000000000E+00 0.  1.
         25    1    1    2    0    0  0.78617042378E+02  0.72878608763E+02 -0.18429568302E+03  0.24714738467E+03  0.12500000000E+03 0.  0.
         25    1    1    2    0    0 -0.45462547446E+02  0.16432245145E+03  0.78090102308E+02  0.22537030716E+03  0.12500000000E+03 0.  0.
         25    1    1    2    0    0 -0.33154494932E+02 -0.23720106021E+03  0.11367553358E+02  0.27040300437E+03  0.12500000000E+03 0.  0.
</event>
<event>
 5    0  0.5547141E-005  0.2978365E+03  0.7546771E-02  0.1086327E+00
         21   -1    0    0  502  501  0.00000000000E+00  0.00000000000E+00  0.12245264612E+03  0.12245264612E+03  0.00000000000E+00 0. -1.
         21   -1    0    0  501  502 -0.00000000000E+00 -0.00000000000E+00 -0.72441530674E+03  0.72441530674E+03  0.00000000000E+00 0. -1.
         25    1    1    2    0    0 -0.81289174283E+02  0.78456075420E+02 -0.35303736625E+02  0.17214714475E+03  0.12500000000E+03 0.  0.
         25    1    1    2    0    0 -0.45025294527E+02 -0.54654919627E+01 -0.89363227231E+02  0.16021215663E+03  0.12500000000E+03 0.  0.
         25    1    1    2    0    0  0.12631446881E+03 -0.72990583457E+02 -0.47729569676E+03  0.51450865148E+03  0.12500000000E+03 0.  0.
</event>
<event>
 5    0  0.5547141E-005  0.4363920E+03  0.7546771E-02  0.1031860E+00
         21   -1    0    0  502  501  0.00000000000E+00  0.00000000000E+00  0.40161229509E+03  0.40161229509E+03  0.00000000000E+00 0. -1.
         21   -1    0    0  501  502 -0.00000000000E+00 -0.00000000000E+00 -0.47418366910E+03  0.47418366910E+03  0.00000000000E+00 0. -1.
         25    1    1    2    0    0  0.22895603822E+03 -0.10720723396E+00  0.51927231872E+02  0.26597427759E+03  0.12500000000E+03 0.  0.
         25    1    1    2    0    0  0.12564865229E+03  0.61261917233E+02 -0.13114209773E+03  0.22883150160E+03  0.12500000000E+03 0.  0.
         25    1    1    2    0    0 -0.35460469051E+03 -0.61154709999E+02  0.66434918506E+01  0.38099018500E+03  0.12500000000E+03 0.  0.
</event>
<event>
 5    0  0.5547141E-005  0.2601961E+03  0.7546771E-02  0.1107025E+00
         21   -1    0    0  502  501  0.00000000000E+00  0.00000000000E+00  0.88969733297E+03  0.88969733297E+03  0.00000000000E+00 0. -1.
         21   -1    0    0  501  502 -0.00000000000E+00 -0.00000000000E+00 -0.76095563019E+02  0.76095563019E+02  0.00000000000E+00 0. -1.
         25    1    1    2    0    0  0.56381198123E+02  0.53833284015E+02  0.24931546565E+03  0.28958602070E+03  0.12500000000E+03 0.  0.
         25    1    1    2    0    0  0.70590934434E+02  0.42247832720E+02  0.35394641241E+03  0.38427987490E+03  0.12500000000E+03 0.  0.
         25    1    1    2    0    0 -0.12697213256E+03 -0.96081116735E+02  0.21033989189E+03  0.29192700039E+03  0.12500000000E+03 0.  0.
</event>
<event>
 5    0  0.5547141E-005  0.2969820E+03  0.7546771E-02  0.1086759E+00
         21   -1    0    0  502  501  0.00000000000E+00  0.00000000000E+00  0.52033529747E+03  0.52033529747E+03  0.00000000000E+00 0. -1.
         21   -1    0    0  501  502 -0.00000000000E+00 -0.00000000000E+00 -0.16950282885E+03  0.16950282885E+03  0.00000000000E+00 0. -1.
         25    1    1    2    0    0 -0.52071232654E+02 -0.71185687912E+02  0.34707149699E+03  0.37929202398E+03  0.12500000000E+03 0.  0.
         25    1    1    2    0    0  0.44878434787E+02  0.10792073348E+03  0.38725423384E+02  0.17545830570E+03  0.12500000000E+03 0.  0.
         25    1    1    2    0    0  0.71927978673E+01 -0.36735045566E+02 -0.34964451760E+02  0.13508779664E+03  0.12500000000E+03 0.  0.
</event>
<event>
 5    0  0.5547141E-005  0.4016448E+03  0.7546771E-02  0.1043212E+00
         21   -1    0    0  502  501  0.00000000000E+00  0.00000000000E+00  0.95438951327E+03  0.95438951327E+03  0.00000000000E+00 0. -1.
         21   -1    0    0  501  502 -0.00000000000E+00 -0.00000000000E+00 -0.16902797790E+03  0.16902797790E+03  0.00000000000E+00 0. -1.
         25    1    1    2    0    0 -0.87002720756E+02 -0.27680453164E+03  0.12683533200E+03  0.34044445010E+03  0.12500000000E+03 0.  0.
         25    1    1    2    0    0 -0.16760190375E+02  0.45449897561E+02  0.28094785815E+03  0.31129294269E+03  0.12500000000E+03 0.  0.
         25    1    1    2    0    0  0.10376291113E+03  0.23135463408E+03  0.37757834522E+03  0.47168009839E+03  0.12500000000E+03 0.  0.
</event>
<event>
 5    0  0.5547141E-005  0.3191113E+03  0.7546771E-02  0.1076059E+00
         21   -1    0    0  502  501  0.00000000000E+00  0.00000000000E+00  0.81854880339E+03  0.81854880339E+03  0.00000000000E+00 0. -1.
         21   -1    0    0  501  502 -0.00000000000E+00 -0.00000000000E+00 -0.12440552482E+03  0.12440552482E+03  0.00000000000E+00 0. -1.
         25    1    1    2    0    0  0.28970525197E+02  0.17345394946E+03  0.18339391412E+03  0.28316760347E+03  0.12500000000E+03 0.  0.
         25    1    1    2    0    0 -0.76234958727E+02  0.20929734904E+02  0.78701027307E+02  0.16753708376E+03  0.12500000000E+03 0.  0.
         25    1    1    2    0    0  0.47264433530E+02 -0.19438368437E+03  0.43204833714E+03  0.49224964098E+03  0.12500000000E+03 0.  0.
</event>
<event>
 5    0  0.5547141E-005  0.4020105E+03  0.7546771E-02  0.1043086E+00
         21   -1    0    0  502  501  0.00000000000E+00  0.00000000000E+00  0.85700728826E+03  0.85700728826E+03  0.00000000000E+00 0.  1.
         21   -1    0    0  501  502 -0.00000000000E+00 -0.00000000000E+00 -0.18857767927E+03  0.18857767927E+03  0.00000000000E+00 0.  1.
         25    1    1    2    0    0 -0.12786647185E+03  0.12647962460E+03 -0.74700290782E+02  0.23141318784E+03  0.12500000000E+03 0.  0.
         25    1    1    2    0    0  0.16330036229E+01 -0.79982022770E+02  0.30851802108E+03  0.34235677297E+03  0.12500000000E+03 0.  0.
         25    1    1    2    0    0  0.12623346822E+03 -0.46497601834E+02  0.43461187869E+03  0.47181500672E+03  0.12500000000E+03 0.  0.
</event>
<event>
 5    0  0.5547141E-005  0.3108586E+03  0.7546771E-02  0.1079935E+00
         21   -1    0    0  502  501  0.00000000000E+00  0.00000000000E+00  0.13951149063E+04  0.13951149063E+04  0.00000000000E+00 0.  1.
         21   -1    0    0  501  502 -0.00000000000E+00 -0.00000000000E+00 -0.69265305702E+02  0.69265305702E+02  0.00000000000E+00 0.  1.
         25    1    1    2    0    0 -0.53545995688E+02  0.10816768514E+03  0.30604155583E+03  0.35192876503E+03  0.12500000000E+03 0.  0.
         25    1    1    2    0    0 -0.14563903676E+03 -0.18959213208E+02  0.43198342540E+03  0.47308018413E+03  0.12500000000E+03 0.  0.
         25    1    1    2    0    0  0.19918503245E+03 -0.89208471934E+02  0.58782461941E+03  0.63937126288E+03  0.12500000000E+03 0.  0.
</event>
<event>
 5    0  0.5547141E-005  0.2248601E+03  0.7546771E-02  0.1130311E+00
         21   -1    0    0  502  501  0.00000000000E+00  0.00000000000E+00  0.67765203739E+03  0.67765203739E+03  0.00000000000E+00 0. -1.
         21   -1    0    0  501  502 -0.00000000000E+00 -0.00000000000E+00 -0.74613619895E+02  0.74613619895E+02  0.00000000000E+00 0. -1.
         25    1    1    2    0    0 -0.38982367281E+02 -0.48027928003E+02  0.10132351228E+03  0.17238840149E+03  0.12500000000E+03 0.  0.
         25    1    1    2    0    0  0.61061947761E+02  0.36045765624E+02  0.15955376972E+03  0.21473300658E+03  0.12500000000E+03 0.  0.
         25    1    1    2    0    0 -0.22079580480E+02  0.11982162379E+02  0.34216113550E+03  0.36514424922E+03  0.12500000000E+03 0.  0.
</event>
<event>
 5    0  0.5547141E-005  0.2904139E+03  0.7546771E-02  0.1090133E+00
         21   -1    0    0  502  501  0.00000000000E+00  0.00000000000E+00  0.33834989146E+03  0.33834989146E+03  0.00000000000E+00 0.  1.
         21   -1    0    0  501  502 -0.00000000000E+00 -0.00000000000E+00 -0.24926930601E+03  0.24926930601E+03  0.00000000000E+00 0.  1.
         25    1    1    2    0    0  0.30731066913E+02  0.37773016287E+02 -0.64085274584E+02  0.14867118635E+03  0.12500000000E+03 0.  0.
         25    1    1    2    0    0 -0.37736910702E+02 -0.17007452860E+03  0.24224167877E+02  0.21578051352E+03  0.12500000000E+03 0.  0.
         25    1    1    2    0    0  0.70058437891E+01  0.13230151231E+03  0.12894169216E+03  0.22316749760E+03  0.12500000000E+03 0.  0.
</event>
<event>
 5    0  0.5547141E-005  0.4301575E+03  0.7546771E-02  0.1033810E+00
         21   -1    0    0  502  501  0.00000000000E+00  0.00000000000E+00  0.17193152042E+04  0.17193152042E+04  0.00000000000E+00 0.  1.
         21   -1    0    0  501  502 -0.00000000000E+00 -0.00000000000E+00 -0.10762163687E+03  0.10762163687E+03  0.00000000000E+00 0.  1.
         25    1    1    2    0    0 -0.20780536406E+03 -0.57123412997E+01  0.99199043560E+03  0.10212177655E+04  0.12500000000E+03 0.  0.
         25    1    1    2    0    0  0.12599874416E+03  0.61999487890E+02  0.61811059939E+03  0.64606913957E+03  0.12500000000E+03 0.  0.
         25    1    1    2    0    0  0.81806619899E+02 -0.56287146590E+02  0.15925323844E+01  0.15964993608E+03  0.12500000000E+03 0.  0.
</event>
<event>
 5    0  0.5547141E-005  0.7963352E+03  0.7546771E-02  0.9565337E-01
         21   -1    0    0  502  501  0.00000000000E+00  0.00000000000E+00  0.90693833177E+03  0.90693833177E+03  0.00000000000E+00 0.  1.
         21   -1    0    0  501  502 -0.00000000000E+00 -0.00000000000E+00 -0.69922031344E+03  0.69922031344E+03  0.00000000000E+00 0.  1.
         25    1    1    2    0    0 -0.58490199987E+03 -0.22593173825E+03  0.39026862606E+03  0.74905947714E+03  0.12500000000E+03 0.  0.
         25    1    1    2    0    0  0.62826585453E+03  0.23480988937E+03 -0.22412356773E+03  0.71812954383E+03  0.12500000000E+03 0.  0.
         25    1    1    2    0    0 -0.43363854656E+02 -0.88781511233E+01  0.41572959994E+02  0.13896962424E+03  0.12500000000E+03 0.  0.
</event>
<event>
 5    0  0.5547141E-005  0.3134310E+03  0.7546771E-02  0.1078713E+00
         21   -1    0    0  502  501  0.00000000000E+00  0.00000000000E+00  0.65260489270E+03  0.65260489270E+03  0.00000000000E+00 0. -1.
         21   -1    0    0  501  502 -0.00000000000E+00 -0.00000000000E+00 -0.15053364513E+03  0.15053364513E+03  0.00000000000E+00 0. -1.
         25    1    1    2    0    0  0.10373026967E+03  0.12835728205E+03  0.48011248462E+02  0.21252209457E+03  0.12500000000E+03 0.  0.
         25    1    1    2    0    0 -0.14283543086E+03 -0.10967993972E+03  0.17051890057E+03  0.27772890548E+03  0.12500000000E+03 0.  0.
         25    1    1    2    0    0  0.39105161192E+02 -0.18677342324E+02  0.28354109853E+03  0.31288753779E+03  0.12500000000E+03 0.  0.
</event>
<event>
 5    0  0.5547141E-005  0.3592457E+03  0.7546771E-02  0.1058883E+00
         21   -1    0    0  502  501  0.00000000000E+00  0.00000000000E+00  0.53073423120E+03  0.53073423120E+03  0.00000000000E+00 0.  1.
         21   -1    0    0  501  502 -0.00000000000E+00 -0.00000000000E+00 -0.24316782291E+03  0.24316782291E+03  0.00000000000E+00 0.  1.
         25    1    1    2    0    0  0.59191729159E+01 -0.23729230463E+03  0.12162174952E+03  0.29454969768E+03  0.12500000000E+03 0.  0.
         25    1    1    2    0    0  0.87161906224E+02  0.98089551165E+02  0.19746549391E+03  0.26802309458E+03  0.12500000000E+03 0.  0.
         25    1    1    2    0    0 -0.93081079140E+02  0.13920275347E+03 -0.31520835135E+02  0.21132926185E+03  0.12500000000E+03 0.  0.
</event>
<event>
 5    0  0.5547141E-005  0.3454143E+03  0.7546771E-02  0.1064513E+00
         21   -1    0    0  502  501  0.00000000000E+00  0.00000000000E+00  0.13467857748E+03  0.13467857748E+03  0.00000000000E+00 0. -1.
         21   -1    0    0  501  502 -0.00000000000E+00 -0.00000000000E+00 -0.88589451088E+03  0.88589451088E+03  0.00000000000E+00 0. -1.
         25    1    1    2    0    0 -0.13510427039E+03 -0.19616645391E+03 -0.29409101765E+03  0.39855861323E+03  0.12500000000E+03 0.  0.
         25    1    1    2    0    0 -0.43265470651E+02  0.29377138191E+02 -0.22501025489E+03  0.26265858448E+03  0.12500000000E+03 0.  0.
         25    1    1    2    0    0  0.17836974104E+03  0.16678931572E+03 -0.23211466086E+03  0.35935589065E+03  0.12500000000E+03 0.  0.
</event>
<event>
 5    0  0.5547141E-005  0.3107365E+03  0.7546771E-02  0.1079993E+00
         21   -1    0    0  502  501  0.00000000000E+00  0.00000000000E+00  0.22089710786E+03  0.22089710786E+03  0.00000000000E+00 0.  1.
         21   -1    0    0  501  502 -0.00000000000E+00 -0.00000000000E+00 -0.43711375946E+03  0.43711375946E+03  0.00000000000E+00 0.  1.
         25    1    1    2    0    0  0.12376216227E+03 -0.13292041916E+03 -0.16370679540E+02  0.22108349054E+03  0.12500000000E+03 0.  0.
         25    1    1    2    0    0 -0.59280674262E+02 -0.58989907209E+02 -0.70342962186E+02  0.16603355029E+03  0.12500000000E+03 0.  0.
         25    1    1    2    0    0 -0.64481488008E+02  0.19191032637E+03 -0.12950300987E+03  0.27089382649E+03  0.12500000000E+03 0.  0.
</event>
<event>
 5    0  0.5547141E-005  0.3712594E+03  0.7546771E-02  0.1054212E+00
         21   -1    0    0  502  501  0.00000000000E+00  0.00000000000E+00  0.78398446820E+03  0.78398446820E+03  0.00000000000E+00 0. -1.
         21   -1    0    0  501  502 -0.00000000000E+00 -0.00000000000E+00 -0.17581160627E+03  0.17581160627E+03  0.00000000000E+00 0. -1.
         25    1    1    2    0    0  0.19729130711E+02  0.11661659250E+03 -0.86666355137E+02  0.19267777598E+03  0.12500000000E+03 0.  0.
         25    1    1    2    0    0 -0.75701065917E+02 -0.51734886558E+02  0.47844263181E+03  0.50293091156E+03  0.12500000000E+03 0.  0.
         25    1    1    2    0    0  0.55971935206E+02 -0.64881705942E+02  0.21639658526E+03  0.26418738692E+03  0.12500000000E+03 0.  0.
</event>
<event>
 5    0  0.5547141E-005  0.6026848E+03  0.7546771E-02  0.9899852E-01
         21   -1    0    0  502  501  0.00000000000E+00  0.00000000000E+00  0.80298797247E+03  0.80298797247E+03  0.00000000000E+00 0. -1.
         21   -1    0    0  501  502 -0.00000000000E+00 -0.00000000000E+00 -0.45234670156E+03  0.45234670156E+03  0.00000000000E+00 0. -1.
         25    1    1    2    0    0 -0.26804943062E+03 -0.73861676963E+02  0.20995489543E+03  0.37015145913E+03  0.12500000000E+03 0.  0.
         25    1    1    2    0    0  0.49905503650E+03  0.18687519552E+03 -0.36872288411E+02  0.54860079640E+03  0.12500000000E+03 0.  0.
         25    1    1    2    0    0 -0.23100560588E+03 -0.11301351856E+03  0.17755866389E+03  0.33658241851E+03  0.12500000000E+03 0.  0.
</event>
<event>
 5    0  0.5547141E-005  0.2456191E+03  0.7546771E-02  0.1116105E+00
         21   -1    0    0  502  501  0.00000000000E+00  0.00000000000E+00  0.40051247036E+03  0.40051247036E+03  0.00000000000E+00 0. -1.
         21   -1    0    0  501  502 -0.00000000000E+00 -0.00000000000E+00 -0.15062887582E+03  0.15062887582E+03  0.00000000000E+00 0. -1.
         25    1    1    2    0    0 -0.43656578694E+02  0.34353188688E+02 -0.18532864620E+02  0.13803805818E+03  0.12500000000E+03 0.  0.
         25    1    1    2    0    0  0.96156342442E+01 -0.94544799397E+02  0.78765818847E+02  0.17567081070E+03  0.12500000000E+03 0.  0.
         25    1    1    2    0    0  0.34040944450E+02  0.60191610709E+02  0.18965064032E+03  0.23743247729E+03  0.12500000000E+03 0.  0.
</event>
<event>
 5    0  0.5699543E-005  0.3115930E+03  0.7546771E-02  0.1079585E+00
         21   -1    0    0  502  501  0.00000000000E+00  0.00000000000E+00  0.13951416674E+03  0.13951416674E+03  0.00000000000E+00 0.  1.
         21   -1    0    0  501  502 -0.00000000000E+00 -0.00000000000E+00 -0.69591645795E+03  0.69591645795E+03  0.00000000000E+00 0.  1.
         25    1    1    2    0    0 -0.16705877024E+03 -0.81638541221E+02 -0.87124127669E+02  0.24039363084E+03  0.12500000000E+03 0.  0.
         25    1    1    2    0    0  0.16565558778E+02 -0.27034050365E+02 -0.25220222829E+03  0.28325998936E+03  0.12500000000E+03 0.  0.
         25    1    1    2    0    0  0.15049321146E+03  0.10867259159E+03 -0.21707593525E+03  0.31177700449E+03  0.12500000000E+03 0.  0.
</event>
<event>
 5    0  0.5547141E-005  0.2912858E+03  0.7546771E-02  0.1089680E+00
         21   -1    0    0  502  501  0.00000000000E+00  0.00000000000E+00  0.24028140313E+03  0.24028140313E+03  0.00000000000E+00 0.  1.
         21   -1    0    0  501  502 -0.00000000000E+00 -0.00000000000E+00 -0.35311699174E+03  0.35311699174E+03  0.00000000000E+00 0.  1.
         25    1    1    2    0    0  0.29055996771E+02  0.15388507739E+03  0.71765711919E+02  0.21283840208E+03  0.12500000000E+03 0.  0.
         25    1    1    2    0    0 -0.50455823496E+02 -0.50661693421E+01 -0.97890443433E+02  0.16667031863E+03  0.12500000000E+03 0.  0.
         25    1    1    2    0    0  0.21399826725E+02 -0.14881890805E+03 -0.86710857093E+02  0.21388967417E+03  0.12500000000E+03 0.  0.
</event>
<event>
 5    0  0.5547141E-005  0.2839314E+03  0.7546771E-02  0.1093561E+00
         21   -1    0    0  502  501  0.00000000000E+00  0.00000000000E+00  0.82603230047E+02  0.82603230047E+02  0.00000000000E+00 0. -1.
         21   -1    0    0  501  502 -0.00000000000E+00 -0.00000000000E+00 -0.97595489734E+03  0.97595489734E+03  0.00000000000E+00 0. -1.
         25    1    1    2    0    0 -0.89589560987E+02  0.14079943491E+03 -0.36597978986E+03  0.42120894684E+03  0.12500000000E+03 0.  0.
         25    1    1    2    0    0 -0.21270444445E+02 -0.74100715410E+02 -0.11200676580E+03  0.18469938661E+03  0.12500000000E+03 0.  0.
         25    1    1    2    0    0  0.11086000543E+03 -0.66698719501E+02 -0.41536511163E+03  0.45264979393E+03  0.12500000000E+03 0.  0.
</event>
<event>
 5    0  0.5547141E-005  0.3353207E+03  0.7546771E-02  0.1068807E+00
         21   -1    0    0  502  501  0.00000000000E+00  0.00000000000E+00  0.69394984094E+02  0.69394984094E+02  0.00000000000E+00 0. -1.
         21   -1    0    0  501  502 -0.00000000000E+00 -0.00000000000E+00 -0.16202896716E+04  0.16202896716E+04  0.00000000000E+00 0. -1.
         25    1    1    2    0    0  0.49557941730E+02 -0.32195969907E+02 -0.11897744726E+04  0.11977816435E+04  0.12500000000E+03 0.  0.
         25    1    1    2    0    0 -0.39743752702E+02  0.14918913111E+02 -0.27179393840E+02  0.13478078237E+03  0.12500000000E+03 0.  0.
         25    1    1    2    0    0 -0.98141890287E+01  0.17277056796E+02 -0.33394082111E+03  0.35712222978E+03  0.12500000000E+03 0.  0.
</event>
<event>
 5    0  0.5547141E-005  0.2438879E+03  0.7546771E-02  0.1117230E+00
         21   -1    0    0  502  501  0.00000000000E+00  0.00000000000E+00  0.35362010570E+02  0.35362010570E+02  0.00000000000E+00 0. -1.
         21   -1    0    0  501  502 -0.00000000000E+00 -0.00000000000E+00 -0.16820685685E+04  0.16820685685E+04  0.00000000000E+00 0. -1.
         25    1    1    2    0    0 -0.66897885633E+02 -0.61886458221E+02 -0.94450996299E+03  0.95709421219E+03  0.12500000000E+03 0.  0.
         25    1    1    2    0    0  0.89601560205E+02  0.43678863626E+02 -0.44599848904E+03  0.47378891391E+03  0.12500000000E+03 0.  0.
         25    1    1    2    0    0 -0.22703674571E+02  0.18207594595E+02 -0.25619810592E+03  0.28654745299E+03  0.12500000000E+03 0.  0.
</event>
<event>
 5    0  0.5547141E-005  0.2800755E+03  0.7546771E-02  0.1095648E+00
         21   -1    0    0  502  501  0.00000000000E+00  0.00000000000E+00  0.10514028536E+03  0.10514028536E+03  0.00000000000E+00 0.  1.
         21   -1    0    0  501  502 -0.00000000000E+00 -0.00000000000E+00 -0.74607252316E+03  0.74607252316E+03  0.00000000000E+00 0.  1.
         25    1    1    2    0    0  0.13149654595E+02 -0.27029523757E+02 -0.39313408878E+03  0.41362171163E+03  0.12500000000E+03 0.  0.
         25    1    1    2    0    0 -0.11823120140E+03 -0.44105522662E+02 -0.87687429606E+02  0.19808583853E+03  0.12500000000E+03 0.  0.
         25    1    1    2    0    0  0.10508154681E+03  0.71135046419E+02 -0.16011071941E+03  0.23950525835E+03  0.12500000000E+03 0.  0.
</event>
<event>
 5    0  0.5989503E-005  0.2834212E+03  0.7546771E-02  0.1093835E+00
         21   -1    0    0  502  501  0.00000000000E+00  0.00000000000E+00  0.15154122652E+03  0.15154122652E+03  0.00000000000E+00 0.  1.
         21   -1    0    0  501  502 -0.00000000000E+00 -0.00000000000E+00 -0.53007085270E+03  0.53007085270E+03  0.00000000000E+00 0.  1.
         25    1    1    2    0    0 -0.35084729390E+02  0.93130629434E+02 -0.91905468383E+02  0.18432543908E+03  0.12500000000E+03 0.  0.
         25    1    1    2    0    0  0.55035425581E+02 -0.10058904864E+03 -0.32346468088E+03  0.36524163858E+03  0.12500000000E+03 0.  0.
         25    1    1    2    0    0 -0.19950696191E+02  0.74584192063E+01  0.36840523087E+02  0.13204500156E+03  0.12500000000E+03 0.  0.
</event>
<event>
 5    0  0.5547141E-005  0.3410614E+03  0.7546771E-02  0.1066345E+00
         21   -1    0    0  502  501  0.00000000000E+00  0.00000000000E+00  0.26731538439E+03  0.26731538439E+03  0.00000000000E+00 0. -1.
         21   -1    0    0  501  502 -0.00000000000E+00 -0.00000000000E+00 -0.43515215706E+03  0.43515215706E+03  0.00000000000E+00 0. -1.
         25    1    1    2    0    0  0.15835114276E+03  0.26084520491E+02 -0.27764248166E+03  0.34418866083E+03  0.12500000000E+03 0.  0.
         25    1    1    2    0    0 -0.45512382288E+02 -0.21509455775E+02  0.13167338245E+03  0.18840624532E+03  0.12500000000E+03 0.  0.
         25    1    1    2    0    0 -0.11283876047E+03 -0.45750647159E+01 -0.21867673457E+02  0.16987263530E+03  0.12500000000E+03 0.  0.
</event>
<event>
 5    0  0.5547141E-005  0.3826146E+03  0.7546771E-02  0.1049972E+00
         21   -1    0    0  502  501  0.00000000000E+00  0.00000000000E+00  0.21668161028E+03  0.21668161028E+03  0.00000000000E+00 0. -1.
         21   -1    0    0  501  502 -0.00000000000E+00 -0.00000000000E+00 -0.67561770209E+03  0.67561770209E+03  0.00000000000E+00 0.  1.
         25    1    1    2    0    0  0.63541218452E+02 -0.22327521980E+03 -0.18712744531E+03  0.32331252838E+03  0.12500000000E+03 0.  0.
         25    1    1    2    0    0 -0.27088165591E+02  0.22222181211E+03  0.12054305935E+02  0.25668386935E+03  0.12500000000E+03 0.  0.
         25    1    1    2    0    0 -0.36453052861E+02  0.10534076896E+01 -0.28386295242E+03  0.31230291463E+03  0.12500000000E+03 0.  0.
</event>
<event>
 5    0  0.5547141E-005  0.2285773E+03  0.7546771E-02  0.1127645E+00
         21   -1    0    0  502  501  0.00000000000E+00  0.00000000000E+00  0.30396273899E+03  0.30396273899E+03  0.00000000000E+00 0.  1.
         21   -1    0    0  501  502 -0.00000000000E+00 -0.00000000000E+00 -0.17188817829E+03  0.17188817829E+03  0.00000000000E+00 0.  1.
         25    1    1    2    0    0 -0.15881240814E+02  0.64921671763E+02  0.39842256371E+02  0.14723940596E+03  0.12500000000E+03 0.  0.
         25    1    1    2    0    0  0.57461647301E+02  0.40844074007E+02  0.20071905682E+02  0.14490673100E+03  0.12500000000E+03 0.  0.
         25    1    1    2    0    0 -0.41580406486E+02 -0.10576574577E+03  0.72160398643E+02  0.18370478032E+03  0.12500000000E+03 0.  0.
</event>
<event>
 5    0  0.5547141E-005  0.2964520E+03  0.7546771E-02  0.1087028E+00
         21   -1    0    0  502  501  0.00000000000E+00  0.00000000000E+00  0.23745772088E+03  0.23745772088E+03  0.00000000000E+00 0.  1.
         21   -1    0    0  501  502 -0.00000000000E+00 -0.00000000000E+00 -0.37010282335E+03  0.37010282335E+03  0.00000000000E+00 0.  1.
         25    1    1    2    0    0 -0.13148811500E+03 -0.23153497392E+02  0.82084385476E+02  0.20046958664E+03  0.12500000000E+03 0.  0.
         25    1    1    2    0    0 -0.33454900121E+02  0.24983876844E+02 -0.12455328741E+03  0.18133379676E+03  0.12500000000E+03 0.  0.
         25    1    1    2    0    0  0.16494301512E+03 -0.18303794521E+01 -0.90176200535E+02  0.22575716083E+03  0.12500000000E+03 0.  0.
</event>
<event>
 5    0  0.5547141E-005  0.2940077E+03  0.7546771E-02  0.1088275E+00
         21   -1    0    0  502  501  0.00000000000E+00  0.00000000000E+00  0.18477988419E+04  0.18477988419E+04  0.00000000000E+00 0.  1.
         21   -1    0    0  501  502 -0.00000000000E+00 -0.00000000000E+00 -0.46780265148E+02  0.46780265148E+02  0.00000000000E+00 0.  1.
         25    1    1    2    0    0  0.85022691480E+02  0.50363326218E+02  0.23114123698E+03  0.28074293246E+03  0.12500000000E+03 0.  0.
         25    1    1    2    0    0  0.87074809007E+02 -0.49685283218E+02  0.73810840258E+03  0.75530104177E+03  0.12500000000E+03 0.  0.
         25    1    1    2    0    0 -0.17209750049E+03 -0.67804300038E+00  0.83176893724E+03  0.85853513287E+03  0.12500000000E+03 0.  0.
</event>
<event>
 5    0  0.5547141E-005  0.3244463E+03  0.7546771E-02  0.1073621E+00
         21   -1    0    0  502  501  0.00000000000E+00  0.00000000000E+00  0.53191035892E+03  0.53191035892E+03  0.00000000000E+00 0. -1.
         21   -1    0    0  501  502 -0.00000000000E+00 -0.00000000000E+00 -0.19790064223E+03  0.19790064223E+03  0.00000000000E+00 0. -1.
         25    1    1    2    0    0  0.36531155199E+02  0.16379375643E+03 -0.72351855596E+01  0.20938067689E+03  0.12500000000E+03 0.  0.
         25    1    1    2    0    0 -0.12222887557E+03 -0.16392813370E+03  0.18500627910E+03  0.30276171215E+03  0.12500000000E+03 0.  0.
         25    1    1    2    0    0  0.85697720372E+02  0.13437727218E+00  0.15623862315E+03  0.21766861211E+03  0.12500000000E+03 0.  0.
</event>
<event>
 5    0  0.5547141E-005  0.2311590E+03  0.7546771E-02  0.1125827E+00
         21   -1    0    0  502  501  0.00000000000E+00  0.00000000000E+00  0.21232751712E+03  0.21232751712E+03  0.00000000000E+00 0.  1.
         21   -1    0    0  501  502 -0.00000000000E+00 -0.00000000000E+00 -0.25166064447E+03  0.25166064447E+03  0.00000000000E+00 0.  1.
         25    1    1    2    0    0 -0.57604086786E+02 -0.14351504712E+02  0.53888753464E+02  0.14850317927E+03  0.12500000000E+03 0.  0.
         25    1    1    2    0    0  0.97334807292E+02 -0.20430691502E+00 -0.92623369082E+02  0.18351619806E+03  0.12500000000E+03 0.  0.
         25    1    1    2    0    0 -0.39730720505E+02  0.14555811627E+02 -0.59851172821E+00  0.13196878426E+03  0.12500000000E+03 0.  0.
</event>
<event>
 5    0  0.5547141E-005  0.2266899E+03  0.7546771E-02  0.1128991E+00
         21   -1    0    0  502  501  0.00000000000E+00  0.00000000000E+00  0.30631252631E+03  0.30631252631E+03  0.00000000000E+00 0. -1.
         21   -1    0    0  501  502 -0.00000000000E+00 -0.00000000000E+00 -0.16776431132E+03  0.16776431132E+03  0.00000000000E+00 0. -1.
         25    1    1    2    0    0  0.29363433533E+02  0.22374845745E+02  0.80494077916E+02  0.15318988717E+03  0.12500000000E+03 0.  0.
         25    1    1    2    0    0 -0.20688475701E+02  0.78469080925E+02 -0.24250947137E+01  0.14905130248E+03  0.12500000000E+03 0.  0.
         25    1    1    2    0    0 -0.86749578322E+01 -0.10084392667E+03  0.60479231791E+02  0.17183564798E+03  0.12500000000E+03 0.  0.
</event>
<event>
 5    0  0.5547141E-005  0.4299266E+03  0.7546771E-02  0.1033883E+00
         21   -1    0    0  502  501  0.00000000000E+00  0.00000000000E+00  0.16142682748E+03  0.16142682748E+03  0.00000000000E+00 0. -1.
         21   -1    0    0  501  502 -0.00000000000E+00 -0.00000000000E+00 -0.11450197990E+04  0.11450197990E+04  0.00000000000E+00 0. -1.
         25    1    1    2    0    0  0.21145333967E+03  0.19737733180E+02 -0.33211112182E+03  0.41355155689E+03  0.12500000000E+03 0.  0.
         25    1    1    2    0    0 -0.23547256495E+03 -0.98020032333E+02 -0.68341205149E+03  0.74008937819E+03  0.12500000000E+03 0.  0.
         25    1    1    2    0    0  0.24019225283E+02  0.78282299153E+02  0.31930201773E+02  0.15280569142E+03  0.12500000000E+03 0.  0.
</event>
<event>
 5    0  0.5547141E-005  0.2531594E+03  0.7546771E-02  0.1111324E+00
         21   -1    0    0  502  501  0.00000000000E+00  0.00000000000E+00  0.39719842191E+03  0.39719842191E+03  0.00000000000E+00 0. -1.
         21   -1    0    0  501  502 -0.00000000000E+00 -0.00000000000E+00 -0.16135432278E+03  0.16135432278E+03  0.00000000000E+00 0. -1.
         25    1    1    2    0    0  0.10977393106E+03 -0.10083290413E+03  0.36569423601E+02  0.19793916550E+03  0.12500000000E+03 0.  0.
         25    1    1    2    0    0 -0.37291264560E+02  0.14360528332E+02  0.10140020420E+03  0.16584289131E+03  0.12500000000E+03 0.  0.
         25    1    1    2    0    0 -0.72482666501E+02  0.86472375794E+02  0.97874471335E+02  0.19477068788E+03  0.12500000000E+03 0.  0.
</event>
<event>
 5    0  0.5547141E-005  0.5654864E+03  0.7546771E-02  0.9979717E-01
         21   -1    0    0  502  501  0.00000000000E+00  0.00000000000E+00  0.26197201751E+03  0.26197201751E+03  0.00000000000E+00 0. -1.
         21   -1    0    0  501  502 -0.00000000000E+00 -0.00000000000E+00 -0.12206451934E+04  0.12206451934E+04  0.00000000000E+00 0. -1.
         25    1    1    2    0    0  0.16266788675E+03 -0.10876571685E+02 -0.10522120808E+04  0.10720794767E+04  0.12500000000E+03 0.  0.
         25    1    1    2    0    0 -0.19616226250E+03  0.87757405126E+02  0.69192000039E+02  0.25805721895E+03  0.12500000000E+03 0.  0.
         25    1    1    2    0    0  0.33494375752E+02 -0.76880833441E+02  0.24346904941E+02  0.15248051527E+03  0.12500000000E+03 0.  0.
</event>
<event>
 5    0  0.5547141E-005  0.3326613E+03  0.7546771E-02  0.1069965E+00
         21   -1    0    0  502  501  0.00000000000E+00  0.00000000000E+00  0.18362544932E+03  0.18362544932E+03  0.00000000000E+00 0.  1.
         21   -1    0    0  501  502 -0.00000000000E+00 -0.00000000000E+00 -0.60265917535E+03  0.60265917535E+03  0.00000000000E+00 0.  1.
         25    1    1    2    0    0  0.49308872649E+02  0.73160496489E+02  0.66494758117E+02  0.16682438678E+03  0.12500000000E+03 0.  0.
         25    1    1    2    0    0 -0.12964709546E+03 -0.12152230136E+01 -0.38788027628E+03  0.42765167467E+03  0.12500000000E+03 0.  0.
         25    1    1    2    0    0  0.80338222807E+02 -0.71945273476E+02 -0.97648207869E+02  0.19180856321E+03  0.12500000000E+03 0.  0.
</event>
<event>
 5    0  0.5547141E-005  0.2366821E+03  0.7546771E-02  0.1122023E+00
         21   -1    0    0  502  501  0.00000000000E+00  0.00000000000E+00  0.16626061968E+04  0.16626061968E+04  0.00000000000E+00 0.  1.
         21   -1    0    0  501  502 -0.00000000000E+00 -0.00000000000E+00 -0.33693137026E+02  0.33693137026E+02  0.00000000000E+00 0.  1.
         25    1    1    2    0    0 -0.89034954945E+02 -0.13333987417E+02  0.56716916431E+03  0.58771666589E+03  0.12500000000E+03 0.  0.
         25    1    1    2    0    0 -0.99697280726E+01  0.76982884715E+02  0.48890969665E+03  0.51057169084E+03  0.12500000000E+03 0.  0.
         25    1    1    2    0    0  0.99004683018E+02 -0.63648897297E+02  0.57283419884E+03  0.59801097711E+03  0.12500000000E+03 0.  0.
</event>
<event>
 5    0  0.5547141E-005  0.3657926E+03  0.7546771E-02  0.1056314E+00
         21   -1    0    0  502  501  0.00000000000E+00  0.00000000000E+00  0.81482857047E+03  0.81482857047E+03  0.00000000000E+00 0.  1.
         21   -1    0    0  501  502 -0.00000000000E+00 -0.00000000000E+00 -0.16421147098E+03  0.16421147098E+03  0.00000000000E+00 0.  1.
         25    1    1    2    0    0  0.18308080583E+03 -0.52191548601E+02  0.34535523567E+03  0.41368802015E+03  0.12500000000E+03 0.  0.
         25    1    1    2    0    0  0.56359573552E+01  0.50144169013E+02 -0.50271854828E+02  0.14386959752E+03  0.12500000000E+03 0.  0.
         25    1    1    2    0    0 -0.18871676319E+03  0.20473795878E+01  0.35553371864E+03  0.42148242379E+03  0.12500000000E+03 0.  0.
</event>
<event>
 5    0  0.5547141E-005  0.3752238E+03  0.7546771E-02  0.1052713E+00
         21   -1    0    0  502  501  0.00000000000E+00  0.00000000000E+00  0.72652140123E+03  0.72652140123E+03  0.00000000000E+00 0.  1.
         21   -1    0    0  501  502 -0.00000000000E+00 -0.00000000000E+00 -0.19379044518E+03  0.19379044518E+03  0.00000000000E+00 0.  1.
         25    1    1    2    0    0  0.62899873589E+02  0.87262057305E+02  0.20233881943E+03  0.26103076177E+03  0.12500000000E+03 0.  0.
         25    1    1    2    0    0  0.51073733160E+02 -0.18115713736E+03  0.39521128798E+03  0.45523993320E+03  0.12500000000E+03 0.  0.
         25    1    1    2    0    0 -0.11397360675E+03  0.93895080056E+02 -0.64819151367E+02  0.20404115143E+03  0.12500000000E+03 0.  0.
</event>
<event>
 5    0  0.5547141E-005  0.4140651E+03  0.7546771E-02  0.1039015E+00
         21   -1    0    0  502  501  0.00000000000E+00  0.00000000000E+00  0.15692218946E+03  0.15692218946E+03  0.00000000000E+00 0.  1.
         21   -1    0    0  501  502 -0.00000000000E+00 -0.00000000000E+00 -0.10925788682E+04  0.10925788682E+04  0.00000000000E+00 0.  1.
         25    1    1    2    0    0 -0.29897945730E+00 -0.27772591115E+03 -0.34828686408E+03  0.46266673838E+03  0.12500000000E+03 0.  0.
         25    1    1    2    0    0 -0.12732727878E+03  0.21386403094E+02 -0.35349329701E+03  0.39655028078E+03  0.12500000000E+03 0.  0.
         25    1    1    2    0    0  0.12762625824E+03  0.25633950806E+03 -0.23387651763E+03  0.39028403847E+03  0.12500000000E+03 0.  0.
</event>
<event>
 5    0  0.5547141E-005  0.2377540E+03  0.7546771E-02  0.1121298E+00
         21   -1    0    0  502  501  0.00000000000E+00  0.00000000000E+00  0.29439825500E+03  0.29439825500E+03  0.00000000000E+00 0. -1.
         21   -1    0    0  501  502 -0.00000000000E+00 -0.00000000000E+00 -0.19200846320E+03  0.19200846320E+03  0.00000000000E+00 0. -1.
         25    1    1    2    0    0  0.15027644008E+02 -0.15183821188E+02 -0.80812377659E+02  0.15037293271E+03  0.12500000000E+03 0.  0.
         25    1    1    2    0    0 -0.10356202344E+02  0.49976683939E+01  0.15367381731E+02  0.12646495182E+03  0.12500000000E+03 0.  0.
         25    1    1    2    0    0 -0.46714416637E+01  0.10186152794E+02  0.16783478772E+03  0.20956883367E+03  0.12500000000E+03 0.  0.
</event>
<event>
 5    0  0.5779006E-005  0.3367042E+03  0.7546771E-02  0.1068208E+00
         21   -1    0    0  502  501  0.00000000000E+00  0.00000000000E+00  0.19175115361E+03  0.19175115361E+03  0.00000000000E+00 0.  1.
         21   -1    0    0  501  502 -0.00000000000E+00 -0.00000000000E+00 -0.59123349014E+03  0.59123349014E+03  0.00000000000E+00 0.  1.
         25    1    1    2    0    0 -0.74353166022E+01  0.99776504284E+02 -0.27649499221E+03  0.31950761408E+03  0.12500000000E+03 0.  0.
         25    1    1    2    0    0 -0.17221236301E+03 -0.39526533873E+02 -0.88688363338E+02  0.23390183977E+03  0.12500000000E+03 0.  0.
         25    1    1    2    0    0  0.17964767961E+03 -0.60249970411E+02 -0.34298980988E+02  0.22957518991E+03  0.12500000000E+03 0.  0.
</event>
<event>
 5    0  0.5547141E-005  0.4474128E+03  0.7546771E-02  0.1028496E+00
         21   -1    0    0  502  501  0.00000000000E+00  0.00000000000E+00  0.23010680729E+03  0.23010680729E+03  0.00000000000E+00 0. -1.
         21   -1    0    0  501  502 -0.00000000000E+00 -0.00000000000E+00 -0.86993621092E+03  0.86993621092E+03  0.00000000000E+00 0. -1.
         25    1    1    2    0    0 -0.33220649727E+02  0.76421117619E+02 -0.11601783823E+02  0.15067647519E+03  0.12500000000E+03 0.  0.
         25    1    1    2    0    0  0.15953053977E+03 -0.24674010946E+03 -0.62654261537E+03  0.70321499103E+03  0.12500000000E+03 0.  0.
         25    1    1    2    0    0 -0.12630989005E+03  0.17031899184E+03 -0.16850044400E+01  0.24615155199E+03  0.12500000000E+03 0.  0.
</event>
<event>
 5    0  0.5547141E-005  0.2430138E+03  0.7546771E-02  0.1117801E+00
         21   -1    0    0  502  501  0.00000000000E+00  0.00000000000E+00  0.33830514403E+03  0.33830514403E+03  0.00000000000E+00 0. -1.
         21   -1    0    0  501  502 -0.00000000000E+00 -0.00000000000E+00 -0.17456343045E+03  0.17456343045E+03  0.00000000000E+00 0. -1.
         25    1    1    2    0    0 -0.31452059741E+02 -0.24375976604E+02  0.35624180774E+02  0.13593197767E+03  0.12500000000E+03 0.  0.
         25    1    1    2    0    0  0.14527833127E+02  0.72897534852E+02  0.18066768857E+03  0.23192870072E+03  0.12500000000E+03 0.  0.
         25    1    1    2    0    0  0.16924226614E+02 -0.48521558248E+02 -0.52550155760E+02  0.14500789610E+03  0.12500000000E+03 0.  0.
</event>
<event>
 5    0  0.6108345E-005  0.3712837E+03  0.7546771E-02  0.1054203E+00
         21   -1    0    0  502  501  0.00000000000E+00  0.00000000000E+00  0.28639377589E+03  0.28639377589E+03  0.00000000000E+00 0.  1.
         21   -1    0    0  501  502 -0.00000000000E+00 -0.00000000000E+00 -0.48133588693E+03  0.48133588693E+03  0.00000000000E+00 0.  1.
         25    1    1    2    0    0 -0.17904808516E+03 -0.61592927509E+02 -0.42998696222E+02  0.23092378266E+03  0.12500000000E+03 0.  0.
         25    1    1    2    0    0  0.44159698238E+02  0.16267448460E+03  0.79485245809E+02  0.22440136183E+03  0.12500000000E+03 0.  0.
         25    1    1    2    0    0  0.13488838692E+03 -0.10108155710E+03 -0.23142866063E+03  0.31240451833E+03  0.12500000000E+03 0.  0.
</event>
<event>
 5    0  0.5547141E-005  0.2443691E+03  0.7546771E-02  0.1116916E+00
         21   -1    0    0  502  501  0.00000000000E+00  0.00000000000E+00  0.61174662258E+03  0.61174662258E+03  0.00000000000E+00 0.  1.
         21   -1    0    0  501  502 -0.00000000000E+00 -0.00000000000E+00 -0.97615972011E+02  0.97615972011E+02  0.00000000000E+00 0.  1.
         25    1    1    2    0    0  0.13452449134E+03 -0.81987404671E+01  0.20608857068E+03  0.27615495121E+03  0.12500000000E+03 0.  0.
         25    1    1    2    0    0 -0.56050721158E+02 -0.39291338321E+02  0.19408704600E+03  0.24079093428E+03  0.12500000000E+03 0.  0.
         25    1    1    2    0    0 -0.78473770179E+02  0.47490078788E+02  0.11395503390E+03  0.19241670910E+03  0.12500000000E+03 0.  0.
</event>
<event>
 5    0  0.5547141E-005  0.3187682E+03  0.7546771E-02  0.1076218E+00
         21   -1    0    0  502  501  0.00000000000E+00  0.00000000000E+00  0.61124380211E+03  0.61124380211E+03  0.00000000000E+00 0. -1.
         21   -1    0    0  501  502 -0.00000000000E+00 -0.00000000000E+00 -0.16624002060E+03  0.16624002060E+03  0.00000000000E+00 0. -1.
         25    1    1    2    0    0  0.13788577704E+02 -0.81419934468E+02  0.45511228319E+02  0.15657459087E+03  0.12500000000E+03 0.  0.
         25    1    1    2    0    0 -0.10215367401E+03 -0.13220912431E+03  0.21635354690E+03  0.30058024373E+03  0.12500000000E+03 0.  0.
         25    1    1    2    0    0  0.88365096310E+02  0.21362905878E+03  0.18313900629E+03  0.32032898811E+03  0.12500000000E+03 0.  0.
</event>
<event>
 5    0  0.5547141E-005  0.2373631E+03  0.7546771E-02  0.1121562E+00
         21   -1    0    0  502  501  0.00000000000E+00  0.00000000000E+00  0.77192046295E+03  0.77192046295E+03  0.00000000000E+00 0. -1.
         21   -1    0    0  501  502 -0.00000000000E+00 -0.00000000000E+00 -0.72988411173E+02  0.72988411173E+02  0.00000000000E+00 0. -1.
         25    1    1    2    0    0 -0.76234906385E+02 -0.12180053364E+02  0.16252882740E+03  0.21909069900E+03  0.12500000000E+03 0.  0.
         25    1    1    2    0    0  0.26856131208E+02 -0.48297408585E+02  0.11247313706E+03  0.17700027689E+03  0.12500000000E+03 0.  0.
         25    1    1    2    0    0  0.49378775176E+02  0.60477461949E+02  0.42393008733E+03  0.44881789824E+03  0.12500000000E+03 0.  0.
</event>
<event>
 5    0  0.5547141E-005  0.2195258E+03  0.7546771E-02  0.1134237E+00
         21   -1    0    0  502  501  0.00000000000E+00  0.00000000000E+00  0.13618346546E+03  0.13618346546E+03  0.00000000000E+00 0. -1.
         21   -1    0    0  501  502 -0.00000000000E+00 -0.00000000000E+00 -0.35387252311E+03  0.35387252311E+03  0.00000000000E+00 0. -1.
         25    1    1    2    0    0 -0.36611080601E+02  0.71847606510E+02 -0.12231896766E+02  0.14925504709E+03  0.12500000000E+03 0.  0.
         25    1    1    2    0    0  0.72698299196E+01 -0.49121859069E+02 -0.65801261715E+02  0.14973514453E+03  0.12500000000E+03 0.  0.
         25    1    1    2    0    0  0.29341250682E+02 -0.22725747440E+02 -0.13965589917E+03  0.19106579694E+03  0.12500000000E+03 0.  0.
</event>
<event>
 5    0  0.5547141E-005  0.4457539E+03  0.7546771E-02  0.1028996E+00
         21   -1    0    0  502  501  0.00000000000E+00  0.00000000000E+00  0.61610460619E+03  0.61610460619E+03  0.00000000000E+00 0.  1.
         21   -1    0    0  501  502 -0.00000000000E+00 -0.00000000000E+00 -0.32250460923E+03  0.32250460923E+03  0.00000000000E+00 0.  1.
         25    1    1    2    0    0 -0.16011095698E+03  0.57621321257E+02  0.25462951476E+03  0.33078229245E+03  0.12500000000E+03 0.  0.
         25    1    1    2    0    0  0.15020768538E+03  0.11168065677E+03 -0.19153769419E+03  0.29554459248E+03  0.12500000000E+03 0.  0.
         25    1    1    2    0    0  0.99032715990E+01 -0.16930197803E+03  0.23050817639E+03  0.31228233049E+03  0.12500000000E+03 0.  0.
</event>
<event>
 5    0  0.5547141E-005  0.2807298E+03  0.7546771E-02  0.1095291E+00
         21   -1    0    0  502  501  0.00000000000E+00  0.00000000000E+00  0.57181316239E+03  0.57181316239E+03  0.00000000000E+00 0.  1.
         21   -1    0    0  501  502 -0.00000000000E+00 -0.00000000000E+00 -0.13782337368E+03  0.13782337368E+03  0.00000000000E+00 0.  1.
         25    1    1    2    0    0 -0.89045731097E+02  0.10929778846E+03  0.22036885499E+03  0.28993547737E+03  0.12500000000E+03 0.  0.
         25    1    1    2    0    0  0.14634010729E+03 -0.33557376115E+02  0.71791633984E+02  0.20813592483E+03  0.12500000000E+03 0.  0.
         25    1    1    2    0    0 -0.57294376192E+02 -0.75740412341E+02  0.14182929974E+03  0.21156513387E+03  0.12500000000E+03 0.  0.
</event>
<event>
 5    0  0.5547141E-005  0.2671066E+03  0.7546771E-02  0.1102947E+00
         21   -1    0    0  502  501  0.00000000000E+00  0.00000000000E+00  0.18000742450E+03  0.18000742450E+03  0.00000000000E+00 0. -1.
         21   -1    0    0  501  502 -0.00000000000E+00 -0.00000000000E+00 -0.39635008754E+03  0.39635008754E+03  0.00000000000E+00 0. -1.
         25    1    1    2    0    0  0.10881931086E+03  0.21179996944E+02  0.54832625173E+02  0.17584610166E+03  0.12500000000E+03 0.  0.
         25    1    1    2    0    0 -0.20670286764E+02  0.35435163286E+02 -0.11625678285E+03  0.17556637238E+03  0.12500000000E+03 0.  0.
         25    1    1    2    0    0 -0.88149024096E+02 -0.56615160230E+02 -0.15491850536E+03  0.22494503800E+03  0.12500000000E+03 0.  0.
</event>
<event>
 5    0  0.5547141E-005  0.2987796E+03  0.7546771E-02  0.1085852E+00
         21   -1    0    0  502  501  0.00000000000E+00  0.00000000000E+00  0.44128653260E+03  0.44128653260E+03  0.00000000000E+00 0.  1.
         21   -1    0    0  501  502 -0.00000000000E+00 -0.00000000000E+00 -0.20229315233E+03  0.20229315233E+03  0.00000000000E+00 0.  1.
         25    1    1    2    0    0 -0.53515743533E+02  0.11459279930E+03  0.14303800131E+02  0.17839574870E+03  0.12500000000E+03 0.  0.
         25    1    1    2    0    0  0.95964539750E+02 -0.78423283506E+02  0.26886037931E+03  0.32135697884E+03  0.12500000000E+03 0.  0.
         25    1    1    2    0    0 -0.42448796216E+02 -0.36169515791E+02 -0.44170799164E+02  0.14382695739E+03  0.12500000000E+03 0.  0.
</event>
<event>
 5    0  0.5547141E-005  0.3590859E+03  0.7546771E-02  0.1058946E+00
         21   -1    0    0  502  501  0.00000000000E+00  0.00000000000E+00  0.42332159495E+03  0.42332159495E+03  0.00000000000E+00 0. -1.
         21   -1    0    0  501  502 -0.00000000000E+00 -0.00000000000E+00 -0.30459744652E+03  0.30459744652E+03  0.00000000000E+00 0. -1.
         25    1    1    2    0    0 -0.21558501664E+02 -0.11392907255E+03 -0.17259107530E+03  0.24260519747E+03  0.12500000000E+03 0.  0.
         25    1    1    2    0    0 -0.46666244233E+02  0.16312330973E+03  0.25410413317E+03  0.33012249700E+03  0.12500000000E+03 0.  0.
         25    1    1    2    0    0  0.68224745897E+02 -0.49194237183E+02  0.37211090563E+02  0.15519134701E+03  0.12500000000E+03 0.  0.
</event>
<event>
 5    0  0.5547141E-005  0.3936275E+03  0.7546771E-02  0.1046009E+00
         21   -1    0    0  502  501  0.00000000000E+00  0.00000000000E+00  0.10174124416E+04  0.10174124416E+04  0.00000000000E+00 0. -1.
         21   -1    0    0  501  502 -0.00000000000E+00 -0.00000000000E+00 -0.15229085696E+03  0.15229085696E+03  0.00000000000E+00 0. -1.
         25    1    1    2    0    0 -0.12725587003E+03 -0.93027370829E+02  0.12056001670E+03  0.23453755735E+03  0.12500000000E+03 0.  0.
         25    1    1    2    0    0 -0.18108831031E+03  0.49758788718E+02  0.35963969784E+03  0.42454048741E+03  0.12500000000E+03 0.  0.
         25    1    1    2    0    0  0.30834418034E+03  0.43268582111E+02  0.38492187011E+03  0.51062525382E+03  0.12500000000E+03 0.  0.
</event>
<event>
 5    0  0.5547141E-005  0.2474558E+03  0.7546771E-02  0.1114923E+00
         21   -1    0    0  502  501  0.00000000000E+00  0.00000000000E+00  0.47747894952E+03  0.47747894952E+03  0.00000000000E+00 0.  1.
         21   -1    0    0  501  502 -0.00000000000E+00 -0.00000000000E+00 -0.12824520286E+03  0.12824520286E+03  0.00000000000E+00 0.  1.
         25    1    1    2    0    0 -0.38838001794E+02  0.70017563793E+02  0.12510747920E+02  0.14897103221E+03  0.12500000000E+03 0.  0.
         25    1    1    2    0    0 -0.63567316090E+01  0.33540350476E+01  0.55063323872E+02  0.13677948393E+03  0.12500000000E+03 0.  0.
         25    1    1    2    0    0  0.45194733403E+02 -0.73371598840E+02  0.28165967487E+03  0.31997363625E+03  0.12500000000E+03 0.  0.
</event>
<event>
 5    0  0.5547141E-005  0.2300893E+03  0.7546771E-02  0.1126577E+00
         21   -1    0    0  502  501  0.00000000000E+00  0.00000000000E+00  0.65195855379E+02  0.65195855379E+02  0.00000000000E+00 0.  1.
         21   -1    0    0  501  502 -0.00000000000E+00 -0.00000000000E+00 -0.81203138004E+03  0.81203138004E+03  0.00000000000E+00 0.  1.
         25    1    1    2    0    0 -0.98782029289E+02  0.10717788823E+02 -0.33794432302E+03  0.37377015098E+03  0.12500000000E+03 0.  0.
         25    1    1    2    0    0  0.84698728948E+02 -0.35945765443E+02 -0.15697761488E+03  0.22075539475E+03  0.12500000000E+03 0.  0.
         25    1    1    2    0    0  0.14083300340E+02  0.25227976620E+02 -0.25191358676E+03  0.28270168968E+03  0.12500000000E+03 0.  0.
</event>
<event>
 5    0  0.5547141E-005  0.2818491E+03  0.7546771E-02  0.1094683E+00
         21   -1    0    0  502  501  0.00000000000E+00  0.00000000000E+00  0.32746653272E+03  0.32746653272E+03  0.00000000000E+00 0.  1.
         21   -1    0    0  501  502 -0.00000000000E+00 -0.00000000000E+00 -0.24258635733E+03  0.24258635733E+03  0.00000000000E+00 0.  1.
         25    1    1    2    0    0  0.69340650401E+02 -0.11086840199E+02  0.91584345195E+02  0.17012858698E+03  0.12500000000E+03 0.  0.
         25    1    1    2    0    0  0.72699273820E+02 -0.83301679939E+02 -0.67339926711E+02  0.17995560570E+03  0.12500000000E+03 0.  0.
         25    1    1    2    0    0 -0.14203992422E+03  0.94388520138E+02  0.60635756904E+02  0.21996869737E+03  0.12500000000E+03 0.  0.
</event>
<event>
 5    0  0.5547141E-005  0.2701646E+03  0.7546771E-02  0.1101185E+00
         21   -1    0    0  502  501  0.00000000000E+00  0.00000000000E+00  0.84104272474E+03  0.84104272474E+03  0.00000000000E+00 0. -1.
         21   -1    0    0  501  502 -0.00000000000E+00 -0.00000000000E+00 -0.86783854380E+02  0.86783854380E+02  0.00000000000E+00 0. -1.
         25    1    1    2    0    0  0.84163598702E+02 -0.16670292336E+02  0.19670783538E+03  0.24835535527E+03  0.12500000000E+03 0.  0.
         25    1    1    2    0    0 -0.16827824481E+03  0.61647351237E+02  0.40613832516E+03  0.46118467316E+03  0.12500000000E+03 0.  0.
         25    1    1    2    0    0  0.84114646110E+02 -0.44977058901E+02  0.15141270983E+03  0.21828655070E+03  0.12500000000E+03 0.  0.
</event>
<event>
 5    0  0.5547141E-005  0.4252374E+03  0.7546771E-02  0.1035375E+00
         21   -1    0    0  502  501  0.00000000000E+00  0.00000000000E+00  0.40542143648E+03  0.40542143648E+03  0.00000000000E+00 0.  1.
         21   -1    0    0  501  502 -0.00000000000E+00 -0.00000000000E+00 -0.44602189808E+03  0.44602189808E+03  0.00000000000E+00 0.  1.
         25    1    1    2    0    0 -0.16844702678E+03  0.72870597884E+02 -0.19729804438E+02  0.22293225439E+03  0.12500000000E+03 0.  0.
         25    1    1    2    0    0  0.35525373904E+03 -0.82187319642E+02 -0.84709135271E+02  0.39466519002E+03  0.12500000000E+03 0.  0.
         25    1    1    2    0    0 -0.18680671227E+03  0.93167217575E+01  0.63838478117E+02  0.23384589015E+03  0.12500000000E+03 0.  0.
</event>
<event>
 5    0  0.5547141E-005  0.2589107E+03  0.7546771E-02  0.1107799E+00
         21   -1    0    0  502  501  0.00000000000E+00  0.00000000000E+00  0.26501562134E+03  0.26501562134E+03  0.00000000000E+00 0. -1.
         21   -1    0    0  501  502 -0.00000000000E+00 -0.00000000000E+00 -0.25294649326E+03  0.25294649326E+03  0.00000000000E+00 0. -1.
         25    1    1    2    0    0  0.11220946050E+03  0.27170662262E+02  0.74866384802E+02  0.18590100453E+03  0.12500000000E+03 0.  0.
         25    1    1    2    0    0 -0.98084526695E+01 -0.52704989904E+02  0.36328120390E+02  0.14077909659E+03  0.12500000000E+03 0.  0.
         25    1    1    2    0    0 -0.10240100783E+03  0.25534327643E+02 -0.99125377108E+02  0.19128201348E+03  0.12500000000E+03 0.  0.
</event>
<event>
 5    0  0.5547141E-005  0.4228233E+03  0.7546771E-02  0.1036151E+00
         21   -1    0    0  502  501  0.00000000000E+00  0.00000000000E+00  0.51851091653E+03  0.51851091653E+03  0.00000000000E+00 0.  1.
         21   -1    0    0  501  502 -0.00000000000E+00 -0.00000000000E+00 -0.34479418035E+03  0.34479418035E+03  0.00000000000E+00 0.  1.
         25    1    1    2    0    0 -0.35959236168E+01  0.10724782033E+02 -0.11872669943E+03  0.17276857577E+03  0.12500000000E+03 0.  0.
         25    1    1    2    0    0  0.20752518873E+02  0.21579413158E+03 -0.55775783253E+02  0.25638586596E+03  0.12500000000E+03 0.  0.
         25    1    1    2    0    0 -0.17156595257E+02 -0.22651891361E+03  0.34821921886E+03  0.43415065515E+03  0.12500000000E+03 0.  0.
</event>
<event>
 5    0  0.5547141E-005  0.3011523E+03  0.7546771E-02  0.1084666E+00
         21   -1    0    0  502  501  0.00000000000E+00  0.00000000000E+00  0.73616523032E+03  0.73616523032E+03  0.00000000000E+00 0.  1.
         21   -1    0    0  501  502 -0.00000000000E+00 -0.00000000000E+00 -0.12319613017E+03  0.12319613017E+03  0.00000000000E+00 0.  1.
         25    1    1    2    0    0  0.30550682373E+02  0.84587920207E+02  0.49906412164E+03  0.52228197169E+03  0.12500000000E+03 0.  0.
         25    1    1    2    0    0 -0.39200850064E+00 -0.12842590947E+03  0.84226497020E+02  0.19802138949E+03  0.12500000000E+03 0.  0.
         25    1    1    2    0    0 -0.30158673873E+02  0.43837989262E+02  0.29678481486E+02  0.13905799932E+03  0.12500000000E+03 0.  0.
</event>
<event>
 5    0  0.5547141E-005  0.2896439E+03  0.7546771E-02  0.1090535E+00
         21   -1    0    0  502  501  0.00000000000E+00  0.00000000000E+00  0.59271455857E+02  0.59271455857E+02  0.00000000000E+00 0. -1.
         21   -1    0    0  501  502 -0.00000000000E+00 -0.00000000000E+00 -0.14154125857E+04  0.14154125857E+04  0.00000000000E+00 0. -1.
         25    1    1    2    0    0 -0.44066087949E+02 -0.37822668988E+02 -0.67273919202E+03  0.68671347364E+03  0.12500000000E+03 0.  0.
         25    1    1    2    0    0 -0.85913146878E+02 -0.49511504295E+02 -0.46485521527E+03  0.49147515607E+03  0.12500000000E+03 0.  0.
         25    1    1    2    0    0  0.12997923483E+03  0.87334173283E+02 -0.21854672253E+03  0.29649541183E+03  0.12500000000E+03 0.  0.
</event>
<event>
 5    0  0.5547141E-005  0.2940632E+03  0.7546771E-02  0.1088247E+00
         21   -1    0    0  502  501  0.00000000000E+00  0.00000000000E+00  0.24835085318E+03  0.24835085318E+03  0.00000000000E+00 0. -1.
         21   -1    0    0  501  502 -0.00000000000E+00 -0.00000000000E+00 -0.34818951186E+03  0.34818951186E+03  0.00000000000E+00 0. -1.
         25    1    1    2    0    0  0.96157446017E+02 -0.41750141852E+02 -0.19991361753E+03  0.25803058587E+03  0.12500000000E+03 0.  0.
         25    1    1    2    0    0 -0.10662071811E+03  0.90977255447E+02  0.46304339900E+02  0.19342680898E+03  0.12500000000E+03 0.  0.
         25    1    1    2    0    0  0.10463272088E+02 -0.49227113595E+02  0.53770618951E+02  0.14508297019E+03  0.12500000000E+03 0.  0.
</event>
<event>
 5    0  0.5547141E-005  0.2663859E+03  0.7546771E-02  0.1103366E+00
         21   -1    0    0  502  501  0.00000000000E+00  0.00000000000E+00  0.66000347507E+02  0.66000347507E+02  0.00000000000E+00 0. -1.
         21   -1    0    0  501  502 -0.00000000000E+00 -0.00000000000E+00 -0.10751680254E+04  0.10751680254E+04  0.00000000000E+00 0. -1.
         25    1    1    2    0    0  0.40968455093E+02 -0.62356292013E+02 -0.47406056723E+03  0.49590840169E+03  0.12500000000E+03 0.  0.
         25    1    1    2    0    0  0.44102705977E+02 -0.74897585143E+02 -0.27761001546E+03  0.31661809427E+03  0.12500000000E+03 0.  0.
         25    1    1    2    0    0 -0.85071161070E+02  0.13725387716E+03 -0.25749709517E+03  0.32864187691E+03  0.12500000000E+03 0.  0.
</event>
<event>
 5    0  0.5547141E-005  0.2220794E+03  0.7546771E-02  0.1132342E+00
         21   -1    0    0  502  501  0.00000000000E+00  0.00000000000E+00  0.77402807904E+03  0.77402807904E+03  0.00000000000E+00 0. -1.
         21   -1    0    0  501  502 -0.00000000000E+00 -0.00000000000E+00 -0.63717660382E+02  0.63717660382E+02  0.00000000000E+00 0. -1.
         25    1    1    2    0    0  0.22375518236E+02  0.28660218557E+02  0.17602302251E+03  0.21893189900E+03  0.12500000000E+03 0.  0.
         25    1    1    2    0    0 -0.22688907689E+02  0.20473214803E+02  0.42979030153E+03  0.44864088350E+03  0.12500000000E+03 0.  0.
         25    1    1    2    0    0  0.31338945307E+00 -0.49133433360E+02  0.10449709462E+03  0.17017295693E+03  0.12500000000E+03 0.  0.
</event>
<event>
 5    0  0.5547141E-005  0.3119014E+03  0.7546771E-02  0.1079438E+00
         21   -1    0    0  502  501  0.00000000000E+00  0.00000000000E+00  0.25991671421E+03  0.25991671421E+03  0.00000000000E+00 0. -1.
         21   -1    0    0  501  502 -0.00000000000E+00 -0.00000000000E+00 -0.37428335064E+03  0.37428335064E+03  0.00000000000E+00 0. -1.
         25    1    1    2    0    0 -0.16568330181E+02 -0.16939458212E+03 -0.85999374610E+02  0.22801299623E+03  0.12500000000E+03 0.  0.
         25    1    1    2    0    0  0.54378272614E+02  0.12838180946E+03  0.10533057366E+03  0.21484509602E+03  0.12500000000E+03 0.  0.
         25    1    1    2    0    0 -0.37809942432E+02  0.41012772659E+02 -0.13369783548E+03  0.19134197260E+03  0.12500000000E+03 0.  0.
</event>
<event>
 5    0  0.5547141E-005  0.3524094E+03  0.7546771E-02  0.1061630E+00
         21   -1    0    0  502  501  0.00000000000E+00  0.00000000000E+00  0.11251896604E+03  0.11251896604E+03  0.00000000000E+00 0. -1.
         21   -1    0    0  501  502 -0.00000000000E+00 -0.00000000000E+00 -0.11037461466E+04  0.11037461466E+04  0.00000000000E+00 0. -1.
         25    1    1    2    0    0  0.11520269232E+03 -0.76952198124E+02 -0.75018551155E+01  0.18674736663E+03  0.12500000000E+03 0.  0.
         25    1    1    2    0    0 -0.47992662450E+02 -0.13889579227E+02 -0.46665031798E+03  0.48567863380E+03  0.12500000000E+03 0.  0.
         25    1    1    2    0    0 -0.67210029868E+02  0.90841777351E+02 -0.51707500745E+03  0.54383911219E+03  0.12500000000E+03 0.  0.
</event>
<event>
 5    0  0.5547141E-005  0.4878416E+03  0.7546771E-02  0.1017002E+00
         21   -1    0    0  502  501  0.00000000000E+00  0.00000000000E+00  0.22096233310E+04  0.22096233310E+04  0.00000000000E+00 0. -1.
         21   -1    0    0  501  502 -0.00000000000E+00 -0.00000000000E+00 -0.10770589678E+03  0.10770589678E+03  0.00000000000E+00 0. -1.
         25    1    1    2    0    0  0.21180271434E+03  0.12500378996E+03  0.31463210521E+03  0.41845513372E+03  0.12500000000E+03 0.  0.
         25    1    1    2    0    0  0.10000608382E+02 -0.25270140270E+03  0.13341899226E+04  0.13636882931E+04  0.12500000000E+03 0.  0.
         25    1    1    2    0    0 -0.22180332272E+03  0.12769761274E+03  0.45309540632E+03  0.53518580091E+03  0.12500000000E+03 0.  0.
</event>
<event>
 5    0  0.5547141E-005  0.3228985E+03  0.7546771E-02  0.1074323E+00
         21   -1    0    0  502  501  0.00000000000E+00  0.00000000000E+00  0.10958512962E+03  0.10958512962E+03  0.00000000000E+00 0.  1.
         21   -1    0    0  501  502 -0.00000000000E+00 -0.00000000000E+00 -0.95143796915E+03  0.95143796915E+03  0.00000000000E+00 0.  1.
         25    1    1    2    0    0 -0.22293841848E+02  0.92703415927E+01 -0.21531605297E+03  0.25013787655E+03  0.12500000000E+03 0.  0.
         25    1    1    2    0    0 -0.13015429082E+03 -0.17693883544E+03 -0.35499011004E+03  0.43576423572E+03  0.12500000000E+03 0.  0.
         25    1    1    2    0    0  0.15244813267E+03  0.16766849384E+03 -0.27154667652E+03  0.37512098650E+03  0.12500000000E+03 0.  0.
</event>
<event>
 5    0  0.5547141E-005  0.2543737E+03  0.7546771E-02  0.1110572E+00
         21   -1    0    0  502  501  0.00000000000E+00  0.00000000000E+00  0.10580252881E+04  0.10580252881E+04  0.00000000000E+00 0. -1.
         21   -1    0    0  501  502 -0.00000000000E+00 -0.00000000000E+00 -0.61157325216E+02  0.61157325216E+02  0.00000000000E+00 0. -1.
         25    1    1    2    0    0 -0.84856368114E+02 -0.28211644942E+02  0.34190282933E+03  0.37485869981E+03  0.12500000000E+03 0.  0.
         25    1    1    2    0    0 -0.34760602045E+02  0.96777716693E+02  0.37145568062E+03  0.40518952179E+03  0.12500000000E+03 0.  0.
         25    1    1    2    0    0  0.11961697016E+03 -0.68566071751E+02  0.28350945296E+03  0.33913439175E+03  0.12500000000E+03 0.  0.
</event>
<event>
 5    0  0.5547141E-005  0.3949545E+03  0.7546771E-02  0.1045541E+00
         21   -1    0    0  502  501  0.00000000000E+00  0.00000000000E+00  0.42053030232E+03  0.42053030232E+03  0.00000000000E+00 0. -1.
         21   -1    0    0  501  502 -0.00000000000E+00 -0.00000000000E+00 -0.37093410587E+03  0.37093410587E+03  0.00000000000E+00 0. -1.
         25    1    1    2    0    0 -0.20738687085E+03  0.27883342488E+02  0.18082942686E+02  0.24441519553E+03  0.12500000000E+03 0.  0.
         25    1    1    2    0    0  0.31883856726E+03 -0.10363579690E+03 -0.12591296276E+02  0.35802507051E+03  0.12500000000E+03 0.  0.
         25    1    1    2    0    0 -0.11145169641E+03  0.75752454408E+02  0.44104550045E+02  0.18902414215E+03  0.12500000000E+03 0.  0.
</event>
<event>
 5    0  0.5638125E-005  0.3616294E+03  0.7546771E-02  0.1057941E+00
         21   -1    0    0  502  501  0.00000000000E+00  0.00000000000E+00  0.56746690907E+02  0.56746690907E+02  0.00000000000E+00 0.  1.
         21   -1    0    0  501  502 -0.00000000000E+00 -0.00000000000E+00 -0.23045538444E+04  0.23045538444E+04  0.00000000000E+00 0.  1.
         25    1    1    2    0    0  0.84625574168E+02 -0.12102035317E+03 -0.29320624131E+03  0.35128665449E+03  0.12500000000E+03 0.  0.
         25    1    1    2    0    0 -0.12814641602E+03  0.20733016303E+03 -0.82188937352E+03  0.86633390950E+03  0.12500000000E+03 0.  0.
         25    1    1    2    0    0  0.43520841855E+02 -0.86309809865E+02 -0.11327115387E+04  0.11436799713E+04  0.12500000000E+03 0.  0.
</event>
<event>
 5    0  0.5547141E-005  0.2770072E+03  0.7546771E-02  0.1097335E+00
         21   -1    0    0  502  501  0.00000000000E+00  0.00000000000E+00  0.68697980269E+03  0.68697980269E+03  0.00000000000E+00 0.  1.
         21   -1    0    0  501  502 -0.00000000000E+00 -0.00000000000E+00 -0.11169609910E+03  0.11169609910E+03  0.00000000000E+00 0.  1.
         25    1    1    2    0    0 -0.55410263551E+02 -0.16193173068E+03  0.14415029680E+03  0.25631326687E+03  0.12500000000E+03 0.  0.
         25    1    1    2    0    0  0.14061057082E+02  0.11980364858E+03  0.15178782889E+03  0.23068414019E+03  0.12500000000E+03 0.  0.
         25    1    1    2    0    0  0.41349206470E+02  0.42128082105E+02  0.27934557790E+03  0.31167849472E+03  0.12500000000E+03 0.  0.
</event>
<event>
 5    0  0.5547141E-005  0.2267562E+03  0.7546771E-02  0.1128944E+00
         21   -1    0    0  502  501  0.00000000000E+00  0.00000000000E+00  0.17544115597E+03  0.17544115597E+03  0.00000000000E+00 0. -1.
         21   -1    0    0  501  502 -0.00000000000E+00 -0.00000000000E+00 -0.29308051580E+03  0.29308051580E+03  0.00000000000E+00 0. -1.
         25    1    1    2    0    0  0.18071259171E+02  0.19320471495E+02 -0.60692936177E+02  0.14145134686E+03  0.12500000000E+03 0.  0.
         25    1    1    2    0    0 -0.97133402602E+02 -0.50759798447E+02 -0.22038709587E+01  0.16625676554E+03  0.12500000000E+03 0.  0.
         25    1    1    2    0    0  0.79062143432E+02  0.31439326952E+02 -0.54742552689E+02  0.16081355937E+03  0.12500000000E+03 0.  0.
</event>
<event>
 5    0  0.5547141E-005  0.3428845E+03  0.7546771E-02  0.1065574E+00
         21   -1    0    0  502  501  0.00000000000E+00  0.00000000000E+00  0.80007276751E+03  0.80007276751E+03  0.00000000000E+00 0. -1.
         21   -1    0    0  501  502 -0.00000000000E+00 -0.00000000000E+00 -0.14694888536E+03  0.14694888536E+03  0.00000000000E+00 0. -1.
         25    1    1    2    0    0 -0.53003568378E+02  0.16692938975E+03  0.10972569623E+03  0.24153576927E+03  0.12500000000E+03 0.  0.
         25    1    1    2    0    0 -0.13434661086E+03 -0.82237134838E+02  0.18143695441E+03  0.27084373100E+03  0.12500000000E+03 0.  0.
         25    1    1    2    0    0  0.18735017924E+03 -0.84692254910E+02  0.36196123151E+03  0.43464215260E+03  0.12500000000E+03 0.  0.
</event>
<event>
 5    0  0.5547141E-005  0.2677927E+03  0.7546771E-02  0.1102550E+00
         21   -1    0    0  502  501  0.00000000000E+00  0.00000000000E+00  0.48276769004E+03  0.48276769004E+03  0.00000000000E+00 0.  1.
         21   -1    0    0  501  502 -0.00000000000E+00 -0.00000000000E+00 -0.14854543680E+03  0.14854543680E+03  0.00000000000E+00 0.  1.
         25    1    1    2    0    0 -0.93680111890E+02 -0.16134628620E+02  0.18755102522E+03  0.24461536474E+03  0.12500000000E+03 0.  0.
         25    1    1    2    0    0  0.10309970458E+03  0.10477648091E+03  0.12910924003E+03  0.23216773225E+03  0.12500000000E+03 0.  0.
         25    1    1    2    0    0 -0.94195926901E+01 -0.88641852288E+02  0.17561987988E+02  0.15453002985E+03  0.12500000000E+03 0.  0.
</event>
<event>
 5    0  0.5547141E-005  0.3650971E+03  0.7546771E-02  0.1056584E+00
         21   -1    0    0  502  501  0.00000000000E+00  0.00000000000E+00  0.18672564958E+03  0.18672564958E+03  0.00000000000E+00 0. -1.
         21   -1    0    0  501  502 -0.00000000000E+00 -0.00000000000E+00 -0.71385951647E+03  0.71385951647E+03  0.00000000000E+00 0. -1.
         25    1    1    2    0    0 -0.25833358587E+02 -0.61079635241E+02 -0.30527699962E+03  0.33647753380E+03  0.12500000000E+03 0.  0.
         25    1    1    2    0    0 -0.15104049390E+03  0.18390396262E+03 -0.99024672254E+02  0.28646951667E+03  0.12500000000E+03 0.  0.
         25    1    1    2    0    0  0.17687385248E+03 -0.12282432738E+03 -0.12283219502E+03  0.27763811558E+03  0.12500000000E+03 0.  0.
</event>
<event>
 5    0  0.5547141E-005  0.2996950E+03  0.7546771E-02  0.1085393E+00
         21   -1    0    0  502  501  0.00000000000E+00  0.00000000000E+00  0.21396721707E+03  0.21396721707E+03  0.00000000000E+00 0.  1.
         21   -1    0    0  501  502 -0.00000000000E+00 -0.00000000000E+00 -0.41977021480E+03  0.41977021480E+03  0.00000000000E+00 0.  1.
         25    1    1    2    0    0 -0.79192014449E+02  0.56804286448E+02 -0.13375158006E+03  0.20739476194E+03  0.12500000000E+03 0.  0.
         25    1    1    2    0    0  0.14711097745E+03 -0.87886537031E+02 -0.15131504003E+03  0.26055119347E+03  0.12500000000E+03 0.  0.
         25    1    1    2    0    0 -0.67918963000E+02  0.31082250584E+02  0.79263622365E+02  0.16579147646E+03  0.12500000000E+03 0.  0.
</event>
<event>
 5    0  0.5547141E-005  0.4907174E+03  0.7546771E-02  0.1016231E+00
         21   -1    0    0  502  501  0.00000000000E+00  0.00000000000E+00  0.20546471471E+04  0.20546471471E+04  0.00000000000E+00 0.  1.
         21   -1    0    0  501  502 -0.00000000000E+00 -0.00000000000E+00 -0.11719949759E+03  0.11719949759E+03  0.00000000000E+00 0.  1.
         25    1    1    2    0    0 -0.22705673514E+03  0.25585202380E+03  0.59576044044E+03  0.69826250182E+03  0.12500000000E+03 0.  0.
         25    1    1    2    0    0 -0.30453218242E+02 -0.76026351106E+01  0.70026828951E+02  0.14667636256E+03  0.12500000000E+03 0.  0.
         25    1    1    2    0    0  0.25750995338E+03 -0.24824938869E+03  0.12716603801E+04  0.13269077803E+04  0.12500000000E+03 0.  0.
</event>
<event>
 5    0  0.5547141E-005  0.2840162E+03  0.7546771E-02  0.1093515E+00
         21   -1    0    0  502  501  0.00000000000E+00  0.00000000000E+00  0.82511470175E+02  0.82511470175E+02  0.00000000000E+00 0. -1.
         21   -1    0    0  501  502 -0.00000000000E+00 -0.00000000000E+00 -0.97762437327E+03  0.97762437327E+03  0.00000000000E+00 0. -1.
         25    1    1    2    0    0 -0.80707005172E+02  0.38409103909E+02 -0.83819811514E+02  0.17504182571E+03  0.12500000000E+03 0.  0.
         25    1    1    2    0    0  0.75957710195E+02 -0.11353670771E+03 -0.29258621846E+03  0.34625402953E+03  0.12500000000E+03 0.  0.
         25    1    1    2    0    0  0.47492949771E+01  0.75127603803E+02 -0.51870687312E+03  0.53883998819E+03  0.12500000000E+03 0.  0.
</event>
<event>
 5    0  0.5547141E-005  0.2933018E+03  0.7546771E-02  0.1088638E+00
         21   -1    0    0  502  501  0.00000000000E+00  0.00000000000E+00  0.76054150845E+03  0.76054150845E+03  0.00000000000E+00 0.  1.
         21   -1    0    0  501  502 -0.00000000000E+00 -0.00000000000E+00 -0.11311145139E+03  0.11311145139E+03  0.00000000000E+00 0.  1.
         25    1    1    2    0    0 -0.65790738918E+02  0.11581805127E+03  0.19849681071E+03  0.26975586405E+03  0.12500000000E+03 0.  0.
         25    1    1    2    0    0 -0.82983740018E+02 -0.24525702433E+02  0.67815689712E+02  0.16646855246E+03  0.12500000000E+03 0.  0.
         25    1    1    2    0    0  0.14877447894E+03 -0.91292348832E+02  0.38111755665E+03  0.43742854333E+03  0.12500000000E+03 0.  0.
</event>
<event>
 5    0  0.5547141E-005  0.2922820E+03  0.7546771E-02  0.1089164E+00
         21   -1    0    0  502  501  0.00000000000E+00  0.00000000000E+00  0.91700338528E+02  0.91700338528E+02  0.00000000000E+00 0. -1.
         21   -1    0    0  501  502 -0.00000000000E+00 -0.00000000000E+00 -0.93160828717E+03  0.93160828717E+03  0.00000000000E+00 0. -1.
         25    1    1    2    0    0 -0.15279089142E+03  0.38624558391E+02 -0.20073077604E+03  0.28417381558E+03  0.12500000000E+03 0.  0.
         25    1    1    2    0    0  0.10278051816E+02  0.21196294387E+02 -0.92040137461E+02  0.15700735062E+03  0.12500000000E+03 0.  0.
         25    1    1    2    0    0  0.14251283960E+03 -0.59820852778E+02 -0.54713703515E+03  0.58212745950E+03  0.12500000000E+03 0.  0.
</event>
<event>
 5    0  0.5547141E-005  0.3480590E+03  0.7546771E-02  0.1063415E+00
         21   -1    0    0  502  501  0.00000000000E+00  0.00000000000E+00  0.27195289141E+03  0.27195289141E+03  0.00000000000E+00 0.  1.
         21   -1    0    0  501  502 -0.00000000000E+00 -0.00000000000E+00 -0.44546345359E+03  0.44546345359E+03  0.00000000000E+00 0.  1.
         25    1    1    2    0    0 -0.20910652777E+02 -0.41928710734E+02 -0.21150092396E+03  0.25010580365E+03  0.12500000000E+03 0.  0.
         25    1    1    2    0    0  0.13937472353E+02  0.20429080291E+02 -0.17670210659E+03  0.21785370075E+03  0.12500000000E+03 0.  0.
         25    1    1    2    0    0  0.69731804233E+01  0.21499630443E+02  0.21469246836E+03  0.24945684060E+03  0.12500000000E+03 0.  0.
</event>
<event>
 5    0  0.5547141E-005  0.3224134E+03  0.7546771E-02  0.1074544E+00
         21   -1    0    0  502  501  0.00000000000E+00  0.00000000000E+00  0.16318659654E+04  0.16318659654E+04  0.00000000000E+00 0. -1.
         21   -1    0    0  501  502 -0.00000000000E+00 -0.00000000000E+00 -0.63700338932E+02  0.63700338932E+02  0.00000000000E+00 0. -1.
         25    1    1    2    0    0  0.10802507581E+03  0.14410208006E+03  0.30849716890E+03  0.37845783081E+03  0.12500000000E+03 0.  0.
         25    1    1    2    0    0 -0.13868586428E+03 -0.17089557503E+03  0.84619008503E+03  0.88323367606E+03  0.12500000000E+03 0.  0.
         25    1    1    2    0    0  0.30660788465E+02  0.26793494975E+02  0.41347837255E+03  0.43387479748E+03  0.12500000000E+03 0.  0.
</event>
<event>
 5    0  0.5547141E-005  0.2198620E+03  0.7546771E-02  0.1133986E+00
         21   -1    0    0  502  501  0.00000000000E+00  0.00000000000E+00  0.23216199118E+03  0.23216199118E+03  0.00000000000E+00 0. -1.
         21   -1    0    0  501  502 -0.00000000000E+00 -0.00000000000E+00 -0.20821364568E+03  0.20821364568E+03  0.00000000000E+00 0. -1.
         25    1    1    2    0    0 -0.35588095639E+02  0.46155644827E+01  0.67433709159E+02  0.14649273401E+03  0.12500000000E+03 0.  0.
         25    1    1    2    0    0  0.71360679909E+02 -0.49247106482E+02 -0.10338306594E+02  0.15247788271E+03  0.12500000000E+03 0.  0.
         25    1    1    2    0    0 -0.35772584270E+02  0.44631541999E+02 -0.33147057074E+02  0.14140502013E+03  0.12500000000E+03 0.  0.
</event>
<event>
 5    0  0.5621040E-005  0.2870655E+03  0.7546771E-02  0.1091891E+00
         21   -1    0    0  502  501  0.00000000000E+00  0.00000000000E+00  0.14705249228E+03  0.14705249228E+03  0.00000000000E+00 0. -1.
         21   -1    0    0  501  502 -0.00000000000E+00 -0.00000000000E+00 -0.56038897953E+03  0.56038897953E+03  0.00000000000E+00 0. -1.
         25    1    1    2    0    0  0.12014141549E+03 -0.47301793414E+02 -0.44916918025E+02  0.18524024644E+03  0.12500000000E+03 0.  0.
         25    1    1    2    0    0 -0.37967240585E+02 -0.78282575973E+02 -0.25307749933E+03  0.29536908052E+03  0.12500000000E+03 0.  0.
         25    1    1    2    0    0 -0.82174174904E+02  0.12558436939E+03 -0.11534206990E+03  0.22683214486E+03  0.12500000000E+03 0.  0.
</event>
<event>
 5    0  0.5547141E-005  0.4668641E+03  0.7546771E-02  0.1022809E+00
         21   -1    0    0  502  501  0.00000000000E+00  0.00000000000E+00  0.15616119311E+04  0.15616119311E+04  0.00000000000E+00 0.  1.
         21   -1    0    0  501  502 -0.00000000000E+00 -0.00000000000E+00 -0.13957506761E+03  0.13957506761E+03  0.00000000000E+00 0.  1.
         25    1    1    2    0    0  0.24783890443E+03 -0.11068434506E+03  0.27921349055E+03  0.40897471816E+03  0.12500000000E+03 0.  0.
         25    1    1    2    0    0 -0.12129898840E+03  0.48205515480E+02  0.10777142523E+04  0.10927626577E+04  0.12500000000E+03 0.  0.
         25    1    1    2    0    0 -0.12653991603E+03  0.62478829577E+02  0.65109120656E+02  0.19944962293E+03  0.12500000000E+03 0.  0.
</event>
<event>
 5    0  0.5547141E-005  0.2658570E+03  0.7546771E-02  0.1103674E+00
         21   -1    0    0  502  501  0.00000000000E+00  0.00000000000E+00  0.12870199832E+04  0.12870199832E+04  0.00000000000E+00 0. -1.
         21   -1    0    0  501  502 -0.00000000000E+00 -0.00000000000E+00 -0.54917526615E+02  0.54917526615E+02  0.00000000000E+00 0. -1.
         25    1    1    2    0    0 -0.57020073263E+02 -0.20367281979E+02  0.35934371587E+03  0.38525189301E+03  0.12500000000E+03 0.  0.
         25    1    1    2    0    0  0.21131409778E+02  0.13193730793E+03  0.65224687591E+03  0.67742525553E+03  0.12500000000E+03 0.  0.
         25    1    1    2    0    0  0.35888663485E+02 -0.11157002595E+03  0.22051186479E+03  0.27926036126E+03  0.12500000000E+03 0.  0.
</event>
<event>
 5    0  0.5547141E-005  0.2509602E+03  0.7546771E-02  0.1112699E+00
         21   -1    0    0  502  501  0.00000000000E+00  0.00000000000E+00  0.75945250769E+03  0.75945250769E+03  0.00000000000E+00 0.  1.
         21   -1    0    0  501  502 -0.00000000000E+00 -0.00000000000E+00 -0.82929514660E+02  0.82929514660E+02  0.00000000000E+00 0.  1.
         25    1    1    2    0    0 -0.48334076128E+02 -0.37297137199E+02  0.42949308689E+02  0.14559156045E+03  0.12500000000E+03 0.  0.
         25    1    1    2    0    0  0.32717668308E+02 -0.48033000155E+02  0.30195254932E+03  0.33193065084E+03  0.12500000000E+03 0.  0.
         25    1    1    2    0    0  0.15616407820E+02  0.85330137355E+02  0.33162113502E+03  0.36485981106E+03  0.12500000000E+03 0.  0.
</event>
<event>
 5    0  0.5547141E-005  0.2666402E+03  0.7546771E-02  0.1103218E+00
         21   -1    0    0  502  501  0.00000000000E+00  0.00000000000E+00  0.59523112718E+02  0.59523112718E+02  0.00000000000E+00 0. -1.
         21   -1    0    0  501  502 -0.00000000000E+00 -0.00000000000E+00 -0.11944436686E+04  0.11944436686E+04  0.00000000000E+00 0. -1.
         25    1    1    2    0    0 -0.56295577071E+01 -0.11714091170E+03 -0.67012797210E+03  0.69170093546E+03  0.12500000000E+03 0.  0.
         25    1    1    2    0    0  0.26971395696E+02 -0.11785797485E+02 -0.13617471773E+03  0.18717616022E+03  0.12500000000E+03 0.  0.
         25    1    1    2    0    0 -0.21341837989E+02  0.12892670918E+03 -0.32861786609E+03  0.37508968568E+03  0.12500000000E+03 0.  0.
</event>
<event>
 5    0  0.5547141E-005  0.2259703E+03  0.7546771E-02  0.1129509E+00
         21   -1    0    0  502  501  0.00000000000E+00  0.00000000000E+00  0.19267456995E+03  0.19267456995E+03  0.00000000000E+00 0. -1.
         21   -1    0    0  501  502 -0.00000000000E+00 -0.00000000000E+00 -0.26501980469E+03  0.26501980469E+03  0.00000000000E+00 0. -1.
         25    1    1    2    0    0 -0.13410362650E+02  0.40652211601E+02 -0.32345063743E+02  0.13602809740E+03  0.12500000000E+03 0.  0.
         25    1    1    2    0    0  0.32461821570E+01  0.74020076721E+02 -0.43548873390E+02  0.15169381606E+03  0.12500000000E+03 0.  0.
         25    1    1    2    0    0  0.10164180493E+02 -0.11467228832E+03  0.35487023925E+01  0.16997246119E+03  0.12500000000E+03 0.  0.
</event>
<event>
 5    0  0.5547141E-005  0.2965774E+03  0.7546771E-02  0.1086964E+00
         21   -1    0    0  502  501  0.00000000000E+00  0.00000000000E+00  0.18741628509E+03  0.18741628509E+03  0.00000000000E+00 0.  1.
         21   -1    0    0  501  502 -0.00000000000E+00 -0.00000000000E+00 -0.46931973076E+03  0.46931973076E+03  0.00000000000E+00 0.  1.
         25    1    1    2    0    0 -0.12397064050E+03  0.10939022925E+03  0.35931290994E+02  0.21035921571E+03  0.12500000000E+03 0.  0.
         25    1    1    2    0    0  0.81448922092E+02 -0.96224421734E+02 -0.14994140552E+03  0.23238005796E+03  0.12500000000E+03 0.  0.
         25    1    1    2    0    0  0.42521718409E+02 -0.13165807520E+02 -0.16789333114E+03  0.21399674219E+03  0.12500000000E+03 0.  0.
</event>
<event>
 5    0  0.5547141E-005  0.3139481E+03  0.7546771E-02  0.1078469E+00
         21   -1    0    0  502  501  0.00000000000E+00  0.00000000000E+00  0.15767716147E+03  0.15767716147E+03  0.00000000000E+00 0. -1.
         21   -1    0    0  501  502 -0.00000000000E+00 -0.00000000000E+00 -0.62509633576E+03  0.62509633576E+03  0.00000000000E+00 0. -1.
         25    1    1    2    0    0 -0.16319629407E+03 -0.18280568428E+02  0.13223043793E+02  0.20680197888E+03  0.12500000000E+03 0.  0.
         25    1    1    2    0    0  0.33429010843E+02 -0.22299138268E+02 -0.22652556165E+03  0.26182738668E+03  0.12500000000E+03 0.  0.
         25    1    1    2    0    0  0.12976728323E+03  0.40579706696E+02 -0.25411665643E+03  0.31414413167E+03  0.12500000000E+03 0.  0.
</event>
<event>
 5    0  0.5547141E-005  0.2810833E+03  0.7546771E-02  0.1095099E+00
         21   -1    0    0  502  501  0.00000000000E+00  0.00000000000E+00  0.91287893172E+02  0.91287893172E+02  0.00000000000E+00 0.  1.
         21   -1    0    0  501  502 -0.00000000000E+00 -0.00000000000E+00 -0.86548002950E+03  0.86548002950E+03  0.00000000000E+00 0.  1.
         25    1    1    2    0    0 -0.11743545595E+03 -0.81111252851E+02 -0.30107577987E+03  0.35586759740E+03  0.12500000000E+03 0.  0.
         25    1    1    2    0    0  0.59746966521E+02 -0.65121591772E+02 -0.11940741790E+03  0.19414853379E+03  0.12500000000E+03 0.  0.
         25    1    1    2    0    0  0.57688489429E+02  0.14623284462E+03 -0.35370893856E+03  0.40675179149E+03  0.12500000000E+03 0.  0.
</event>
<event>
 5    0  0.5547141E-005  0.2537055E+03  0.7546771E-02  0.1110985E+00
         21   -1    0    0  502  501  0.00000000000E+00  0.00000000000E+00  0.49947312326E+03  0.49947312326E+03  0.00000000000E+00 0. -1.
         21   -1    0    0  501  502 -0.00000000000E+00 -0.00000000000E+00 -0.12886871068E+03  0.12886871068E+03  0.00000000000E+00 0. -1.
         25    1    1    2    0    0 -0.74968111863E+02  0.96950047490E+02  0.18733811709E+03  0.25639832219E+03  0.12500000000E+03 0.  0.
         25    1    1    2    0    0  0.10127638824E+02 -0.31761336308E+02 -0.31340803008E+01  0.12940700913E+03  0.12500000000E+03 0.  0.
         25    1    1    2    0    0  0.64840473039E+02 -0.65188711182E+02  0.18640037579E+03  0.24253650262E+03  0.12500000000E+03 0.  0.
</event>
<event>
 5    0  0.5547141E-005  0.2551499E+03  0.7546771E-02  0.1110093E+00
         21   -1    0    0  502  501  0.00000000000E+00  0.00000000000E+00  0.12525375744E+03  0.12525375744E+03  0.00000000000E+00 0. -1.
         21   -1    0    0  501  502 -0.00000000000E+00 -0.00000000000E+00 -0.51975660318E+03  0.51975660318E+03  0.00000000000E+00 0. -1.
         25    1    1    2    0    0  0.21325555758E+02  0.42003092585E+01 -0.25658645631E+02  0.12944415020E+03  0.12500000000E+03 0.  0.
         25    1    1    2    0    0  0.66191381186E+02  0.97263392257E+02 -0.13445378483E+03  0.21804652410E+03  0.12500000000E+03 0.  0.
         25    1    1    2    0    0 -0.87516936944E+02 -0.10146370152E+03 -0.23439041527E+03  0.29751968632E+03  0.12500000000E+03 0.  0.
</event>
<event>
 5    0  0.5547141E-005  0.2335385E+03  0.7546771E-02  0.1124174E+00
         21   -1    0    0  502  501  0.00000000000E+00  0.00000000000E+00  0.64155242810E+03  0.64155242810E+03  0.00000000000E+00 0.  1.
         21   -1    0    0  501  502 -0.00000000000E+00 -0.00000000000E+00 -0.85012918173E+02  0.85012918173E+02  0.00000000000E+00 0.  1.
         25    1    1    2    0    0  0.10346932462E+03 -0.41384906662E+02  0.28843364432E+03  0.33352298094E+03  0.12500000000E+03 0.  0.
         25    1    1    2    0    0 -0.31998823768E+02  0.45240990267E+02  0.88763890501E+02  0.16301748428E+03  0.12500000000E+03 0.  0.
         25    1    1    2    0    0 -0.71470500848E+02 -0.38560836047E+01  0.17934197510E+03  0.23002488106E+03  0.12500000000E+03 0.  0.
</event>
<event>
 5    0  0.5547141E-005  0.4063362E+03  0.7546771E-02  0.1041607E+00
         21   -1    0    0  502  501  0.00000000000E+00  0.00000000000E+00  0.14026897938E+03  0.14026897938E+03  0.00000000000E+00 0. -1.
         21   -1    0    0  501  502 -0.00000000000E+00 -0.00000000000E+00 -0.11770893805E+04  0.11770893805E+04  0.00000000000E+00 0. -1.
         25    1    1    2    0    0  0.94347946891E+02 -0.20665884773E+03 -0.51583408185E+03  0.57733804173E+03  0.12500000000E+03 0.  0.
         25    1    1    2    0    0  0.83242114552E+02  0.26122894073E+03 -0.31133346663E+03  0.43327051198E+03  0.12500000000E+03 0.  0.
         25    1    1    2    0    0 -0.17759006144E+03 -0.54570093000E+02 -0.20965285266E+03  0.30674980620E+03  0.12500000000E+03 0.  0.
</event>
<event>
 5    0  0.5547141E-005  0.4242565E+03  0.7546771E-02  0.1035690E+00
         21   -1    0    0  502  501  0.00000000000E+00  0.00000000000E+00  0.78143707454E+03  0.78143707454E+03  0.00000000000E+00 0. -1.
         21   -1    0    0  501  502 -0.00000000000E+00 -0.00000000000E+00 -0.23033664777E+03  0.23033664777E+03  0.00000000000E+00 0. -1.
         25    1    1    2    0    0 -0.18462524606E+03  0.19090805264E+03  0.30717251163E+03  0.42486741220E+03  0.12500000000E+03 0.  0.
         25    1    1    2    0    0  0.63423125327E+02 -0.57664358674E+00  0.29256068962E+03  0.32440650803E+03  0.12500000000E+03 0.  0.
         25    1    1    2    0    0  0.12120212073E+03 -0.19033140906E+03 -0.48632774478E+02  0.26249980209E+03  0.12500000000E+03 0.  0.
</event>
<event>
 5    0  0.5547141E-005  0.2670378E+03  0.7546771E-02  0.1102987E+00
         21   -1    0    0  502  501  0.00000000000E+00  0.00000000000E+00  0.23734212157E+03  0.23734212157E+03  0.00000000000E+00 0.  1.
         21   -1    0    0  501  502 -0.00000000000E+00 -0.00000000000E+00 -0.30044900538E+03  0.30044900538E+03  0.00000000000E+00 0.  1.
         25    1    1    2    0    0 -0.10210789993E+03  0.47083974178E+02  0.67467201362E+02  0.18116221216E+03  0.12500000000E+03 0.  0.
         25    1    1    2    0    0  0.11742874736E+03 -0.30659406640E+01 -0.14206980949E+03  0.22272795394E+03  0.12500000000E+03 0.  0.
         25    1    1    2    0    0 -0.15320847420E+02 -0.44018033514E+02  0.11495724324E+02  0.13390096085E+03  0.12500000000E+03 0.  0.
</event>
<event>
 5    0  0.5547141E-005  0.3628538E+03  0.7546771E-02  0.1057460E+00
         21   -1    0    0  502  501  0.00000000000E+00  0.00000000000E+00  0.12853018876E+04  0.12853018876E+04  0.00000000000E+00 0.  1.
         21   -1    0    0  501  502 -0.00000000000E+00 -0.00000000000E+00 -0.10243734505E+03  0.10243734505E+03  0.00000000000E+00 0.  1.
         25    1    1    2    0    0  0.32713655261E+02 -0.71699352207E+02  0.18115904911E+03  0.23378319320E+03  0.12500000000E+03 0.  0.
         25    1    1    2    0    0  0.20264060975E+03 -0.80142886987E+02  0.32324267933E+03  0.40938603884E+03  0.12500000000E+03 0.  0.
         25    1    1    2    0    0 -0.23535426501E+03  0.15184223919E+03  0.67846281407E+03  0.74457000056E+03  0.12500000000E+03 0.  0.
</event>
<event>
 5    0  0.5547141E-005  0.2584987E+03  0.7546771E-02  0.1108049E+00
         21   -1    0    0  502  501  0.00000000000E+00  0.00000000000E+00  0.41677045881E+02  0.41677045881E+02  0.00000000000E+00 0. -1.
         21   -1    0    0  501  502 -0.00000000000E+00 -0.00000000000E+00 -0.16033178621E+04  0.16033178621E+04  0.00000000000E+00 0. -1.
         25    1    1    2    0    0  0.24287967851E+02 -0.77566636656E+01 -0.97418441854E+03  0.98250208781E+03  0.12500000000E+03 0.  0.
         25    1    1    2    0    0 -0.52876909278E+02 -0.64022576194E+02 -0.37736290955E+03  0.40610666493E+03  0.12500000000E+03 0.  0.
         25    1    1    2    0    0  0.28588941427E+02  0.71779239860E+02 -0.21009348812E+03  0.25638615524E+03  0.12500000000E+03 0.  0.
</event>
<event>
 5    0  0.5547141E-005  0.2656589E+03  0.7546771E-02  0.1103790E+00
         21   -1    0    0  502  501  0.00000000000E+00  0.00000000000E+00  0.26926198569E+03  0.26926198569E+03  0.00000000000E+00 0.  1.
         21   -1    0    0  501  502 -0.00000000000E+00 -0.00000000000E+00 -0.26210410899E+03  0.26210410899E+03  0.00000000000E+00 0.  1.
         25    1    1    2    0    0  0.89865063059E+02  0.23679059098E+02 -0.13710611709E+03  0.20750786670E+03  0.12500000000E+03 0.  0.
         25    1    1    2    0    0 -0.13848102504E+02  0.15180196106E+02  0.11199160292E+03  0.16908378817E+03  0.12500000000E+03 0.  0.
         25    1    1    2    0    0 -0.76016960555E+02 -0.38859255204E+02  0.32272390879E+02  0.15477443982E+03  0.12500000000E+03 0.  0.
</event>
<event>
 5    0  0.5547141E-005  0.5606942E+03  0.7546771E-02  0.9990485E-01
         21   -1    0    0  502  501  0.00000000000E+00  0.00000000000E+00  0.32032744377E+03  0.32032744377E+03  0.00000000000E+00 0.  1.
         21   -1    0    0  501  502 -0.00000000000E+00 -0.00000000000E+00 -0.98142682832E+03  0.98142682832E+03  0.00000000000E+00 0.  1.
         25    1    1    2    0    0 -0.26377854838E+03  0.13549832505E+03 -0.48974958328E+02  0.32551876324E+03  0.12500000000E+03 0.  0.
         25    1    1    2    0    0  0.39283786963E+02  0.23137133051E+03 -0.73809915717E+02  0.27595074227E+03  0.12500000000E+03 0.  0.
         25    1    1    2    0    0  0.22449476141E+03 -0.36686965557E+03 -0.53831451050E+03  0.70028476658E+03  0.12500000000E+03 0.  0.
</event>
<event>
 5    0  0.5547141E-005  0.2852707E+03  0.7546771E-02  0.1092845E+00
         21   -1    0    0  502  501  0.00000000000E+00  0.00000000000E+00  0.31699225457E+03  0.31699225457E+03  0.00000000000E+00 0.  1.
         21   -1    0    0  501  502 -0.00000000000E+00 -0.00000000000E+00 -0.25672349166E+03  0.25672349166E+03  0.00000000000E+00 0.  1.
         25    1    1    2    0    0 -0.13136243696E+03  0.12960051201E+03  0.11349893629E+02  0.22317303297E+03  0.12500000000E+03 0.  0.
         25    1    1    2    0    0  0.77742086892E+02 -0.14011911103E+03 -0.64047803162E+01  0.20333031884E+03  0.12500000000E+03 0.  0.
         25    1    1    2    0    0  0.53620350070E+02  0.10518599012E+02  0.55323649590E+02  0.14721239442E+03  0.12500000000E+03 0.  0.
</event>
<event>
 5    0  0.5547141E-005  0.4177531E+03  0.7546771E-02  0.1037800E+00
         21   -1    0    0  502  501  0.00000000000E+00  0.00000000000E+00  0.33906951527E+04  0.33906951527E+04  0.00000000000E+00 0. -1.
         21   -1    0    0  501  502 -0.00000000000E+00 -0.00000000000E+00 -0.51469577563E+02  0.51469577563E+02  0.00000000000E+00 0. -1.
         25    1    1    2    0    0 -0.60931705907E+02 -0.18538948967E+03  0.56004008382E+03  0.60609556272E+03  0.12500000000E+03 0.  0.
         25    1    1    2    0    0  0.24122807580E+03  0.14134128128E+03  0.10928234380E+04  0.11349257284E+04  0.12500000000E+03 0.  0.
         25    1    1    2    0    0 -0.18029636990E+03  0.44048208390E+02  0.16863620534E+04  0.17011434392E+04  0.12500000000E+03 0.  0.
</event>
<event>
 5    0  0.5547141E-005  0.2307456E+03  0.7546771E-02  0.1126116E+00
         21   -1    0    0  502  501  0.00000000000E+00  0.00000000000E+00  0.44009594699E+03  0.44009594699E+03  0.00000000000E+00 0.  1.
         21   -1    0    0  501  502 -0.00000000000E+00 -0.00000000000E+00 -0.12098161018E+03  0.12098161018E+03  0.00000000000E+00 0.  1.
         25    1    1    2    0    0 -0.60536984290E+02  0.73856658222E+02  0.17217261960E+03  0.23321222818E+03  0.12500000000E+03 0.  0.
         25    1    1    2    0    0  0.81238822600E+02 -0.73782671790E+02  0.80347626348E+02  0.18472782685E+03  0.12500000000E+03 0.  0.
         25    1    1    2    0    0 -0.20701838310E+02 -0.73986431950E-01  0.66594090855E+02  0.14313750214E+03  0.12500000000E+03 0.  0.
</event>
<event>
 5    0  0.5547141E-005  0.2714922E+03  0.7546771E-02  0.1100429E+00
         21   -1    0    0  502  501  0.00000000000E+00  0.00000000000E+00  0.42311077288E+03  0.42311077288E+03  0.00000000000E+00 0. -1.
         21   -1    0    0  501  502 -0.00000000000E+00 -0.00000000000E+00 -0.17420501479E+03  0.17420501479E+03  0.00000000000E+00 0. -1.
         25    1    1    2    0    0  0.16787451078E+03 -0.82850747042E-01  0.86161094939E+02  0.22634176043E+03  0.12500000000E+03 0.  0.
         25    1    1    2    0    0 -0.98021655369E+02  0.29089589302E+02  0.13395657500E+02  0.16204595881E+03  0.12500000000E+03 0.  0.
         25    1    1    2    0    0 -0.69852855407E+02 -0.29006738555E+02  0.14934900565E+03  0.20892806843E+03  0.12500000000E+03 0.  0.
</event>
<event>
 5    0  0.5547141E-005  0.3632215E+03  0.7546771E-02  0.1057316E+00
         21   -1    0    0  502  501  0.00000000000E+00  0.00000000000E+00  0.59175424064E+03  0.59175424064E+03  0.00000000000E+00 0. -1.
         21   -1    0    0  501  502 -0.00000000000E+00 -0.00000000000E+00 -0.22294707350E+03  0.22294707350E+03  0.00000000000E+00 0. -1.
         25    1    1    2    0    0  0.84851862915E+01  0.41141120616E+02  0.22958035746E+02  0.13385313443E+03  0.12500000000E+03 0.  0.
         25    1    1    2    0    0  0.21134105398E+03  0.86737646029E+02  0.29403952049E+03  0.39277563563E+03  0.12500000000E+03 0.  0.
         25    1    1    2    0    0 -0.21982624027E+03 -0.12787876664E+03  0.51809610898E+02  0.28807254408E+03  0.12500000000E+03 0.  0.
</event>
<event>
 5    0  0.5547141E-005  0.2797667E+03  0.7546771E-02  0.1095816E+00
         21   -1    0    0  502  501  0.00000000000E+00  0.00000000000E+00  0.19376160387E+03  0.19376160387E+03  0.00000000000E+00 0. -1.
         21   -1    0    0  501  502 -0.00000000000E+00 -0.00000000000E+00 -0.40394682364E+03  0.40394682364E+03  0.00000000000E+00 0. -1.
         25    1    1    2    0    0  0.12052502680E+03  0.13421521195E+02 -0.12137816109E+03  0.21228301229E+03  0.12500000000E+03 0.  0.
         25    1    1    2    0    0 -0.14441481960E+03  0.69673341773E+02 -0.11130007630E+03  0.23178162494E+03  0.12500000000E+03 0.  0.
         25    1    1    2    0    0  0.23889792795E+02 -0.83094862968E+02  0.22493017615E+02  0.15364379028E+03  0.12500000000E+03 0.  0.
</event>
<event>
 5    0  0.5547141E-005  0.2759248E+03  0.7546771E-02  0.1097936E+00
         21   -1    0    0  502  501  0.00000000000E+00  0.00000000000E+00  0.40018642608E+03  0.40018642608E+03  0.00000000000E+00 0.  1.
         21   -1    0    0  501  502 -0.00000000000E+00 -0.00000000000E+00 -0.19024759479E+03  0.19024759479E+03  0.00000000000E+00 0.  1.
         25    1    1    2    0    0 -0.68143581720E+02 -0.73591546762E+01  0.11461190053E+03  0.18291690089E+03  0.12500000000E+03 0.  0.
         25    1    1    2    0    0 -0.35661757428E+02  0.99261796315E+02 -0.49910909957E+02  0.17099931018E+03  0.12500000000E+03 0.  0.
         25    1    1    2    0    0  0.10380533915E+03 -0.91902641639E+02  0.14523784071E+03  0.23651780980E+03  0.12500000000E+03 0.  0.
</event>
<event>
 5    0  0.5547141E-005  0.6733315E+03  0.7546771E-02  0.9763958E-01
         21   -1    0    0  502  501  0.00000000000E+00  0.00000000000E+00  0.95879660597E+03  0.95879660597E+03  0.00000000000E+00 0.  1.
         21   -1    0    0  501  502 -0.00000000000E+00 -0.00000000000E+00 -0.47285867391E+03  0.47285867391E+03  0.00000000000E+00 0.  1.
         25    1    1    2    0    0 -0.14954751840E+02 -0.29289327806E+02  0.14667298263E+03  0.19549801319E+03  0.12500000000E+03 0.  0.
         25    1    1    2    0    0 -0.19187154868E+02 -0.11990913751E+03  0.75552911928E+03  0.77536804052E+03  0.12500000000E+03 0.  0.
         25    1    1    2    0    0  0.34141906709E+02  0.14919846532E+03 -0.41626416986E+03  0.46078922617E+03  0.12500000000E+03 0.  0.
</event>
<event>
 5    0  0.5547141E-005  0.2606036E+03  0.7546771E-02  0.1106781E+00
         21   -1    0    0  502  501  0.00000000000E+00  0.00000000000E+00  0.12042312231E+03  0.12042312231E+03  0.00000000000E+00 0. -1.
         21   -1    0    0  501  502 -0.00000000000E+00 -0.00000000000E+00 -0.56396329579E+03  0.56396329579E+03  0.00000000000E+00 0. -1.
         25    1    1    2    0    0 -0.10320935558E+02 -0.42856364252E+02 -0.13932619982E+02  0.13327530742E+03  0.12500000000E+03 0.  0.
         25    1    1    2    0    0  0.11441326837E+03  0.57396593277E+02 -0.18839736348E+03  0.25981403246E+03  0.12500000000E+03 0.  0.
         25    1    1    2    0    0 -0.10409233281E+03 -0.14540229025E+02 -0.24121019002E+03  0.29129707822E+03  0.12500000000E+03 0.  0.
</event>
<event>
 5    0  0.5547141E-005  0.3302671E+03  0.7546771E-02  0.1071019E+00
         21   -1    0    0  502  501  0.00000000000E+00  0.00000000000E+00  0.14150235541E+03  0.14150235541E+03  0.00000000000E+00 0. -1.
         21   -1    0    0  501  502 -0.00000000000E+00 -0.00000000000E+00 -0.77084462320E+03  0.77084462320E+03  0.00000000000E+00 0. -1.
         25    1    1    2    0    0 -0.81410470243E+02 -0.11293931502E+03  0.25443853862E+02  0.18882622498E+03  0.12500000000E+03 0.  0.
         25    1    1    2    0    0  0.11768191670E+02  0.28849427272E+01 -0.23203537860E+03  0.26384129728E+03  0.12500000000E+03 0.  0.
         25    1    1    2    0    0  0.69642278573E+02  0.11005437229E+03 -0.42275074305E+03  0.45967945633E+03  0.12500000000E+03 0.  0.
</event>
<event>
 5    0  0.5547141E-005  0.4762031E+03  0.7546771E-02  0.1020184E+00
         21   -1    0    0  502  501  0.00000000000E+00  0.00000000000E+00  0.69973205299E+02  0.69973205299E+02  0.00000000000E+00 0. -1.
         21   -1    0    0  501  502 -0.00000000000E+00 -0.00000000000E+00 -0.32408035895E+04  0.32408035895E+04  0.00000000000E+00 0. -1.
         25    1    1    2    0    0  0.14171985994E+03 -0.32648223368E+03 -0.12199778388E+04  0.12769675386E+04  0.12500000000E+03 0.  0.
         25    1    1    2    0    0  0.10747764917E+03  0.12585426797E+03 -0.47139954848E+03  0.51500803503E+03  0.12500000000E+03 0.  0.
         25    1    1    2    0    0 -0.24919750911E+03  0.20062796571E+03 -0.14794529969E+04  0.15188012211E+04  0.12500000000E+03 0.  0.
</event>
<event>
 5    0  0.5914961E-005  0.3476789E+03  0.7546771E-02  0.1063572E+00
         21   -1    0    0  502  501  0.00000000000E+00  0.00000000000E+00  0.15344598583E+03  0.15344598583E+03  0.00000000000E+00 0. -1.
         21   -1    0    0  501  502 -0.00000000000E+00 -0.00000000000E+00 -0.78777286701E+03  0.78777286701E+03  0.00000000000E+00 0. -1.
         25    1    1    2    0    0 -0.18079349677E+02 -0.12402626072E+03 -0.28010199448E+03  0.33134800972E+03  0.12500000000E+03 0.  0.
         25    1    1    2    0    0 -0.31501213874E+02 -0.22746287846E+02  0.64729946427E+02  0.14602974372E+03  0.12500000000E+03 0.  0.
         25    1    1    2    0    0  0.49580563550E+02  0.14677254857E+03 -0.41895483312E+03  0.46384109940E+03  0.12500000000E+03 0.  0.
</event>
<event>
 5    0  0.5547141E-005  0.2710584E+03  0.7546771E-02  0.1100675E+00
         21   -1    0    0  502  501  0.00000000000E+00  0.00000000000E+00  0.59537524289E+03  0.59537524289E+03  0.00000000000E+00 0. -1.
         21   -1    0    0  501  502 -0.00000000000E+00 -0.00000000000E+00 -0.12340563555E+03  0.12340563555E+03  0.00000000000E+00 0. -1.
         25    1    1    2    0    0  0.46808845131E+02  0.53279125371E+02  0.12013747695E+03  0.18731723506E+03  0.12500000000E+03 0.  0.
         25    1    1    2    0    0  0.10805897986E+03 -0.29679850464E+02  0.61731421667E+02  0.17886700387E+03  0.12500000000E+03 0.  0.
         25    1    1    2    0    0 -0.15486782499E+03 -0.23599274907E+02  0.29010070873E+03  0.35259663952E+03  0.12500000000E+03 0.  0.
</event>
<event>
 5    0  0.5547141E-005  0.4960925E+03  0.7546771E-02  0.1014804E+00
         21   -1    0    0  502  501  0.00000000000E+00  0.00000000000E+00  0.99666481483E+03  0.99666481483E+03  0.00000000000E+00 0. -1.
         21   -1    0    0  501  502 -0.00000000000E+00 -0.00000000000E+00 -0.24693133349E+03  0.24693133349E+03  0.00000000000E+00 0. -1.
         25    1    1    2    0    0 -0.30893404011E+03  0.17921704518E+03  0.53209878970E+03  0.65292657506E+03  0.12500000000E+03 0.  0.
         25    1    1    2    0    0  0.34723179163E+03 -0.11877390957E+03  0.22165993106E+03  0.44658177723E+03  0.12500000000E+03 0.  0.
         25    1    1    2    0    0 -0.38297751516E+02 -0.60443135603E+02 -0.40252394291E+01  0.14408779603E+03  0.12500000000E+03 0.  0.
</event>
<event>
 5    0  0.5547141E-005  0.2200130E+03  0.7546771E-02  0.1133873E+00
         21   -1    0    0  502  501  0.00000000000E+00  0.00000000000E+00  0.14466658997E+03  0.14466658997E+03  0.00000000000E+00 0.  1.
         21   -1    0    0  501  502 -0.00000000000E+00 -0.00000000000E+00 -0.33460182765E+03  0.33460182765E+03  0.00000000000E+00 0.  1.
         25    1    1    2    0    0  0.22262655499E+02  0.24661856961E+02 -0.44559549001E+01  0.12941672439E+03  0.12500000000E+03 0.  0.
         25    1    1    2    0    0 -0.65351268491E+02  0.10419782097E+01 -0.30124898816E+02  0.14423724741E+03  0.12500000000E+03 0.  0.
         25    1    1    2    0    0  0.43088612991E+02 -0.25703835171E+02 -0.15535438396E+03  0.20561444582E+03  0.12500000000E+03 0.  0.
</event>
<event>
 5    0  0.5547141E-005  0.3888467E+03  0.7546771E-02  0.1047712E+00
         21   -1    0    0  502  501  0.00000000000E+00  0.00000000000E+00  0.91714173273E+03  0.91714173273E+03  0.00000000000E+00 0.  1.
         21   -1    0    0  501  502 -0.00000000000E+00 -0.00000000000E+00 -0.16486193064E+03  0.16486193064E+03  0.00000000000E+00 0.  1.
         25    1    1    2    0    0 -0.13045591453E+03  0.28533139597E+02  0.50241970750E+03  0.53468069740E+03  0.12500000000E+03 0.  0.
         25    1    1    2    0    0  0.20377426564E+03 -0.16294378077E+03  0.14872733940E+03  0.32529901401E+03  0.12500000000E+03 0.  0.
         25    1    1    2    0    0 -0.73318351112E+02  0.13441064117E+03  0.10113275519E+03  0.22202395196E+03  0.12500000000E+03 0.  0.
</event>
<event>
 5    0  0.5547141E-005  0.4147079E+03  0.7546771E-02  0.1038803E+00
         21   -1    0    0  502  501  0.00000000000E+00  0.00000000000E+00  0.11428465760E+03  0.11428465760E+03  0.00000000000E+00 0. -1.
         21   -1    0    0  501  502 -0.00000000000E+00 -0.00000000000E+00 -0.15048621455E+04  0.15048621455E+04  0.00000000000E+00 0. -1.
         25    1    1    2    0    0 -0.89184016640E+02 -0.20358597257E+03 -0.56975550891E+03  0.62421741163E+03  0.12500000000E+03 0.  0.
         25    1    1    2    0    0  0.20567131497E+03  0.18435779335E+03 -0.23268051732E+03  0.38216973835E+03  0.12500000000E+03 0.  0.
         25    1    1    2    0    0 -0.11648729833E+03  0.19228179221E+02 -0.58814146169E+03  0.61275965313E+03  0.12500000000E+03 0.  0.
</event>
<event>
 5    0  0.5547141E-005  0.3365747E+03  0.7546771E-02  0.1068264E+00
         21   -1    0    0  502  501  0.00000000000E+00  0.00000000000E+00  0.55552333902E+03  0.55552333902E+03  0.00000000000E+00 0.  1.
         21   -1    0    0  501  502 -0.00000000000E+00 -0.00000000000E+00 -0.20392033594E+03  0.20392033594E+03  0.00000000000E+00 0.  1.
         25    1    1    2    0    0 -0.71359397942E+02 -0.17109056987E+03 -0.24937146562E+02  0.22496890463E+03  0.12500000000E+03 0.  0.
         25    1    1    2    0    0  0.89857320455E+02  0.18352125519E+02  0.71613748569E+02  0.17077665981E+03  0.12500000000E+03 0.  0.
         25    1    1    2    0    0 -0.18497922513E+02  0.15273844435E+03  0.30492640108E+03  0.36369811052E+03  0.12500000000E+03 0.  0.
</event>
<event>
 5    0  0.5547141E-005  0.4166414E+03  0.7546771E-02  0.1038165E+00
         21   -1    0    0  502  501  0.00000000000E+00  0.00000000000E+00  0.70405740753E+03  0.70405740753E+03  0.00000000000E+00 0. -1.
         21   -1    0    0  501  502 -0.00000000000E+00 -0.00000000000E+00 -0.24655662509E+03  0.24655662509E+03  0.00000000000E+00 0. -1.
         25    1    1    2    0    0  0.22751462759E+03  0.27021085359E+03  0.31642244889E+03  0.49043345861E+03  0.12500000000E+03 0.  0.
         25    1    1    2    0    0 -0.14600991854E+03 -0.12568612676E+03  0.86375035285E+02  0.24536003239E+03  0.12500000000E+03 0.  0.
         25    1    1    2    0    0 -0.81504709054E+02 -0.14452472683E+03  0.54703298271E+02  0.21482054163E+03  0.12500000000E+03 0.  0.
</event>
<event>
 5    0  0.5547141E-005  0.6389957E+03  0.7546771E-02  0.9827650E-01
         21   -1    0    0  502  501  0.00000000000E+00  0.00000000000E+00  0.19055565051E+04  0.19055565051E+04  0.00000000000E+00 0. -1.
         21   -1    0    0  501  502 -0.00000000000E+00 -0.00000000000E+00 -0.21427625566E+03  0.21427625566E+03  0.00000000000E+00 0. -1.
         25    1    1    2    0    0 -0.22157485429E+03 -0.17454467432E+03  0.10954347119E+02  0.30871711502E+03  0.12500000000E+03 0.  0.
         25    1    1    2    0    0  0.80419660760E+02 -0.13216493418E+03  0.18018775915E+03  0.26837943329E+03  0.12500000000E+03 0.  0.
         25    1    1    2    0    0  0.14115519353E+03  0.30670960849E+03  0.15001381431E+04  0.15427362124E+04  0.12500000000E+03 0.  0.
</event>
<event>
 5    0  0.5547141E-005  0.3579446E+03  0.7546771E-02  0.1059401E+00
         21   -1    0    0  502  501  0.00000000000E+00  0.00000000000E+00  0.10311837553E+03  0.10311837553E+03  0.00000000000E+00 0.  1.
         21   -1    0    0  501  502 -0.00000000000E+00 -0.00000000000E+00 -0.12424976353E+04  0.12424976353E+04  0.00000000000E+00 0.  1.
         25    1    1    2    0    0 -0.19033895863E+02 -0.15205512871E+03 -0.80340442598E+03  0.82738547427E+03  0.12500000000E+03 0.  0.
         25    1    1    2    0    0 -0.14554961843E+02 -0.43852294833E+02 -0.21787102955E+03  0.25539705596E+03  0.12500000000E+03 0.  0.
         25    1    1    2    0    0  0.33588857706E+02  0.19590742354E+03 -0.11810380429E+03  0.26283348064E+03  0.12500000000E+03 0.  0.
</event>
<event>
 5    0  0.5547141E-005  0.3619066E+03  0.7546771E-02  0.1057831E+00
         21   -1    0    0  502  501  0.00000000000E+00  0.00000000000E+00  0.95508726970E+03  0.95508726970E+03  0.00000000000E+00 0.  1.
         21   -1    0    0  501  502 -0.00000000000E+00 -0.00000000000E+00 -0.13713555013E+03  0.13713555013E+03  0.00000000000E+00 0.  1.
         25    1    1    2    0    0  0.25836793445E+02  0.85555523558E+02  0.43140823289E+03  0.45795780473E+03  0.12500000000E+03 0.  0.
         25    1    1    2    0    0  0.53271666336E+02  0.14947390123E+03  0.25955830647E+03  0.32890094564E+03  0.12500000000E+03 0.  0.
         25    1    1    2    0    0 -0.79108459782E+02 -0.23502942478E+03  0.12698518020E+03  0.30536406946E+03  0.12500000000E+03 0.  0.
</event>
<event>
 5    0  0.5886798E-005  0.3374150E+03  0.7546771E-02  0.1067902E+00
         21   -1    0    0  502  501  0.00000000000E+00  0.00000000000E+00  0.77280681483E+03  0.77280681483E+03  0.00000000000E+00 0.  1.
         21   -1    0    0  501  502 -0.00000000000E+00 -0.00000000000E+00 -0.14731864710E+03  0.14731864710E+03  0.00000000000E+00 0.  1.
         25    1    1    2    0    0  0.86860536986E+02 -0.10220795682E+03  0.66445065491E+02  0.19501580975E+03  0.12500000000E+03 0.  0.
         25    1    1    2    0    0  0.61658338236E+02  0.13939802279E+03  0.91143617230E+02  0.21717669855E+03  0.12500000000E+03 0.  0.
         25    1    1    2    0    0 -0.14851887522E+03 -0.37190065970E+02  0.46789948501E+03  0.50793295363E+03  0.12500000000E+03 0.  0.
</event>
<event>
 5    0  0.5547141E-005  0.2071040E+03  0.7546771E-02  0.1143880E+00
         21   -1    0    0  502  501  0.00000000000E+00  0.00000000000E+00  0.21304886022E+04  0.21304886022E+04  0.00000000000E+00 0. -1.
         21   -1    0    0  501  502 -0.00000000000E+00 -0.00000000000E+00 -0.20132493108E+02  0.20132493108E+02  0.00000000000E+00 0. -1.
         25    1    1    2    0    0 -0.25496051478E+02 -0.63048791027E+02  0.79762021503E+03  0.81021491353E+03  0.12500000000E+03 0.  0.
         25    1    1    2    0    0  0.35159636417E+02  0.36243921048E+00  0.57612174876E+03  0.59057395878E+03  0.12500000000E+03 0.  0.
         25    1    1    2    0    0 -0.96635849394E+01  0.62686351816E+02  0.73661414532E+03  0.74983222301E+03  0.12500000000E+03 0.  0.
</event>
<event>
 5    0  0.5547141E-005  0.2829203E+03  0.7546771E-02  0.1094105E+00
         21   -1    0    0  502  501  0.00000000000E+00  0.00000000000E+00  0.11348206060E+03  0.11348206060E+03  0.00000000000E+00 0. -1.
         21   -1    0    0  501  502 -0.00000000000E+00 -0.00000000000E+00 -0.70534384043E+03  0.70534384043E+03  0.00000000000E+00 0. -1.
         25    1    1    2    0    0 -0.91424782636E+02  0.13567311983E+03 -0.20868495782E+03  0.29315541603E+03  0.12500000000E+03 0.  0.
         25    1    1    2    0    0  0.57528944503E+02 -0.16874190155E+03 -0.29039223139E+03  0.36295462092E+03  0.12500000000E+03 0.  0.
         25    1    1    2    0    0  0.33895838133E+02  0.33068781718E+02 -0.92784590613E+02  0.16271586408E+03  0.12500000000E+03 0.  0.
</event>
<event>
 5    0  0.5547141E-005  0.2222718E+03  0.7546771E-02  0.1132201E+00
         21   -1    0    0  502  501  0.00000000000E+00  0.00000000000E+00  0.37731984667E+03  0.37731984667E+03  0.00000000000E+00 0.  1.
         21   -1    0    0  501  502 -0.00000000000E+00 -0.00000000000E+00 -0.13093603223E+03  0.13093603223E+03  0.00000000000E+00 0.  1.
         25    1    1    2    0    0 -0.29643086246E+02  0.58192220669E+02  0.82810216539E+02  0.16354687118E+03  0.12500000000E+03 0.  0.
         25    1    1    2    0    0 -0.38897742001E+02  0.31115123781E+02  0.61562774598E+02  0.14797351275E+03  0.12500000000E+03 0.  0.
         25    1    1    2    0    0  0.68540828247E+02 -0.89307344450E+02  0.10201082330E+03  0.19673549497E+03  0.12500000000E+03 0.  0.
</event>
<event>
 5    0  0.5547141E-005  0.2539647E+03  0.7546771E-02  0.1110825E+00
         21   -1    0    0  502  501  0.00000000000E+00  0.00000000000E+00  0.14198878182E+04  0.14198878182E+04  0.00000000000E+00 0. -1.
         21   -1    0    0  501  502 -0.00000000000E+00 -0.00000000000E+00 -0.45424774120E+02  0.45424774120E+02  0.00000000000E+00 0. -1.
         25    1    1    2    0    0 -0.14280900553E+02 -0.42829362678E+02  0.22210297509E+03  0.25883011798E+03  0.12500000000E+03 0.  0.
         25    1    1    2    0    0 -0.11192692654E+03  0.11127676124E+02  0.68914902405E+03  0.70936791541E+03  0.12500000000E+03 0.  0.
         25    1    1    2    0    0  0.12620782709E+03  0.31701686555E+02  0.46321104490E+03  0.49711455890E+03  0.12500000000E+03 0.  0.
</event>
<event>
 5    0  0.5547141E-005  0.2541402E+03  0.7546771E-02  0.1110716E+00
         21   -1    0    0  502  501  0.00000000000E+00  0.00000000000E+00  0.69730826101E+02  0.69730826101E+02  0.00000000000E+00 0.  1.
         21   -1    0    0  501  502 -0.00000000000E+00 -0.00000000000E+00 -0.92623666327E+03  0.92623666327E+03  0.00000000000E+00 0.  1.
         25    1    1    2    0    0  0.94756936538E+02 -0.49661641608E+02 -0.38559680258E+03  0.41923149909E+03  0.12500000000E+03 0.  0.
         25    1    1    2    0    0 -0.38898806722E+02 -0.29546575457E+02 -0.82949912167E+02  0.15777137007E+03  0.12500000000E+03 0.  0.
         25    1    1    2    0    0 -0.55858129816E+02  0.79208217064E+02 -0.38795912242E+03  0.41896462021E+03  0.12500000000E+03 0.  0.
</event>
<event>
 5    0  0.5547141E-005  0.3640902E+03  0.7546771E-02  0.1056976E+00
         21   -1    0    0  502  501  0.00000000000E+00  0.00000000000E+00  0.37958569407E+03  0.37958569407E+03  0.00000000000E+00 0. -1.
         21   -1    0    0  501  502 -0.00000000000E+00 -0.00000000000E+00 -0.34922729523E+03  0.34922729523E+03  0.00000000000E+00 0. -1.
         25    1    1    2    0    0 -0.16805473649E+03 -0.10256762215E+03 -0.99059515892E+02  0.25337777973E+03  0.12500000000E+03 0.  0.
         25    1    1    2    0    0  0.10751288361E+03 -0.90337434844E+02  0.14470184818E+03  0.23724143218E+03  0.12500000000E+03 0.  0.
         25    1    1    2    0    0  0.60541852888E+02  0.19290505699E+03 -0.15283933450E+02  0.23819377739E+03  0.12500000000E+03 0.  0.
</event>
<event>
 5    0  0.5547141E-005  0.2952315E+03  0.7546771E-02  0.1087649E+00
         21   -1    0    0  502  501  0.00000000000E+00  0.00000000000E+00  0.13635336679E+03  0.13635336679E+03  0.00000000000E+00 0. -1.
         21   -1    0    0  501  502 -0.00000000000E+00 -0.00000000000E+00 -0.63923350622E+03  0.63923350622E+03  0.00000000000E+00 0. -1.
         25    1    1    2    0    0  0.42889380814E+02  0.38345043738E+02 -0.18048189175E+03  0.22695496165E+03  0.12500000000E+03 0.  0.
         25    1    1    2    0    0 -0.58607987809E+02 -0.14306219736E+03 -0.13856200176E+02  0.19929546616E+03  0.12500000000E+03 0.  0.
         25    1    1    2    0    0  0.15718606995E+02  0.10471715363E+03 -0.30854204750E+03  0.34933644520E+03  0.12500000000E+03 0.  0.
</event>
<event>
 5    0  0.5547141E-005  0.2883856E+03  0.7546771E-02  0.1091195E+00
         21   -1    0    0  502  501  0.00000000000E+00  0.00000000000E+00  0.44243504142E+03  0.44243504142E+03  0.00000000000E+00 0. -1.
         21   -1    0    0  501  502 -0.00000000000E+00 -0.00000000000E+00 -0.18797389664E+03  0.18797389664E+03  0.00000000000E+00 0. -1.
         25    1    1    2    0    0  0.72167557388E+02 -0.13100916311E+03  0.89784006831E+02  0.21461063590E+03  0.12500000000E+03 0.  0.
         25    1    1    2    0    0  0.66425490226E+02  0.35801854140E+02 -0.51434678392E+01  0.14610124494E+03  0.12500000000E+03 0.  0.
         25    1    1    2    0    0 -0.13859304761E+03  0.95207308966E+02  0.16982060578E+03  0.26969705723E+03  0.12500000000E+03 0.  0.
</event>
<event>
 5    0  0.5547141E-005  0.4704533E+03  0.7546771E-02  0.1021792E+00
         21   -1    0    0  502  501  0.00000000000E+00  0.00000000000E+00  0.31787361658E+03  0.31787361658E+03  0.00000000000E+00 0. -1.
         21   -1    0    0  501  502 -0.00000000000E+00 -0.00000000000E+00 -0.69627154281E+03  0.69627154281E+03  0.00000000000E+00 0. -1.
         25    1    1    2    0    0  0.17101110392E+03 -0.99694386380E+02 -0.39825736599E+03  0.46197153365E+03  0.12500000000E+03 0.  0.
         25    1    1    2    0    0 -0.22467649459E+03  0.19467400313E+03  0.13564083379E+03  0.34985844353E+03  0.12500000000E+03 0.  0.
         25    1    1    2    0    0  0.53665390671E+02 -0.94979616752E+02 -0.11578139402E+03  0.20231518222E+03  0.12500000000E+03 0.  0.
</event>
<event>
 5    0  0.7625061E-005  0.3347696E+03  0.7546771E-02  0.1069046E+00
         21   -1    0    0  502  501  0.00000000000E+00  0.00000000000E+00  0.31643658029E+03  0.31643658029E+03  0.00000000000E+00 0.  1.
         21   -1    0    0  501  502 -0.00000000000E+00 -0.00000000000E+00 -0.35416483581E+03  0.35416483581E+03  0.00000000000E+00 0.  1.
         25    1    1    2    0    0  0.15169802256E+03  0.11564821714E+03 -0.10286922702E+03  0.25018768564E+03  0.12500000000E+03 0.  0.
         25    1    1    2    0    0 -0.69040136588E+02 -0.72194482928E+02  0.16919119181E+03  0.23287173124E+03  0.12500000000E+03 0.  0.
         25    1    1    2    0    0 -0.82657885969E+02 -0.43453734216E+02 -0.10405022030E+03  0.18754199923E+03  0.12500000000E+03 0.  0.
</event>
<event>
 5    0  0.5547141E-005  0.2798355E+03  0.7546771E-02  0.1095779E+00
         21   -1    0    0  502  501  0.00000000000E+00  0.00000000000E+00  0.14123173631E+04  0.14123173631E+04  0.00000000000E+00 0. -1.
         21   -1    0    0  501  502 -0.00000000000E+00 -0.00000000000E+00 -0.55446404349E+02  0.55446404349E+02  0.00000000000E+00 0. -1.
         25    1    1    2    0    0  0.18293131073E+03  0.19842999922E+01  0.42897338471E+03  0.48281566532E+03  0.12500000000E+03 0.  0.
         25    1    1    2    0    0 -0.90066874494E+02 -0.40537388452E+02  0.33861509016E+03  0.37421985654E+03  0.12500000000E+03 0.  0.
         25    1    1    2    0    0 -0.92864436238E+02  0.38553088460E+02  0.58928248387E+03  0.61072824558E+03  0.12500000000E+03 0.  0.
</event>
<event>
 5    0  0.5547141E-005  0.2210626E+03  0.7546771E-02  0.1133093E+00
         21   -1    0    0  502  501  0.00000000000E+00  0.00000000000E+00  0.20246647291E+03  0.20246647291E+03  0.00000000000E+00 0.  1.
         21   -1    0    0  501  502 -0.00000000000E+00 -0.00000000000E+00 -0.24136665314E+03  0.24136665314E+03  0.00000000000E+00 0.  1.
         25    1    1    2    0    0 -0.37006360997E+02 -0.21841705356E+02 -0.35824906496E+02  0.13694873045E+03  0.12500000000E+03 0.  0.
         25    1    1    2    0    0  0.62023856428E+02  0.59079122347E+02  0.55976192034E+02  0.16154143598E+03  0.12500000000E+03 0.  0.
         25    1    1    2    0    0 -0.25017495431E+02 -0.37237416991E+02 -0.59051465761E+02  0.14534295962E+03  0.12500000000E+03 0.  0.
</event>
<event>
 5    0  0.5547141E-005  0.3501119E+03  0.7546771E-02  0.1062569E+00
         21   -1    0    0  502  501  0.00000000000E+00  0.00000000000E+00  0.42914208391E+03  0.42914208391E+03  0.00000000000E+00 0. -1.
         21   -1    0    0  501  502 -0.00000000000E+00 -0.00000000000E+00 -0.28563581935E+03  0.28563581935E+03  0.00000000000E+00 0. -1.
         25    1    1    2    0    0 -0.32854144979E+01  0.11815547300E+03 -0.12527753394E+03  0.21281675277E+03  0.12500000000E+03 0.  0.
         25    1    1    2    0    0 -0.14439743198E+03 -0.11554009393E+03  0.18965913128E+03  0.29290906054E+03  0.12500000000E+03 0.  0.
         25    1    1    2    0    0  0.14768284648E+03 -0.26153790696E+01  0.79124667222E+02  0.20905208995E+03  0.12500000000E+03 0.  0.
</event>
<event>
 5    0  0.5547141E-005  0.2523371E+03  0.7546771E-02  0.1111837E+00
         21   -1    0    0  502  501  0.00000000000E+00  0.00000000000E+00  0.13071455207E+04  0.13071455207E+04  0.00000000000E+00 0.  1.
         21   -1    0    0  501  502 -0.00000000000E+00 -0.00000000000E+00 -0.48712276366E+02  0.48712276366E+02  0.00000000000E+00 0.  1.
         25    1    1    2    0    0 -0.32552190022E+02 -0.68765426717E+01  0.20200450683E+03  0.23987028306E+03  0.12500000000E+03 0.  0.
         25    1    1    2    0    0 -0.66144701052E+02 -0.70531094336E+02  0.29968229462E+03  0.33879822085E+03  0.12500000000E+03 0.  0.
         25    1    1    2    0    0  0.98696891074E+02  0.77407637008E+02  0.75674644286E+03  0.77718929313E+03  0.12500000000E+03 0.  0.
</event>
<event>
 5    0  0.5547141E-005  0.2858616E+03  0.7546771E-02  0.1092530E+00
         21   -1    0    0  502  501  0.00000000000E+00  0.00000000000E+00  0.10420494724E+03  0.10420494724E+03  0.00000000000E+00 0.  1.
         21   -1    0    0  501  502 -0.00000000000E+00 -0.00000000000E+00 -0.78419348405E+03  0.78419348405E+03  0.00000000000E+00 0.  1.
         25    1    1    2    0    0 -0.87841456173E+02 -0.94952298053E+02 -0.18499077258E+03  0.25802838268E+03  0.12500000000E+03 0.  0.
         25    1    1    2    0    0  0.34129898058E+01  0.13120981018E+03 -0.42126243390E+03  0.45860080790E+03  0.12500000000E+03 0.  0.
         25    1    1    2    0    0  0.84428466367E+02 -0.36257512129E+02 -0.73735330333E+02  0.17176924072E+03  0.12500000000E+03 0.  0.
</event>
<event>
 5    0  0.6086512E-005  0.3296009E+03  0.7546771E-02  0.1071314E+00
         21   -1    0    0  502  501  0.00000000000E+00  0.00000000000E+00  0.49244956925E+03  0.49244956925E+03  0.00000000000E+00 0. -1.
         21   -1    0    0  501  502 -0.00000000000E+00 -0.00000000000E+00 -0.22060477235E+03  0.22060477235E+03  0.00000000000E+00 0. -1.
         25    1    1    2    0    0 -0.14602600230E+03 -0.32580471225E+02  0.10265565750E+03  0.22033670704E+03  0.12500000000E+03 0.  0.
         25    1    1    2    0    0  0.61396226084E+02 -0.12451709888E+03 -0.39591965616E+02  0.19096211204E+03  0.12500000000E+03 0.  0.
         25    1    1    2    0    0  0.84629776220E+02  0.15709757011E+03  0.20878110502E+03  0.30175552252E+03  0.12500000000E+03 0.  0.
</event>
<event>
 5    0  0.5547141E-005  0.2748786E+03  0.7546771E-02  0.1098519E+00
         21   -1    0    0  502  501  0.00000000000E+00  0.00000000000E+00  0.19263196032E+03  0.19263196032E+03  0.00000000000E+00 0. -1.
         21   -1    0    0  501  502 -0.00000000000E+00 -0.00000000000E+00 -0.39224144958E+03  0.39224144958E+03  0.00000000000E+00 0. -1.
         25    1    1    2    0    0 -0.27022153291E+02 -0.46728738983E+02 -0.14929361357E+03  0.20205780081E+03  0.12500000000E+03 0.  0.
         25    1    1    2    0    0  0.80986808787E+02  0.14018172590E+02  0.98001095937E+02  0.17884235283E+03  0.12500000000E+03 0.  0.
         25    1    1    2    0    0 -0.53964655497E+02  0.32710566392E+02 -0.14831697163E+03  0.20397325626E+03  0.12500000000E+03 0.  0.
</event>
<event>
 5    0  0.5547141E-005  0.2483910E+03  0.7546771E-02  0.1114326E+00
         21   -1    0    0  502  501  0.00000000000E+00  0.00000000000E+00  0.14338376990E+03  0.14338376990E+03  0.00000000000E+00 0.  1.
         21   -1    0    0  501  502 -0.00000000000E+00 -0.00000000000E+00 -0.43030040657E+03  0.43030040657E+03  0.00000000000E+00 0.  1.
         25    1    1    2    0    0  0.12795816482E+03  0.20669163484E+02 -0.50961032962E+02  0.18714308201E+03  0.12500000000E+03 0.  0.
         25    1    1    2    0    0 -0.10000578927E+03 -0.59125018578E+02 -0.15278563342E+03  0.22905321541E+03  0.12500000000E+03 0.  0.
         25    1    1    2    0    0 -0.27952375551E+02  0.38455855094E+02 -0.83169970282E+02  0.15748787905E+03  0.12500000000E+03 0.  0.
</event>
<event>
 5    0  0.5547141E-005  0.2873874E+03  0.7546771E-02  0.1091721E+00
         21   -1    0    0  502  501  0.00000000000E+00  0.00000000000E+00  0.75658092456E+03  0.75658092456E+03  0.00000000000E+00 0. -1.
         21   -1    0    0  501  502 -0.00000000000E+00 -0.00000000000E+00 -0.10916411941E+03  0.10916411941E+03  0.00000000000E+00 0. -1.
         25    1    1    2    0    0  0.44585668618E+02 -0.14150911716E+03  0.92596914378E+02  0.21496953421E+03  0.12500000000E+03 0.  0.
         25    1    1    2    0    0 -0.35954764896E+02  0.89125031865E+02  0.45691979144E+03  0.48335981652E+03  0.12500000000E+03 0.  0.
         25    1    1    2    0    0 -0.86309037223E+01  0.52384085295E+02  0.97900099343E+02  0.16741569324E+03  0.12500000000E+03 0.  0.
</event>
<event>
 5    0  0.5547141E-005  0.4712075E+03  0.7546771E-02  0.1021580E+00
         21   -1    0    0  502  501  0.00000000000E+00  0.00000000000E+00  0.20167264716E+04  0.20167264716E+04  0.00000000000E+00 0. -1.
         21   -1    0    0  501  502 -0.00000000000E+00 -0.00000000000E+00 -0.11009747734E+03  0.11009747734E+03  0.00000000000E+00 0.  1.
         25    1    1    2    0    0  0.31225874669E+03  0.25685609159E+03  0.71705697961E+03  0.83263214487E+03  0.12500000000E+03 0.  0.
         25    1    1    2    0    0 -0.96802546327E+02 -0.19670941645E+03  0.63345098360E+03  0.68187277121E+03  0.12500000000E+03 0.  0.
         25    1    1    2    0    0 -0.21545620037E+03 -0.60146675135E+02  0.55612103103E+03  0.61231903283E+03  0.12500000000E+03 0.  0.
</event>
<event>
 5    0  0.5547141E-005  0.1096172E+04  0.7546771E-02  0.9208931E-01
         21   -1    0    0  502  501  0.00000000000E+00  0.00000000000E+00  0.50996062463E+03  0.50996062463E+03  0.00000000000E+00 0. -1.
         21   -1    0    0  501  502 -0.00000000000E+00 -0.00000000000E+00 -0.23562468721E+04  0.23562468721E+04  0.00000000000E+00 0. -1.
         25    1    1    2    0    0  0.85785700541E+03 -0.49519123840E+03 -0.13806024613E+04  0.17037667565E+04  0.12500000000E+03 0.  0.
         25    1    1    2    0    0 -0.36625402865E+03  0.11041782178E+03 -0.30733727094E+03  0.50637467056E+03  0.12500000000E+03 0.  0.
         25    1    1    2    0    0 -0.49160297675E+03  0.38477341662E+03 -0.15834651519E+03  0.65606606966E+03  0.12500000000E+03 0.  0.
</event>
<event>
 5    0  0.5547141E-005  0.2492507E+03  0.7546771E-02  0.1113779E+00
         21   -1    0    0  502  501  0.00000000000E+00  0.00000000000E+00  0.12121953286E+04  0.12121953286E+04  0.00000000000E+00 0. -1.
         21   -1    0    0  501  502 -0.00000000000E+00 -0.00000000000E+00 -0.51250726276E+02  0.51250726276E+02  0.00000000000E+00 0. -1.
         25    1    1    2    0    0  0.24753413621E+02  0.70806989970E+02  0.62607697623E+03  0.64282481399E+03  0.12500000000E+03 0.  0.
         25    1    1    2    0    0 -0.99958642253E+02 -0.26750797339E+02  0.28446678733E+03  0.32749608915E+03  0.12500000000E+03 0.  0.
         25    1    1    2    0    0  0.75205228632E+02 -0.44056192631E+02  0.25040083876E+03  0.29312515173E+03  0.12500000000E+03 0.  0.
</event>
<event>
 5    0  0.5547141E-005  0.2557122E+03  0.7546771E-02  0.1109747E+00
         21   -1    0    0  502  501  0.00000000000E+00  0.00000000000E+00  0.28132218595E+03  0.28132218595E+03  0.00000000000E+00 0.  1.
         21   -1    0    0  501  502 -0.00000000000E+00 -0.00000000000E+00 -0.23243364799E+03  0.23243364799E+03  0.00000000000E+00 0.  1.
         25    1    1    2    0    0  0.70968308785E+01  0.83984833817E+02  0.11648310293E+03  0.19051805843E+03  0.12500000000E+03 0.  0.
         25    1    1    2    0    0  0.59479972040E+02  0.18889050632E+02 -0.44775745943E+02  0.14671240824E+03  0.12500000000E+03 0.  0.
         25    1    1    2    0    0 -0.66576802918E+02 -0.10287388445E+03 -0.22818819023E+02  0.17652536727E+03  0.12500000000E+03 0.  0.
</event>
<event>
 5    0  0.5547141E-005  0.4514275E+03  0.7546771E-02  0.1027297E+00
         21   -1    0    0  502  501  0.00000000000E+00  0.00000000000E+00  0.14004470586E+03  0.14004470586E+03  0.00000000000E+00 0. -1.
         21   -1    0    0  501  502 -0.00000000000E+00 -0.00000000000E+00 -0.14551551857E+04  0.14551551857E+04  0.00000000000E+00 0. -1.
         25    1    1    2    0    0  0.68160630421E+02  0.44448156219E+02  0.50796513834E+02  0.15756521173E+03  0.12500000000E+03 0.  0.
         25    1    1    2    0    0 -0.54775585029E+02 -0.14348778823E+03 -0.11603300039E+04  0.11771065492E+04  0.12500000000E+03 0.  0.
         25    1    1    2    0    0 -0.13385045392E+02  0.99039632013E+02 -0.20557698970E+03  0.26052813062E+03  0.12500000000E+03 0.  0.
</event>
<event>
 5    0  0.5547141E-005  0.3345996E+03  0.7546771E-02  0.1069120E+00
         21   -1    0    0  502  501  0.00000000000E+00  0.00000000000E+00  0.37679626962E+03  0.37679626962E+03  0.00000000000E+00 0. -1.
         21   -1    0    0  501  502 -0.00000000000E+00 -0.00000000000E+00 -0.29712846290E+03  0.29712846290E+03  0.00000000000E+00 0. -1.
         25    1    1    2    0    0  0.46780106307E+02  0.52661526195E+02  0.38805674044E+02  0.14863544337E+03  0.12500000000E+03 0.  0.
         25    1    1    2    0    0 -0.45815654722E+02 -0.98887548999E+02 -0.19401449452E+03  0.25523409969E+03  0.12500000000E+03 0.  0.
         25    1    1    2    0    0 -0.96445158571E+00  0.46226022805E+02  0.23487662720E+03  0.27005518946E+03  0.12500000000E+03 0.  0.
</event>
<event>
 5    0  0.5953841E-005  0.3579621E+03  0.7546771E-02  0.1059394E+00
         21   -1    0    0  502  501  0.00000000000E+00  0.00000000000E+00  0.67360999527E+03  0.67360999527E+03  0.00000000000E+00 0. -1.
         21   -1    0    0  501  502 -0.00000000000E+00 -0.00000000000E+00 -0.19022408311E+03  0.19022408311E+03  0.00000000000E+00 0. -1.
         25    1    1    2    0    0  0.14564012420E+03 -0.79395823715E+02  0.19829193811E+03  0.28715750960E+03  0.12500000000E+03 0.  0.
         25    1    1    2    0    0  0.34349931284E+02 -0.83765914159E+02  0.25994456271E+03  0.30231245729E+03  0.12500000000E+03 0.  0.
         25    1    1    2    0    0 -0.17999005549E+03  0.16316173787E+03  0.25149411349E+02  0.27436411149E+03  0.12500000000E+03 0.  0.
</event>
<event>
 5    0  0.5547141E-005  0.2721827E+03  0.7546771E-02  0.1100037E+00
         21   -1    0    0  502  501  0.00000000000E+00  0.00000000000E+00  0.76927157038E+02  0.76927157038E+02  0.00000000000E+00 0. -1.
         21   -1    0    0  501  502 -0.00000000000E+00 -0.00000000000E+00 -0.96303361148E+03  0.96303361148E+03  0.00000000000E+00 0. -1.
         25    1    1    2    0    0 -0.82653861677E+02 -0.10946234232E+03 -0.27248578988E+03  0.32967737399E+03  0.12500000000E+03 0.  0.
         25    1    1    2    0    0  0.71350166177E+02 -0.43613415088E+02 -0.34719804964E+03  0.37837079943E+03  0.12500000000E+03 0.  0.
         25    1    1    2    0    0  0.11303695500E+02  0.15307575741E+03 -0.26642261492E+03  0.33191259509E+03  0.12500000000E+03 0.  0.
</event>
<event>
 5    0  0.5547141E-005  0.3188922E+03  0.7546771E-02  0.1076160E+00
         21   -1    0    0  502  501  0.00000000000E+00  0.00000000000E+00  0.64636465164E+03  0.64636465164E+03  0.00000000000E+00 0.  1.
         21   -1    0    0  501  502 -0.00000000000E+00 -0.00000000000E+00 -0.15732952681E+03  0.15732952681E+03  0.00000000000E+00 0.  1.
         25    1    1    2    0    0  0.69354866704E+02 -0.92333794854E+02  0.15746265991E+03  0.23185149659E+03  0.12500000000E+03 0.  0.
         25    1    1    2    0    0 -0.76187140953E+01  0.21985217164E+03  0.97791526936E+02  0.27125855732E+03  0.12500000000E+03 0.  0.
         25    1    1    2    0    0 -0.61736152608E+02 -0.12751837678E+03  0.23378093799E+03  0.30058412454E+03  0.12500000000E+03 0.  0.
</event>
<event>
 5    0  0.5547141E-005  0.2272992E+03  0.7546771E-02  0.1128555E+00
         21   -1    0    0  502  501  0.00000000000E+00  0.00000000000E+00  0.16607181053E+03  0.16607181053E+03  0.00000000000E+00 0.  1.
         21   -1    0    0  501  502 -0.00000000000E+00 -0.00000000000E+00 -0.31109998649E+03  0.31109998649E+03  0.00000000000E+00 0.  1.
         25    1    1    2    0    0 -0.41002971549E+02 -0.30977670620E+02  0.20110733641E+02  0.13663931118E+03  0.12500000000E+03 0.  0.
         25    1    1    2    0    0  0.71058013781E+02  0.51364613217E+02 -0.14162844615E+03  0.20825748864E+03  0.12500000000E+03 0.  0.
         25    1    1    2    0    0 -0.30055042232E+02 -0.20386942597E+02 -0.23510463449E+02  0.13227499720E+03  0.12500000000E+03 0.  0.
</event>
<event>
 5    0  0.5547141E-005  0.3280066E+03  0.7546771E-02  0.1072022E+00
         21   -1    0    0  502  501  0.00000000000E+00  0.00000000000E+00  0.29486395046E+03  0.29486395046E+03  0.00000000000E+00 0. -1.
         21   -1    0    0  501  502 -0.00000000000E+00 -0.00000000000E+00 -0.36487454361E+03  0.36487454361E+03  0.00000000000E+00 0. -1.
         25    1    1    2    0    0  0.98314390101E+02 -0.48254665835E+02 -0.22631480867E+03  0.28078038517E+03  0.12500000000E+03 0.  0.
         25    1    1    2    0    0 -0.97776307821E+01  0.11519611748E+03  0.38819591529E+02  0.17463593053E+03  0.12500000000E+03 0.  0.
         25    1    1    2    0    0 -0.88536759319E+02 -0.66941451646E+02  0.11748462399E+03  0.20432217837E+03  0.12500000000E+03 0.  0.
</event>
<event>
 5    0  0.5547141E-005  0.3073382E+03  0.7546771E-02  0.1081629E+00
         21   -1    0    0  502  501  0.00000000000E+00  0.00000000000E+00  0.11178662856E+03  0.11178662856E+03  0.00000000000E+00 0. -1.
         21   -1    0    0  501  502 -0.00000000000E+00 -0.00000000000E+00 -0.84497383149E+03  0.84497383149E+03  0.00000000000E+00 0. -1.
         25    1    1    2    0    0 -0.71653197392E+02 -0.15047760014E+03 -0.20431667436E+03  0.29180128900E+03  0.12500000000E+03 0.  0.
         25    1    1    2    0    0  0.21154972238E+02  0.18220585208E+03 -0.16786664579E+03  0.27829968766E+03  0.12500000000E+03 0.  0.
         25    1    1    2    0    0  0.50498225154E+02 -0.31728251945E+02 -0.36100388278E+03  0.38665948339E+03  0.12500000000E+03 0.  0.
</event>
<event>
 5    0  0.5547141E-005  0.2910823E+03  0.7546771E-02  0.1089785E+00
         21   -1    0    0  502  501  0.00000000000E+00  0.00000000000E+00  0.34022961971E+03  0.34022961971E+03  0.00000000000E+00 0. -1.
         21   -1    0    0  501  502 -0.00000000000E+00 -0.00000000000E+00 -0.24903444872E+03  0.24903444872E+03  0.00000000000E+00 0. -1.
         25    1    1    2    0    0  0.16542136396E+02 -0.36070105270E+02 -0.22439778149E+02  0.13305351711E+03  0.12500000000E+03 0.  0.
         25    1    1    2    0    0  0.79301183915E+02  0.12800441607E+03 -0.59695679198E+02  0.20460298732E+03  0.12500000000E+03 0.  0.
         25    1    1    2    0    0 -0.95843320311E+02 -0.91934310800E+02  0.17333062834E+03  0.25160756402E+03  0.12500000000E+03 0.  0.
</event>
<event>
 5    0  0.5547141E-005  0.2208829E+03  0.7546771E-02  0.1133227E+00
         21   -1    0    0  502  501  0.00000000000E+00  0.00000000000E+00  0.64476116642E+03  0.64476116642E+03  0.00000000000E+00 0.  1.
         21   -1    0    0  501  502 -0.00000000000E+00 -0.00000000000E+00 -0.75670245522E+02  0.75670245522E+02  0.00000000000E+00 0.  1.
         25    1    1    2    0    0 -0.49298763370E+02  0.47954699048E+02  0.24198752576E+03  0.28091454902E+03  0.12500000000E+03 0.  0.
         25    1    1    2    0    0  0.60262682444E+02 -0.47214673197E+02  0.25678257322E+03  0.29567398630E+03  0.12500000000E+03 0.  0.
         25    1    1    2    0    0 -0.10963919074E+02 -0.74002585125E+00  0.70320821914E+02  0.14384287662E+03  0.12500000000E+03 0.  0.
</event>
<event>
 5    0  0.5547141E-005  0.3384071E+03  0.7546771E-02  0.1067476E+00
         21   -1    0    0  502  501  0.00000000000E+00  0.00000000000E+00  0.12855346850E+03  0.12855346850E+03  0.00000000000E+00 0. -1.
         21   -1    0    0  501  502 -0.00000000000E+00 -0.00000000000E+00 -0.89083053625E+03  0.89083053625E+03  0.00000000000E+00 0. -1.
         25    1    1    2    0    0  0.42640305940E+02  0.22773933030E+03 -0.15955911297E+03  0.30784331856E+03  0.12500000000E+03 0.  0.
         25    1    1    2    0    0  0.62435909773E+01 -0.19070439998E+03 -0.28794005121E+03  0.36734401273E+03  0.12500000000E+03 0.  0.
         25    1    1    2    0    0 -0.48883896917E+02 -0.37034930321E+02 -0.31477790358E+03  0.34419667346E+03  0.12500000000E+03 0.  0.
</event>
<event>
 5    0  0.5547141E-005  0.2794829E+03  0.7546771E-02  0.1095972E+00
         21   -1    0    0  502  501  0.00000000000E+00  0.00000000000E+00  0.15363040474E+04  0.15363040474E+04  0.00000000000E+00 0. -1.
         21   -1    0    0  501  502 -0.00000000000E+00 -0.00000000000E+00 -0.50843264395E+02  0.50843264395E+02  0.00000000000E+00 0. -1.
         25    1    1    2    0    0  0.11299642524E+01 -0.35260117911E+02  0.42065990453E+03  0.44025482168E+03  0.12500000000E+03 0.  0.
         25    1    1    2    0    0  0.75032197374E+02  0.47857010961E+02  0.94484859268E+03  0.95722723908E+03  0.12500000000E+03 0.  0.
         25    1    1    2    0    0 -0.76162161627E+02 -0.12596893050E+02  0.11995228576E+03  0.18966525100E+03  0.12500000000E+03 0.  0.
</event>
<event>
 5    0  0.5547141E-005  0.3638417E+03  0.7546771E-02  0.1057073E+00
         21   -1    0    0  502  501  0.00000000000E+00  0.00000000000E+00  0.23863411676E+03  0.23863411676E+03  0.00000000000E+00 0. -1.
         21   -1    0    0  501  502 -0.00000000000E+00 -0.00000000000E+00 -0.55474364915E+03  0.55474364915E+03  0.00000000000E+00 0. -1.
         25    1    1    2    0    0  0.28214613082E+03  0.60051708320E+02 -0.12810293872E+03  0.33948197259E+03  0.12500000000E+03 0.  0.
         25    1    1    2    0    0 -0.10676549372E+03  0.25398086052E+02 -0.13968233560E+03  0.21720977948E+03  0.12500000000E+03 0.  0.
         25    1    1    2    0    0 -0.17538063710E+03 -0.85449794372E+02 -0.48324258063E+02  0.23668601383E+03  0.12500000000E+03 0.  0.
</event>
<event>
 5    0  0.5547141E-005  0.2189268E+03  0.7546771E-02  0.1134686E+00
         21   -1    0    0  502  501  0.00000000000E+00  0.00000000000E+00  0.80836089861E+02  0.80836089861E+02  0.00000000000E+00 0. -1.
         21   -1    0    0  501  502 -0.00000000000E+00 -0.00000000000E+00 -0.59291528779E+03  0.59291528779E+03  0.00000000000E+00 0. -1.
         25    1    1    2    0    0  0.61991340023E+01  0.26999664726E+02 -0.18169283176E+03  0.22227167222E+03  0.12500000000E+03 0.  0.
         25    1    1    2    0    0 -0.22068979546E+02  0.72297515019E+02 -0.17736278241E+03  0.22977494885E+03  0.12500000000E+03 0.  0.
         25    1    1    2    0    0  0.15869845544E+02 -0.99297179746E+02 -0.15302358375E+03  0.22170475657E+03  0.12500000000E+03 0.  0.
</event>
<event>
 5    0  0.5547141E-005  0.3233024E+03  0.7546771E-02  0.1074139E+00
         21   -1    0    0  502  501  0.00000000000E+00  0.00000000000E+00  0.23457399669E+03  0.23457399669E+03  0.00000000000E+00 0. -1.
         21   -1    0    0  501  502 -0.00000000000E+00 -0.00000000000E+00 -0.44559257524E+03  0.44559257524E+03  0.00000000000E+00 0. -1.
         25    1    1    2    0    0  0.18585699878E+03 -0.12711703280E+03 -0.17017214526E+03  0.30868288427E+03  0.12500000000E+03 0.  0.
         25    1    1    2    0    0 -0.14721971463E+03  0.84454449230E+02  0.36040988756E+02  0.21384609242E+03  0.12500000000E+03 0.  0.
         25    1    1    2    0    0 -0.38637284144E+02  0.42662583573E+02 -0.76887422052E+02  0.15763759524E+03  0.12500000000E+03 0.  0.
</event>
<event>
 5    0  0.5547141E-005  0.2438706E+03  0.7546771E-02  0.1117241E+00
         21   -1    0    0  502  501  0.00000000000E+00  0.00000000000E+00  0.13093146109E+03  0.13093146109E+03  0.00000000000E+00 0.  1.
         21   -1    0    0  501  502 -0.00000000000E+00 -0.00000000000E+00 -0.45422909698E+03  0.45422909698E+03  0.00000000000E+00 0.  1.
         25    1    1    2    0    0  0.45618357163E+02  0.83882702454E+02 -0.22471830468E+03  0.27430030758E+03  0.12500000000E+03 0.  0.
         25    1    1    2    0    0 -0.15486522742E+02 -0.64149801761E+02  0.95920930461E+01  0.14167581904E+03  0.12500000000E+03 0.  0.
         25    1    1    2    0    0 -0.30131834421E+02 -0.19732900693E+02 -0.10817142425E+03  0.16918443144E+03  0.12500000000E+03 0.  0.
</event>
<event>
 5    0  0.5547141E-005  0.2152098E+03  0.7546771E-02  0.1137506E+00
         21   -1    0    0  502  501  0.00000000000E+00  0.00000000000E+00  0.46146655382E+03  0.46146655382E+03  0.00000000000E+00 0. -1.
         21   -1    0    0  501  502 -0.00000000000E+00 -0.00000000000E+00 -0.10036532486E+03  0.10036532486E+03  0.00000000000E+00 0. -1.
         25    1    1    2    0    0  0.61259126817E+02  0.93850694947E+01  0.10947492696E+03  0.17734294398E+03  0.12500000000E+03 0.  0.
         25    1    1    2    0    0 -0.77174782766E+02 -0.13715531257E+02  0.19931810769E+03  0.24798542487E+03  0.12500000000E+03 0.  0.
         25    1    1    2    0    0  0.15915655949E+02  0.43304617622E+01  0.52308194313E+02  0.13650350983E+03  0.12500000000E+03 0.  0.
</event>
<event>
 5    0  0.5547141E-005  0.4086313E+03  0.7546771E-02  0.1040831E+00
         21   -1    0    0  502  501  0.00000000000E+00  0.00000000000E+00  0.35845770620E+03  0.35845770620E+03  0.00000000000E+00 0.  1.
         21   -1    0    0  501  502 -0.00000000000E+00 -0.00000000000E+00 -0.46582776530E+03  0.46582776530E+03  0.00000000000E+00 0.  1.
         25    1    1    2    0    0  0.24854345843E+03 -0.67213470702E+02 -0.10889798219E+03  0.30622748390E+03  0.12500000000E+03 0.  0.
         25    1    1    2    0    0 -0.42249946715E+02  0.49798333384E+02 -0.17050563105E+03  0.22127381730E+03  0.12500000000E+03 0.  0.
         25    1    1    2    0    0 -0.20629351172E+03  0.17415137319E+02  0.17203355415E+03  0.29678417029E+03  0.12500000000E+03 0.  0.
</event>
<event>
 5    0  0.5547141E-005  0.2352194E+03  0.7546771E-02  0.1123019E+00
         21   -1    0    0  502  501  0.00000000000E+00  0.00000000000E+00  0.11659026370E+04  0.11659026370E+04  0.00000000000E+00 0.  1.
         21   -1    0    0  501  502 -0.00000000000E+00 -0.00000000000E+00 -0.47455224103E+02  0.47455224103E+02  0.00000000000E+00 0.  1.
         25    1    1    2    0    0  0.11224123801E+03  0.26064640583E+02  0.45505048849E+03  0.48577094198E+03  0.12500000000E+03 0.  0.
         25    1    1    2    0    0 -0.14325075622E+01 -0.26784472040E+02  0.34697409804E+03  0.36977761523E+03  0.12500000000E+03 0.  0.
         25    1    1    2    0    0 -0.11080873045E+03  0.71983145647E+00  0.31642282639E+03  0.35780930391E+03  0.12500000000E+03 0.  0.
</event>
<event>
 5    0  0.5547141E-005  0.3054372E+03  0.7546771E-02  0.1082554E+00
         21   -1    0    0  502  501  0.00000000000E+00  0.00000000000E+00  0.47505363874E+03  0.47505363874E+03  0.00000000000E+00 0.  1.
         21   -1    0    0  501  502 -0.00000000000E+00 -0.00000000000E+00 -0.19638178069E+03  0.19638178069E+03  0.00000000000E+00 0.  1.
         25    1    1    2    0    0  0.10154615906E+03  0.47076355511E+02  0.24752548515E+03  0.29903456567E+03  0.12500000000E+03 0.  0.
         25    1    1    2    0    0 -0.12676093568E+03 -0.12870996269E+03  0.19474124781E+02  0.22054212941E+03  0.12500000000E+03 0.  0.
         25    1    1    2    0    0  0.25214776616E+02  0.81633607181E+02  0.11672248116E+02  0.15185872434E+03  0.12500000000E+03 0.  0.
</event>
<event>
 5    0  0.5547141E-005  0.3291905E+03  0.7546771E-02  0.1071496E+00
         21   -1    0    0  502  501  0.00000000000E+00  0.00000000000E+00  0.78100839165E+02  0.78100839165E+02  0.00000000000E+00 0. -1.
         21   -1    0    0  501  502 -0.00000000000E+00 -0.00000000000E+00 -0.13875185836E+04  0.13875185836E+04  0.00000000000E+00 0. -1.
         25    1    1    2    0    0  0.14035147405E+03 -0.14472181800E+03 -0.90038128361E+03  0.93110385927E+03  0.12500000000E+03 0.  0.
         25    1    1    2    0    0 -0.21234763461E+02  0.29382261429E+02 -0.20885993057E+03  0.24609287488E+03  0.12500000000E+03 0.  0.
         25    1    1    2    0    0 -0.11911671059E+03  0.11533955657E+03 -0.20017653027E+03  0.28842268864E+03  0.12500000000E+03 0.  0.
</event>
<event>
 5    0  0.5547141E-005  0.3799626E+03  0.7546771E-02  0.1050948E+00
         21   -1    0    0  502  501  0.00000000000E+00  0.00000000000E+00  0.45727845009E+03  0.45727845009E+03  0.00000000000E+00 0.  1.
         21   -1    0    0  501  502 -0.00000000000E+00 -0.00000000000E+00 -0.31571914625E+03  0.31571914625E+03  0.00000000000E+00 0.  1.
         25    1    1    2    0    0 -0.12213970661E+03 -0.57605409464E+02  0.13890113556E+03  0.23055371736E+03  0.12500000000E+03 0.  0.
         25    1    1    2    0    0  0.64006589943E+02  0.20658147932E+03  0.15023315020E+03  0.29149228218E+03  0.12500000000E+03 0.  0.
         25    1    1    2    0    0  0.58133116663E+02 -0.14897606985E+03 -0.14757498192E+03  0.25095159679E+03  0.12500000000E+03 0.  0.
</event>
<event>
 5    0  0.5547141E-005  0.3053573E+03  0.7546771E-02  0.1082593E+00
         21   -1    0    0  502  501  0.00000000000E+00  0.00000000000E+00  0.79570383085E+03  0.79570383085E+03  0.00000000000E+00 0. -1.
         21   -1    0    0  501  502 -0.00000000000E+00 -0.00000000000E+00 -0.11718316604E+03  0.11718316604E+03  0.00000000000E+00 0. -1.
         25    1    1    2    0    0  0.11541237153E+03 -0.26627136245E+02  0.32686588966E+02  0.17527815889E+03  0.12500000000E+03 0.  0.
         25    1    1    2    0    0  0.35957898084E+02 -0.57045469566E+02  0.28398165533E+03  0.31751808861E+03  0.12500000000E+03 0.  0.
         25    1    1    2    0    0 -0.15137026962E+03  0.83672605811E+02  0.36185242052E+03  0.42009074939E+03  0.12500000000E+03 0.  0.
</event>
<event>
 5    0  0.5674037E-005  0.3662613E+03  0.7546771E-02  0.1056132E+00
         21   -1    0    0  502  501  0.00000000000E+00  0.00000000000E+00  0.56527293212E+03  0.56527293212E+03  0.00000000000E+00 0. -1.
         21   -1    0    0  501  502 -0.00000000000E+00 -0.00000000000E+00 -0.23731429398E+03  0.23731429398E+03  0.00000000000E+00 0. -1.
         25    1    1    2    0    0  0.30684985738E+02 -0.14433194932E+03 -0.32602991851E+02  0.19611536152E+03  0.12500000000E+03 0.  0.
         25    1    1    2    0    0 -0.15119664334E+03  0.49457908114E+02  0.83483572305E+01  0.20248754209E+03  0.12500000000E+03 0.  0.
         25    1    1    2    0    0  0.12051165760E+03  0.94874041208E+02  0.35221327276E+03  0.40398432250E+03  0.12500000000E+03 0.  0.
</event>
<event>
 5    0  0.5547141E-005  0.2963826E+03  0.7546771E-02  0.1087063E+00
         21   -1    0    0  502  501  0.00000000000E+00  0.00000000000E+00  0.12014120125E+03  0.12014120125E+03  0.00000000000E+00 0. -1.
         21   -1    0    0  501  502 -0.00000000000E+00 -0.00000000000E+00 -0.73116184722E+03  0.73116184722E+03  0.00000000000E+00 0. -1.
         25    1    1    2    0    0 -0.59571628635E+02 -0.71176045939E+02 -0.16007067982E+03  0.22329897221E+03  0.12500000000E+03 0.  0.
         25    1    1    2    0    0 -0.44067067569E+02 -0.11738139138E+03 -0.11974842898E+03  0.21374045880E+03  0.12500000000E+03 0.  0.
         25    1    1    2    0    0  0.10363869620E+03  0.18855743732E+03 -0.33120153718E+03  0.41426361746E+03  0.12500000000E+03 0.  0.
</event>
<event>
 5    0  0.5547141E-005  0.2821400E+03  0.7546771E-02  0.1094526E+00
         21   -1    0    0  502  501  0.00000000000E+00  0.00000000000E+00  0.31963942460E+03  0.31963942460E+03  0.00000000000E+00 0.  1.
         21   -1    0    0  501  502 -0.00000000000E+00 -0.00000000000E+00 -0.24903985894E+03  0.24903985894E+03  0.00000000000E+00 0.  1.
         25    1    1    2    0    0  0.12135204431E+03 -0.11502715559E+03  0.20258968713E+02  0.20974506190E+03  0.12500000000E+03 0.  0.
         25    1    1    2    0    0 -0.88590485300E+02 -0.85004470740E+00  0.94272831278E+02  0.17989264404E+03  0.12500000000E+03 0.  0.
         25    1    1    2    0    0 -0.32761559009E+02  0.11587720029E+03 -0.43932234334E+02  0.17904157760E+03  0.12500000000E+03 0.  0.
</event>
<event>
 5    0  0.5547141E-005  0.3408982E+03  0.7546771E-02  0.1066414E+00
         21   -1    0    0  502  501  0.00000000000E+00  0.00000000000E+00  0.12715194753E+03  0.12715194753E+03  0.00000000000E+00 0.  1.
         21   -1    0    0  501  502 -0.00000000000E+00 -0.00000000000E+00 -0.91395841672E+03  0.91395841672E+03  0.00000000000E+00 0.  1.
         25    1    1    2    0    0  0.10165623813E+03 -0.87172784963E+02 -0.27404072125E+01  0.18320915649E+03  0.12500000000E+03 0.  0.
         25    1    1    2    0    0 -0.27265681499E+02 -0.33717998942E+00 -0.13091200883E+03  0.18304776736E+03  0.12500000000E+03 0.  0.
         25    1    1    2    0    0 -0.74390556632E+02  0.87509964953E+02 -0.65315405315E+03  0.67485344041E+03  0.12500000000E+03 0.  0.
</event>
<event>
 5    0  0.5547141E-005  0.2545555E+03  0.7546771E-02  0.1110459E+00
         21   -1    0    0  502  501  0.00000000000E+00  0.00000000000E+00  0.36409125894E+03  0.36409125894E+03  0.00000000000E+00 0. -1.
         21   -1    0    0  501  502 -0.00000000000E+00 -0.00000000000E+00 -0.17797329614E+03  0.17797329614E+03  0.00000000000E+00 0. -1.
         25    1    1    2    0    0  0.14917277477E+02  0.60404477091E+02 -0.24646768386E+02  0.14178747904E+03  0.12500000000E+03 0.  0.
         25    1    1    2    0    0 -0.67068360452E+01  0.37755019117E+02 -0.65573319657E+01  0.13091379500E+03  0.12500000000E+03 0.  0.
         25    1    1    2    0    0 -0.82104414320E+01 -0.98159496207E+02  0.21732206315E+03  0.26936328104E+03  0.12500000000E+03 0.  0.
</event>
<event>
 5    0  0.5547141E-005  0.5782168E+03  0.7546771E-02  0.9951659E-01
         21   -1    0    0  502  501  0.00000000000E+00  0.00000000000E+00  0.15006398992E+04  0.15006398992E+04  0.00000000000E+00 0. -1.
         21   -1    0    0  501  502 -0.00000000000E+00 -0.00000000000E+00 -0.22279475580E+03  0.22279475580E+03  0.00000000000E+00 0. -1.
         25    1    1    2    0    0  0.37132994480E+03 -0.15755194736E+03  0.92056313160E+03  0.10128030526E+04  0.12500000000E+03 0.  0.
         25    1    1    2    0    0 -0.31934991536E+03  0.16808538640E+03  0.63735077785E+02  0.38720049807E+03  0.12500000000E+03 0.  0.
         25    1    1    2    0    0 -0.51980029442E+02 -0.10533439043E+02  0.29354693406E+03  0.32343110440E+03  0.12500000000E+03 0.  0.
</event>
<event>
 5    0  0.5547141E-005  0.3542693E+03  0.7546771E-02  0.1060876E+00
         21   -1    0    0  502  501  0.00000000000E+00  0.00000000000E+00  0.19973283339E+04  0.19973283339E+04  0.00000000000E+00 0.  1.
         21   -1    0    0  501  502 -0.00000000000E+00 -0.00000000000E+00 -0.62837302925E+02  0.62837302925E+02  0.00000000000E+00 0.  1.
         25    1    1    2    0    0  0.15433536965E+03  0.24588578852E+03  0.76678838944E+03  0.82937847905E+03  0.12500000000E+03 0.  0.
         25    1    1    2    0    0 -0.50702805333E+02 -0.13659341236E+03  0.52831800621E+03  0.56211515764E+03  0.12500000000E+03 0.  0.
         25    1    1    2    0    0 -0.10363256432E+03 -0.10929237616E+03  0.63938463529E+03  0.66867200011E+03  0.12500000000E+03 0.  0.
</event>
<event>
 5    0  0.5547141E-005  0.3119413E+03  0.7546771E-02  0.1079419E+00
         21   -1    0    0  502  501  0.00000000000E+00  0.00000000000E+00  0.26242986954E+03  0.26242986954E+03  0.00000000000E+00 0.  1.
         21   -1    0    0  501  502 -0.00000000000E+00 -0.00000000000E+00 -0.37079386019E+03  0.37079386019E+03  0.00000000000E+00 0.  1.
         25    1    1    2    0    0 -0.12661302772E+03  0.11121025944E+02 -0.19074556943E+03  0.26108122924E+03  0.12500000000E+03 0.  0.
         25    1    1    2    0    0  0.42492505826E+02  0.98613256112E+02 -0.80179638995E+01  0.16498325696E+03  0.12500000000E+03 0.  0.
         25    1    1    2    0    0  0.84120521894E+02 -0.10973428206E+03  0.90399542681E+02  0.20715924353E+03  0.12500000000E+03 0.  0.
</event>
<event>
 5    0  0.5547141E-005  0.3089501E+03  0.7546771E-02  0.1080850E+00
         21   -1    0    0  502  501  0.00000000000E+00  0.00000000000E+00  0.66891695721E+02  0.66891695721E+02  0.00000000000E+00 0. -1.
         21   -1    0    0  501  502 -0.00000000000E+00 -0.00000000000E+00 -0.14269360082E+04  0.14269360082E+04  0.00000000000E+00 0. -1.
         25    1    1    2    0    0 -0.18703599912E+03 -0.92264349514E+02 -0.62425043070E+03  0.66993191847E+03  0.12500000000E+03 0.  0.
         25    1    1    2    0    0  0.63966977446E+02  0.66664429364E+02 -0.16712535609E+03  0.22823629202E+03  0.12500000000E+03 0.  0.
         25    1    1    2    0    0  0.12306902167E+03  0.25599920151E+02 -0.56866852574E+03  0.59565949348E+03  0.12500000000E+03 0.  0.
</event>
<event>
 5    0  0.5547141E-005  0.3434979E+03  0.7546771E-02  0.1065316E+00
         21   -1    0    0  502  501  0.00000000000E+00  0.00000000000E+00  0.20620982312E+04  0.20620982312E+04  0.00000000000E+00 0.  1.
         21   -1    0    0  501  502 -0.00000000000E+00 -0.00000000000E+00 -0.57218804808E+02  0.57218804808E+02  0.00000000000E+00 0.  1.
         25    1    1    2    0    0 -0.81507454324E+02  0.24320373829E+02  0.11928637315E+04  0.12024075131E+04  0.12500000000E+03 0.  0.
         25    1    1    2    0    0  0.20098174600E+03  0.33880409057E+02  0.52399158525E+03  0.57596330244E+03  0.12500000000E+03 0.  0.
         25    1    1    2    0    0 -0.11947429168E+03 -0.58200782886E+02  0.28802410967E+03  0.34094622046E+03  0.12500000000E+03 0.  0.
</event>
<event>
 5    0  0.5547141E-005  0.2670218E+03  0.7546771E-02  0.1102996E+00
         21   -1    0    0  502  501  0.00000000000E+00  0.00000000000E+00  0.10141350246E+03  0.10141350246E+03  0.00000000000E+00 0.  1.
         21   -1    0    0  501  502 -0.00000000000E+00 -0.00000000000E+00 -0.70306832200E+03  0.70306832200E+03  0.00000000000E+00 0.  1.
         25    1    1    2    0    0  0.15388895561E+02  0.16862295796E+03 -0.25078266608E+03  0.32739496890E+03  0.12500000000E+03 0.  0.
         25    1    1    2    0    0 -0.99656707604E+01 -0.22698846843E+02 -0.17550735143E+03  0.21689256015E+03  0.12500000000E+03 0.  0.
         25    1    1    2    0    0 -0.54232248011E+01 -0.14592411111E+03 -0.17536480204E+03  0.26019429542E+03  0.12500000000E+03 0.  0.
</event>
<event>
 5    0  0.5547141E-005  0.3298120E+03  0.7546771E-02  0.1071220E+00
         21   -1    0    0  502  501  0.00000000000E+00  0.00000000000E+00  0.90380186046E+03  0.90380186046E+03  0.00000000000E+00 0.  1.
         21   -1    0    0  501  502 -0.00000000000E+00 -0.00000000000E+00 -0.12035379369E+03  0.12035379369E+03  0.00000000000E+00 0.  1.
         25    1    1    2    0    0 -0.38153029595E+02  0.14930469000E+02  0.23384124159E+03  0.26830076191E+03  0.12500000000E+03 0.  0.
         25    1    1    2    0    0 -0.80554859851E+02 -0.63202988033E+02 -0.16211287050E+02  0.16239306934E+03  0.12500000000E+03 0.  0.
         25    1    1    2    0    0  0.11870788945E+03  0.48272519033E+02  0.56581811223E+03  0.59346182290E+03  0.12500000000E+03 0.  0.
</event>
<event>
 5    0  0.5547141E-005  0.3485483E+03  0.7546771E-02  0.1063212E+00
         21   -1    0    0  502  501  0.00000000000E+00  0.00000000000E+00  0.30759691847E+03  0.30759691847E+03  0.00000000000E+00 0.  1.
         21   -1    0    0  501  502 -0.00000000000E+00 -0.00000000000E+00 -0.39495156964E+03  0.39495156964E+03  0.00000000000E+00 0.  1.
         25    1    1    2    0    0 -0.67792269932E+02  0.32207026627E+01 -0.59134835220E+02  0.15403925969E+03  0.12500000000E+03 0.  0.
         25    1    1    2    0    0  0.19656859801E+03  0.17697834681E+03  0.67053671930E+00  0.29255084786E+03  0.12500000000E+03 0.  0.
         25    1    1    2    0    0 -0.12877632807E+03 -0.18019904947E+03 -0.28890352674E+02  0.25595838056E+03  0.12500000000E+03 0.  0.
</event>
<event>
 5    0  0.5547141E-005  0.2724591E+03  0.7546771E-02  0.1099880E+00
         21   -1    0    0  502  501  0.00000000000E+00  0.00000000000E+00  0.12155744267E+03  0.12155744267E+03  0.00000000000E+00 0.  1.
         21   -1    0    0  501  502 -0.00000000000E+00 -0.00000000000E+00 -0.61069036649E+03  0.61069036649E+03  0.00000000000E+00 0.  1.
         25    1    1    2    0    0 -0.37257230417E+01  0.12032006587E+03 -0.62044990466E+02  0.18429698886E+03  0.12500000000E+03 0.  0.
         25    1    1    2    0    0  0.37888879133E+02  0.11809797322E+02 -0.28795977581E+03  0.31641882207E+03  0.12500000000E+03 0.  0.
         25    1    1    2    0    0 -0.34163156091E+02 -0.13212986319E+03 -0.13912815755E+03  0.23153199823E+03  0.12500000000E+03 0.  0.
</event>
<event>
 5    0  0.5547141E-005  0.2399562E+03  0.7546771E-02  0.1119822E+00
         21   -1    0    0  502  501  0.00000000000E+00  0.00000000000E+00  0.10611430368E+04  0.10611430368E+04  0.00000000000E+00 0. -1.
         21   -1    0    0  501  502 -0.00000000000E+00 -0.00000000000E+00 -0.54261270279E+02  0.54261270279E+02  0.00000000000E+00 0. -1.
         25    1    1    2    0    0  0.31080855543E+02 -0.13789761031E+02  0.17706386981E+03  0.21939186649E+03  0.12500000000E+03 0.  0.
         25    1    1    2    0    0  0.27746169390E+02 -0.59753278601E+02  0.18679345847E+03  0.23421592675E+03  0.12500000000E+03 0.  0.
         25    1    1    2    0    0 -0.58827024932E+02  0.73543039632E+02  0.64302443824E+03  0.66179651383E+03  0.12500000000E+03 0.  0.
</event>
<event>
 5    0  0.5547141E-005  0.3054866E+03  0.7546771E-02  0.1082530E+00
         21   -1    0    0  502  501  0.00000000000E+00  0.00000000000E+00  0.19399816533E+04  0.19399816533E+04  0.00000000000E+00 0. -1.
         21   -1    0    0  501  502 -0.00000000000E+00 -0.00000000000E+00 -0.48104612252E+02  0.48104612252E+02  0.00000000000E+00 0. -1.
         25    1    1    2    0    0  0.49007444505E+02 -0.10121269412E+03  0.61610661275E+03  0.63863768864E+03  0.12500000000E+03 0.  0.
         25    1    1    2    0    0  0.41812029932E+02  0.13495162935E+03  0.10867155634E+04  0.11029668644E+04  0.12500000000E+03 0.  0.
         25    1    1    2    0    0 -0.90819474437E+02 -0.33738935230E+02  0.18905486486E+03  0.24648171254E+03  0.12500000000E+03 0.  0.
</event>
<event>
 5    0  0.5547141E-005  0.4513092E+03  0.7546771E-02  0.1027332E+00
         21   -1    0    0  502  501  0.00000000000E+00  0.00000000000E+00  0.64742907534E+03  0.64742907534E+03  0.00000000000E+00 0. -1.
         21   -1    0    0  501  502 -0.00000000000E+00 -0.00000000000E+00 -0.31459811491E+03  0.31459811491E+03  0.00000000000E+00 0. -1.
         25    1    1    2    0    0 -0.13046645474E+02 -0.28741013220E+03 -0.83829287361E+02  0.32469547035E+03  0.12500000000E+03 0.  0.
         25    1    1    2    0    0  0.14459853794E+02  0.28433758990E+03  0.40662408603E+03  0.51188387330E+03  0.12500000000E+03 0.  0.
         25    1    1    2    0    0 -0.14132083202E+01  0.30725422967E+01  0.10036161759E+02  0.12544784660E+03  0.12500000000E+03 0.  0.
</event>
<event>
 5    0  0.5547141E-005  0.2352432E+03  0.7546771E-02  0.1123003E+00
         21   -1    0    0  502  501  0.00000000000E+00  0.00000000000E+00  0.27387761691E+03  0.27387761691E+03  0.00000000000E+00 0. -1.
         21   -1    0    0  501  502 -0.00000000000E+00 -0.00000000000E+00 -0.20205870389E+03  0.20205870389E+03  0.00000000000E+00 0. -1.
         25    1    1    2    0    0  0.44347992866E+01  0.52999608762E+02 -0.74073931826E+02  0.15472741628E+03  0.12500000000E+03 0.  0.
         25    1    1    2    0    0 -0.13070688012E+01 -0.91959441594E+02  0.77840884752E+02  0.17361581341E+03  0.12500000000E+03 0.  0.
         25    1    1    2    0    0 -0.31277304854E+01  0.38959832831E+02  0.68051960094E+02  0.14759309112E+03  0.12500000000E+03 0.  0.
</event>
<event>
 5    0  0.5547141E-005  0.3055674E+03  0.7546771E-02  0.1082490E+00
         21   -1    0    0  502  501  0.00000000000E+00  0.00000000000E+00  0.13615712031E+03  0.13615712031E+03  0.00000000000E+00 0.  1.
         21   -1    0    0  501  502 -0.00000000000E+00 -0.00000000000E+00 -0.68576220466E+03  0.68576220466E+03  0.00000000000E+00 0.  1.
         25    1    1    2    0    0  0.16329768982E+02 -0.73690135306E+02 -0.26205184771E+03  0.29998844692E+03  0.12500000000E+03 0.  0.
         25    1    1    2    0    0 -0.20638377729E+01  0.18842316389E+03 -0.53280246740E+02  0.23231731061E+03  0.12500000000E+03 0.  0.
         25    1    1    2    0    0 -0.14265931209E+02 -0.11473302859E+03 -0.23427298990E+03  0.28961356743E+03  0.12500000000E+03 0.  0.
</event>
<event>
 5    0  0.5547141E-005  0.5465484E+03  0.7546771E-02  0.1002296E+00
         21   -1    0    0  502  501  0.00000000000E+00  0.00000000000E+00  0.90913755419E+03  0.90913755419E+03  0.00000000000E+00 0. -1.
         21   -1    0    0  501  502 -0.00000000000E+00 -0.00000000000E+00 -0.32856978271E+03  0.32856978271E+03  0.00000000000E+00 0. -1.
         25    1    1    2    0    0  0.23070580285E+03 -0.17169769832E+03  0.17181116619E+02  0.31404690390E+03  0.12500000000E+03 0.  0.
         25    1    1    2    0    0 -0.39492862555E+03 -0.28547626925E+02  0.45594854848E+03  0.61668279135E+03  0.12500000000E+03 0.  0.
         25    1    1    2    0    0  0.16422282270E+03  0.20024532524E+03  0.10743810638E+03  0.30697764166E+03  0.12500000000E+03 0.  0.
</event>
<event>
 5    0  0.6515101E-005  0.3988162E+03  0.7546771E-02  0.1044190E+00
         21   -1    0    0  502  501  0.00000000000E+00  0.00000000000E+00  0.71166300635E+03  0.71166300635E+03  0.00000000000E+00 0.  1.
         21   -1    0    0  501  502 -0.00000000000E+00 -0.00000000000E+00 -0.22349676562E+03  0.22349676562E+03  0.00000000000E+00 0.  1.
         25    1    1    2    0    0  0.17643072457E+03  0.12177368882E+03  0.10946159568E+03  0.27122587043E+03  0.12500000000E+03 0.  0.
         25    1    1    2    0    0 -0.36967716510E+01 -0.95849054358E+02  0.41698552175E+03  0.44576073480E+03  0.12500000000E+03 0.  0.
         25    1    1    2    0    0 -0.17273395292E+03 -0.25924634466E+02 -0.38280876693E+02  0.21817316674E+03  0.12500000000E+03 0.  0.
</event>
<event>
 5    0  0.5547141E-005  0.4513589E+03  0.7546771E-02  0.1027318E+00
         21   -1    0    0  502  501  0.00000000000E+00  0.00000000000E+00  0.26032924295E+03  0.26032924295E+03  0.00000000000E+00 0.  1.
         21   -1    0    0  501  502 -0.00000000000E+00 -0.00000000000E+00 -0.78256610393E+03  0.78256610393E+03  0.00000000000E+00 0.  1.
         25    1    1    2    0    0  0.10251897993E+03  0.33268346880E+03 -0.16322598656E+03  0.40429711147E+03  0.12500000000E+03 0.  0.
         25    1    1    2    0    0 -0.67974943009E+02  0.77275693562E+01 -0.25604770745E+02  0.14477883993E+03  0.12500000000E+03 0.  0.
         25    1    1    2    0    0 -0.34544036917E+02 -0.34041103815E+03 -0.33340610368E+03  0.49381939548E+03  0.12500000000E+03 0.  0.
</event>
<event>
 5    0  0.5547141E-005  0.4210149E+03  0.7546771E-02  0.1036736E+00
         21   -1    0    0  502  501  0.00000000000E+00  0.00000000000E+00  0.20537142747E+03  0.20537142747E+03  0.00000000000E+00 0.  1.
         21   -1    0    0  501  502 -0.00000000000E+00 -0.00000000000E+00 -0.86308769676E+03  0.86308769676E+03  0.00000000000E+00 0.  1.
         25    1    1    2    0    0  0.69354744510E+01 -0.49869555636E+02  0.10872215757E+03  0.17314901366E+03  0.12500000000E+03 0.  0.
         25    1    1    2    0    0  0.14848016937E+03  0.87880099519E+02 -0.19481567586E+03  0.28869953264E+03  0.12500000000E+03 0.  0.
         25    1    1    2    0    0 -0.15541564382E+03 -0.38010543883E+02 -0.57162275100E+03  0.60661057793E+03  0.12500000000E+03 0.  0.
</event>
<event>
 5    0  0.6775089E-005  0.2796453E+03  0.7546771E-02  0.1095883E+00
         21   -1    0    0  502  501  0.00000000000E+00  0.00000000000E+00  0.22376253611E+03  0.22376253611E+03  0.00000000000E+00 0. -1.
         21   -1    0    0  501  502 -0.00000000000E+00 -0.00000000000E+00 -0.34948432210E+03  0.34948432210E+03  0.00000000000E+00 0. -1.
         25    1    1    2    0    0 -0.26344763539E+02 -0.11025884945E+03 -0.75110607046E+02  0.18470967419E+03  0.12500000000E+03 0.  0.
         25    1    1    2    0    0  0.53080178045E+02  0.32373127984E+02 -0.15304658825E+03  0.20715642132E+03  0.12500000000E+03 0.  0.
         25    1    1    2    0    0 -0.26735414506E+02  0.77885721471E+02  0.10243540931E+03  0.18138076270E+03  0.12500000000E+03 0.  0.
</event>
<event>
 5    0  0.5547141E-005  0.2764138E+03  0.7546771E-02  0.1097664E+00
         21   -1    0    0  502  501  0.00000000000E+00  0.00000000000E+00  0.76174484942E+02  0.76174484942E+02  0.00000000000E+00 0. -1.
         21   -1    0    0  501  502 -0.00000000000E+00 -0.00000000000E+00 -0.10030208244E+04  0.10030208244E+04  0.00000000000E+00 0. -1.
         25    1    1    2    0    0  0.16480422954E+03  0.39324605019E+02 -0.47219637603E+03  0.51701187237E+03  0.12500000000E+03 0.  0.
         25    1    1    2    0    0 -0.90533725692E+02  0.96248044195E+01 -0.12594991909E+03  0.19944265960E+03  0.12500000000E+03 0.  0.
         25    1    1    2    0    0 -0.74270503852E+02 -0.48949409438E+02 -0.32870004437E+03  0.36274077741E+03  0.12500000000E+03 0.  0.
</event>
<event>
 5    0  0.5547141E-005  0.2565476E+03  0.7546771E-02  0.1109235E+00
         21   -1    0    0  502  501  0.00000000000E+00  0.00000000000E+00  0.33639010990E+03  0.33639010990E+03  0.00000000000E+00 0.  1.
         21   -1    0    0  501  502 -0.00000000000E+00 -0.00000000000E+00 -0.19565580585E+03  0.19565580585E+03  0.00000000000E+00 0.  1.
         25    1    1    2    0    0 -0.21426997013E+02  0.37074776079E+02  0.43775127851E+02  0.13919381107E+03  0.12500000000E+03 0.  0.
         25    1    1    2    0    0 -0.59288420780E+02  0.16279517444E+02  0.16910652291E+03  0.21909394245E+03  0.12500000000E+03 0.  0.
         25    1    1    2    0    0  0.80715417793E+02 -0.53354293524E+02 -0.72147346703E+02  0.17375816223E+03  0.12500000000E+03 0.  0.
</event>
<event>
 5    0  0.5547141E-005  0.3635580E+03  0.7546771E-02  0.1057184E+00
         21   -1    0    0  502  501  0.00000000000E+00  0.00000000000E+00  0.35081031629E+03  0.35081031629E+03  0.00000000000E+00 0. -1.
         21   -1    0    0  501  502 -0.00000000000E+00 -0.00000000000E+00 -0.37676891414E+03  0.37676891414E+03  0.00000000000E+00 0. -1.
         25    1    1    2    0    0  0.27190473196E+02  0.97103600153E+02  0.42061416238E+02  0.16601985945E+03  0.12500000000E+03 0.  0.
         25    1    1    2    0    0 -0.43524946269E+02 -0.28274618493E+03 -0.11425973132E+03  0.33244565306E+03  0.12500000000E+03 0.  0.
         25    1    1    2    0    0  0.16334473074E+02  0.18564258477E+03  0.46239717227E+02  0.22911371793E+03  0.12500000000E+03 0.  0.
</event>
<event>
 5    0  0.6108512E-005  0.3370465E+03  0.7546771E-02  0.1068061E+00
         21   -1    0    0  502  501  0.00000000000E+00  0.00000000000E+00  0.67722049664E+03  0.67722049664E+03  0.00000000000E+00 0.  1.
         21   -1    0    0  501  502 -0.00000000000E+00 -0.00000000000E+00 -0.16774501549E+03  0.16774501549E+03  0.00000000000E+00 0. -1.
         25    1    1    2    0    0  0.75429280671E+02 -0.16323190256E+03  0.15917962075E+03  0.27073489257E+03  0.12500000000E+03 0.  0.
         25    1    1    2    0    0 -0.10697265307E+03  0.78759254959E+02 -0.96654195078E+01  0.18265976317E+03  0.12500000000E+03 0.  0.
         25    1    1    2    0    0  0.31543372395E+02  0.84472647601E+02  0.35996127992E+03  0.39157085639E+03  0.12500000000E+03 0.  0.
</event>
<event>
 5    0  0.5547141E-005  0.4958719E+03  0.7546771E-02  0.1014862E+00
         21   -1    0    0  502  501  0.00000000000E+00  0.00000000000E+00  0.28267042101E+04  0.28267042101E+04  0.00000000000E+00 0.  1.
         21   -1    0    0  501  502 -0.00000000000E+00 -0.00000000000E+00 -0.86987868007E+02  0.86987868007E+02  0.00000000000E+00 0.  1.
         25    1    1    2    0    0  0.10128193654E+03  0.19988159250E+03  0.41628169960E+03  0.48900525060E+03  0.12500000000E+03 0.  0.
         25    1    1    2    0    0  0.23590244697E+03 -0.28288504710E+02  0.62647446468E+03  0.68157571764E+03  0.12500000000E+03 0.  0.
         25    1    1    2    0    0 -0.33718438351E+03 -0.17159308779E+03  0.16969601778E+04  0.17431111099E+04  0.12500000000E+03 0.  0.
</event>
<event>
 5    0  0.5547141E-005  0.4034188E+03  0.7546771E-02  0.1042602E+00
         21   -1    0    0  502  501  0.00000000000E+00  0.00000000000E+00  0.89397964560E+02  0.89397964560E+02  0.00000000000E+00 0. -1.
         21   -1    0    0  501  502 -0.00000000000E+00 -0.00000000000E+00 -0.18204750855E+04  0.18204750855E+04  0.00000000000E+00 0. -1.
         25    1    1    2    0    0 -0.19056788769E+03 -0.86935488071E+02 -0.80439328150E+03  0.84056376928E+03  0.12500000000E+03 0.  0.
         25    1    1    2    0    0  0.14620456539E+03  0.21652216404E+03 -0.30519154399E+03  0.42074279671E+03  0.12500000000E+03 0.  0.
         25    1    1    2    0    0  0.44363322293E+02 -0.12958667597E+03 -0.62149229545E+03  0.64856648407E+03  0.12500000000E+03 0.  0.
</event>
<event>
 5    0  0.5547141E-005  0.5237960E+03  0.7546771E-02  0.1007748E+00
         21   -1    0    0  502  501  0.00000000000E+00  0.00000000000E+00  0.50892095719E+03  0.50892095719E+03  0.00000000000E+00 0. -1.
         21   -1    0    0  501  502 -0.00000000000E+00 -0.00000000000E+00 -0.53910580812E+03  0.53910580812E+03  0.00000000000E+00 0. -1.
         25    1    1    2    0    0  0.16670359098E+03  0.69421363167E+02 -0.40576491268E+03  0.46138874854E+03  0.12500000000E+03 0.  0.
         25    1    1    2    0    0 -0.23918075838E+03 -0.12058050958E+03  0.22215129442E+03  0.36976112841E+03  0.12500000000E+03 0.  0.
         25    1    1    2    0    0  0.72477167399E+02  0.51159146411E+02  0.15342876734E+03  0.21687688836E+03  0.12500000000E+03 0.  0.
</event>
<event>
 5    0  0.6317450E-005  0.2901460E+03  0.7546771E-02  0.1090273E+00
         21   -1    0    0  502  501  0.00000000000E+00  0.00000000000E+00  0.47068071146E+03  0.47068071146E+03  0.00000000000E+00 0.  1.
         21   -1    0    0  501  502 -0.00000000000E+00 -0.00000000000E+00 -0.17885734484E+03  0.17885734484E+03  0.00000000000E+00 0.  1.
         25    1    1    2    0    0  0.14174645746E+03  0.22689304537E+02  0.18578182450E+02  0.19125117413E+03  0.12500000000E+03 0.  0.
         25    1    1    2    0    0 -0.13878688223E+03  0.52576691119E+01  0.38388655481E+02  0.19075673156E+03  0.12500000000E+03 0.  0.
         25    1    1    2    0    0 -0.29595752293E+01 -0.27946973649E+02  0.23485652869E+03  0.26753015062E+03  0.12500000000E+03 0.  0.
</event>
<event>
 5    0  0.5547141E-005  0.2595096E+03  0.7546771E-02  0.1107438E+00
         21   -1    0    0  502  501  0.00000000000E+00  0.00000000000E+00  0.10861114455E+03  0.10861114455E+03  0.00000000000E+00 0. -1.
         21   -1    0    0  501  502 -0.00000000000E+00 -0.00000000000E+00 -0.62005809661E+03  0.62005809661E+03  0.00000000000E+00 0. -1.
         25    1    1    2    0    0 -0.47403958473E+02  0.11495582914E+02 -0.25801207035E+03  0.29081697363E+03  0.12500000000E+03 0.  0.
         25    1    1    2    0    0  0.83858740857E+02  0.90724412220E+02 -0.19448515811E+03  0.26213104378E+03  0.12500000000E+03 0.  0.
         25    1    1    2    0    0 -0.36454782385E+02 -0.10221999513E+03 -0.58949723604E+02  0.17572122375E+03  0.12500000000E+03 0.  0.
</event>
<event>
 5    0  0.5547141E-005  0.2432838E+03  0.7546771E-02  0.1117624E+00
         21   -1    0    0  502  501  0.00000000000E+00  0.00000000000E+00  0.14320113448E+03  0.14320113448E+03  0.00000000000E+00 0. -1.
         21   -1    0    0  501  502 -0.00000000000E+00 -0.00000000000E+00 -0.41331367252E+03  0.41331367252E+03  0.00000000000E+00 0. -1.
         25    1    1    2    0    0 -0.97597699103E+02 -0.11934630182E-01 -0.88111583757E+01  0.15883308070E+03  0.12500000000E+03 0.  0.
         25    1    1    2    0    0  0.87833021383E+01 -0.46809657182E+02 -0.15770842207E+03  0.20679757444E+03  0.12500000000E+03 0.  0.
         25    1    1    2    0    0  0.88814396965E+02  0.46821591813E+02 -0.10359295759E+03  0.19088415186E+03  0.12500000000E+03 0.  0.
</event>
<event>
 5    0  0.5547141E-005  0.3583127E+03  0.7546771E-02  0.1059254E+00
         21   -1    0    0  502  501  0.00000000000E+00  0.00000000000E+00  0.17219813693E+04  0.17219813693E+04  0.00000000000E+00 0. -1.
         21   -1    0    0  501  502 -0.00000000000E+00 -0.00000000000E+00 -0.74558306273E+02  0.74558306273E+02  0.00000000000E+00 0. -1.
         25    1    1    2    0    0  0.20340470511E+02 -0.16668127009E+03  0.47516695242E+03  0.51923502695E+03  0.12500000000E+03 0.  0.
         25    1    1    2    0    0  0.15808961949E+03 -0.33079251601E+01  0.71657665150E+03  0.74438589968E+03  0.12500000000E+03 0.  0.
         25    1    1    2    0    0 -0.17843009000E+03  0.16998919525E+03  0.45567945906E+03  0.53291874890E+03  0.12500000000E+03 0.  0.
</event>
<event>
 5    0  0.6554663E-005  0.4224003E+03  0.7546771E-02  0.1036288E+00
         21   -1    0    0  502  501  0.00000000000E+00  0.00000000000E+00  0.28035495012E+03  0.28035495012E+03  0.00000000000E+00 0. -1.
         21   -1    0    0  501  502 -0.00000000000E+00 -0.00000000000E+00 -0.63641471325E+03  0.63641471325E+03  0.00000000000E+00 0. -1.
         25    1    1    2    0    0 -0.41607445981E+01  0.19144558878E+03  0.41010025477E+02  0.23232638130E+03  0.12500000000E+03 0.  0.
         25    1    1    2    0    0 -0.21738378763E+03 -0.13827864940E+03 -0.27613574929E+03  0.39780981391E+03  0.12500000000E+03 0.  0.
         25    1    1    2    0    0  0.22154453223E+03 -0.53166939378E+02 -0.12093403933E+03  0.28663346817E+03  0.12500000000E+03 0.  0.
</event>
