<event>
 6    0  0.2036847E+002  0.2078549E+03  0.7546771E-02  0.1143276E+00
         21   -1    0    0  504  501  0.00000000000E+00  0.00000000000E+00  0.89469745968E+03  0.89469745968E+03  0.00000000000E+00 0. -1.
         21   -1    0    0  505  502 -0.00000000000E+00 -0.00000000000E+00 -0.69398233625E+03  0.69398233625E+03  0.00000000000E+00 0. -1.
         21    1    1    2  503  502 -0.23018867614E+02 -0.83454285695E+02  0.26221421464E+03  0.27613543855E+03  0.00000000000E+00 0.  1.
         21    1    1    2  504  503 -0.36871065997E+02 -0.80385376392E+02  0.58942292516E+03  0.59602069507E+03  0.00000000000E+00 0. -1.
         21    1    1    2  505  506  0.43081338289E+02  0.19119249678E+03 -0.65542957035E+03  0.68410415451E+03  0.00000000000E+00 0. -1.
         21    1    1    2  506  501  0.16808595322E+02 -0.27352834696E+02  0.45075539759E+01  0.32419507792E+02  0.00000000000E+00 0. -1.
<scales pt_clust_3="67.28152" pt_clust_4="67.28152" pt_clust_5="195.61034" pt_clust_6="32.10462"></scales>
<clustering>
<clus scale="   32.105">  1  6  2 -1</clus>
<clus scale="   67.282">  3  4 -1 -1</clus>
<clus scale="  195.610">  2  5  1 -1</clus>
<clus scale="   32.105">  1  3  2 -1</clus>
</clustering>
</event>
<event>
 6    0  0.2036847E+002  0.8584027E+02  0.7546771E-02  0.1313250E+00
         21   -1    0    0  505  501  0.00000000000E+00  0.00000000000E+00  0.17859836002E+02  0.17859836002E+02  0.00000000000E+00 0. -1.
         21   -1    0    0  506  502 -0.00000000000E+00 -0.00000000000E+00 -0.12810813028E+04  0.12810813028E+04  0.00000000000E+00 0. -1.
         21    1    1    2  503  502 -0.58427880933E+01 -0.34039422686E+02 -0.42966272164E+03  0.43104857596E+03  0.00000000000E+00 0. -1.
         21    1    1    2  504  503 -0.35845540985E+02 -0.53444720202E+02 -0.29812927645E+03  0.30499558424E+03  0.00000000000E+00 0. -1.
         21    1    1    2  505  504  0.21519061873E+02 -0.30098831561E+02 -0.45467524701E+02  0.58620009277E+02  0.00000000000E+00 0. -1.
         21    1    1    2  506  501  0.20169267206E+02  0.11758297445E+03 -0.48996194396E+03  0.50427696928E+03  0.00000000000E+00 0. -1.
<scales pt_clust_3="34.53723" pt_clust_4="85.84027" pt_clust_5="38.51552" pt_clust_6="14000.00000"></scales>
<clustering>
<clus scale="   34.537">  2  3  1 -1</clus>
<clus scale="   38.516">  1  5  2 -1</clus>
<clus scale="   85.840">  1  4  2 -1</clus>
<clus scale="   38.516">  1  3  2 -1</clus>
</clustering>
</event>
<event>
 6    0  0.2036847E+002  0.1367899E+03  0.7546771E-02  0.1217715E+00
         21   -1    0    0  504  501  0.00000000000E+00  0.00000000000E+00  0.76176876296E+02  0.76176876296E+02  0.00000000000E+00 0.  1.
         21   -1    0    0  506  502 -0.00000000000E+00 -0.00000000000E+00 -0.33746700076E+03  0.33746700076E+03  0.00000000000E+00 0.  1.
         21    1    1    2  503  505 -0.42918254130E+02 -0.39713080214E+02 -0.62172701495E+02  0.85349575798E+02  0.00000000000E+00 0.  1.
         21    1    1    2  504  503 -0.26363057763E+02 -0.58476614535E+02 -0.60078225090E+01  0.64425299327E+02  0.00000000000E+00 0.  1.
         21    1    1    2  505  502  0.10967122840E+03  0.77487712802E+02 -0.13955281665E+03  0.19366753112E+03  0.00000000000E+00 0.  1.
         21    1    1    2  506  501 -0.40389916510E+02  0.20701981947E+02 -0.53556783804E+02  0.70201470808E+02  0.00000000000E+00 0.  1.
<scales pt_clust_3="57.61772" pt_clust_4="57.61772" pt_clust_5="123.97047" pt_clust_6="45.38631"></scales>
<clustering>
<clus scale="   45.386">  2  6  1 -1</clus>
<clus scale="   57.618">  3  4 -1 -1</clus>
<clus scale="  123.970">  2  5  1 -1</clus>
<clus scale="  136.790">  1  3  2 -1</clus>
</clustering>
</event>
<event>
 6    0  0.2036847E+002  0.1324391E+03  0.7546771E-02  0.1223881E+00
         21   -1    0    0  505  501  0.00000000000E+00  0.00000000000E+00  0.20264442306E+04  0.20264442306E+04  0.00000000000E+00 0.  1.
         21   -1    0    0  503  502 -0.00000000000E+00 -0.00000000000E+00 -0.72783074544E+03  0.72783074544E+03  0.00000000000E+00 0. -1.
         21    1    1    2  503  501  0.27128833994E+02  0.21571441437E+02 -0.63110137464E+02  0.72001320615E+02  0.00000000000E+00 0.  1.
         21    1    1    2  504  502  0.40225323274E+02 -0.10545413114E+02 -0.64860769668E+03  0.64993940222E+03  0.00000000000E+00 0. -1.
         21    1    1    2  505  506 -0.13722594877E+03  0.58160065606E+02  0.17063101349E+04  0.17128070034E+04  0.00000000000E+00 0.  1.
         21    1    1    2  506  504  0.69871791505E+02 -0.69186093929E+02  0.30402118440E+03  0.31952724986E+03  0.00000000000E+00 0. -1.
<scales pt_clust_3="34.65979" pt_clust_4="67.74712" pt_clust_5="14000.00000" pt_clust_6="132.43913"></scales>
<clustering>
<clus scale="   34.660">  2  3  1 -1</clus>
<clus scale="   67.747">  2  4  1 -1</clus>
<clus scale="  132.439">  2  6  1 -1</clus>
<clus scale="  132.439">  1  3  2 -1</clus>
</clustering>
</event>
<event>
 6    0  0.2036847E+002  0.1252460E+03  0.7546771E-02  0.1234685E+00
         21   -1    0    0  506  501  0.00000000000E+00  0.00000000000E+00  0.28940994773E+03  0.28940994773E+03  0.00000000000E+00 0. -1.
         21   -1    0    0  503  502 -0.00000000000E+00 -0.00000000000E+00 -0.23546172796E+03  0.23546172796E+03  0.00000000000E+00 0. -1.
         21    1    1    2  503  501  0.14275853839E+03  0.11611164792E+02 -0.14026842182E+03  0.20047456095E+03  0.00000000000E+00 0. -1.
         21    1    1    2  504  502 -0.18686156900E+02  0.29824216089E+02  0.36721637619E+00  0.35196465347E+02  0.00000000000E+00 0. -1.
         21    1    1    2  505  504 -0.28857427339E+01 -0.66888450936E+02  0.10229663878E+02  0.67727678262E+02  0.00000000000E+00 0. -1.
         21    1    1    2  506  505 -0.12118663875E+03  0.25453070055E+02  0.18361976133E+03  0.22147297112E+03  0.00000000000E+00 0. -1.
<scales pt_clust_3="125.24597" pt_clust_4="35.19455" pt_clust_5="63.18306" pt_clust_6="14000.00000"></scales>
<clustering>
<clus scale="   35.195">  2  4  1 -1</clus>
<clus scale="   63.183">  2  5  1 -1</clus>
<clus scale="  125.246">  2  3  1 -1</clus>
<clus scale="  125.246">  1  3  2 -1</clus>
</clustering>
</event>
<event>
 6    0  0.2036847E+002  0.2253661E+03  0.7546771E-02  0.1129945E+00
         21   -1    0    0  505  501  0.00000000000E+00  0.00000000000E+00  0.19664448807E+04  0.19664448807E+04  0.00000000000E+00 0. -1.
         21   -1    0    0  504  502 -0.00000000000E+00 -0.00000000000E+00 -0.32335279926E+03  0.32335279926E+03  0.00000000000E+00 0.  1.
         21    1    1    2  503  501  0.25140235402E+03  0.15093811509E+03  0.16771393856E+04  0.17025809751E+04  0.00000000000E+00 0. -1.
         21    1    1    2  504  503 -0.24788763201E+02 -0.39319851944E+02 -0.15986059769E+03  0.16648106268E+03  0.00000000000E+00 0.  1.
         21    1    1    2  505  506 -0.81487223055E+02  0.58896214784E+00  0.20524617453E+03  0.22083139849E+03  0.00000000000E+00 0.  1.
         21    1    1    2  506  502 -0.14512636776E+03 -0.11220722530E+03 -0.79432881033E+02  0.19990424362E+03  0.00000000000E+00 0.  1.
<scales pt_clust_3="14000.00000" pt_clust_4="46.48154" pt_clust_5="82.70376" pt_clust_6="225.36606"></scales>
<clustering>
<clus scale="   46.482">  2  4  1 -1</clus>
<clus scale="   82.704">  1  5  2 -1</clus>
<clus scale="  225.366">  2  6  1 -1</clus>
<clus scale="   82.704">  1  3  2 -1</clus>
</clustering>
</event>
<event>
 6    0  0.2036847E+002  0.9841335E+02  0.7546771E-02  0.1283668E+00
         21   -1    0    0  504  501  0.00000000000E+00  0.00000000000E+00  0.15379001955E+03  0.15379001955E+03  0.00000000000E+00 0.  1.
         21   -1    0    0  506  502 -0.00000000000E+00 -0.00000000000E+00 -0.67592274293E+03  0.67592274293E+03  0.00000000000E+00 0.  1.
         21    1    1    2  503  502  0.30732733358E+02 -0.27834614145E+02 -0.83850104803E+02  0.93542005109E+02  0.00000000000E+00 0.  1.
         21    1    1    2  504  505 -0.26210301847E+02 -0.48842029117E+02  0.93773391597E+02  0.10893104563E+03  0.00000000000E+00 0.  1.
         21    1    1    2  505  503 -0.71237095605E+02  0.86043726077E+02 -0.23385900590E+02  0.11412776583E+03  0.00000000000E+00 0.  1.
         21    1    1    2  506  501  0.66714664094E+02 -0.93670828156E+01 -0.50867010958E+03  0.51311194590E+03  0.00000000000E+00 0.  1.
<scales pt_clust_3="41.46404" pt_clust_4="55.56176" pt_clust_5="98.41335" pt_clust_6="14000.00000"></scales>
<clustering>
<clus scale="   41.464">  2  3  1 -1</clus>
<clus scale="   55.562">  1  4  2 -1</clus>
<clus scale="   98.413">  1  5  2 -1</clus>
<clus scale="   55.562">  1  3  2 -1</clus>
</clustering>
</event>
<event>
 6    0  0.2036847E+002  0.2079578E+03  0.7546771E-02  0.1143193E+00
         21   -1    0    0  503  501  0.00000000000E+00  0.00000000000E+00  0.65593329009E+03  0.65593329009E+03  0.00000000000E+00 0.  1.
         21   -1    0    0  504  502 -0.00000000000E+00 -0.00000000000E+00 -0.15275570421E+04  0.15275570421E+04  0.00000000000E+00 0.  1.
         21    1    1    2  503  502  0.56146600858E+02  0.23098785612E+02  0.90843021551E+02  0.10926321087E+03  0.00000000000E+00 0. -1.
         21    1    1    2  504  505 -0.64809034913E+02  0.96153382814E+01 -0.34320628122E+03  0.34940408870E+03  0.00000000000E+00 0.  1.
         21    1    1    2  505  506 -0.13744599036E+03  0.15537038302E+02 -0.11571347790E+04  0.11653727716E+04  0.00000000000E+00 0.  1.
         21    1    1    2  506  501  0.14610842442E+03 -0.48251162196E+02  0.53787428669E+03  0.55945026108E+03  0.00000000000E+00 0.  1.
<scales pt_clust_3="60.71239" pt_clust_4="30.67016" pt_clust_5="30.67016" pt_clust_6="203.12691"></scales>
<clustering>
<clus scale="   30.670">  4  5 -1 -1</clus>
<clus scale="   60.712">  1  3  2 -1</clus>
<clus scale="  203.127">  1  6  2 -1</clus>
<clus scale="   60.712">  1  3  2 -1</clus>
</clustering>
</event>
<event>
 6    0  0.2036847E+002  0.3347306E+03  0.7546771E-02  0.1069063E+00
         21   -1    0    0  505  501  0.00000000000E+00  0.00000000000E+00  0.10218624033E+04  0.10218624033E+04  0.00000000000E+00 0. -1.
         21   -1    0    0  504  502 -0.00000000000E+00 -0.00000000000E+00 -0.10929242603E+04  0.10929242603E+04  0.00000000000E+00 0. -1.
         21    1    1    2  503  502  0.60288034938E+01  0.43348974470E+02 -0.80372986165E+02  0.91516648563E+02  0.00000000000E+00 0. -1.
         21    1    1    2  504  501  0.22310762655E+03 -0.24311895421E+03 -0.95093331304E+03  0.10065575020E+04  0.00000000000E+00 0. -1.
         21    1    1    2  505  506 -0.21241178800E+03  0.11919960228E+03  0.80452824181E+03  0.84059086644E+03  0.00000000000E+00 0. -1.
         21    1    1    2  506  503 -0.16724642050E+02  0.80570377461E+02  0.15571620038E+03  0.17612164670E+03  0.00000000000E+00 0. -1.
<scales pt_clust_3="43.76620" pt_clust_4="304.66572" pt_clust_5="80.74460" pt_clust_6="80.74460"></scales>
<clustering>
<clus scale="   43.766">  2  3  1 -1</clus>
<clus scale="   80.745">  5  6 -1 -1</clus>
<clus scale="  304.666">  2  4  1 -1</clus>
<clus scale="  334.731">  1  3  2 -1</clus>
</clustering>
</event>
<event>
 6    0  0.2036847E+002  0.1355811E+03  0.7546771E-02  0.1219402E+00
         21   -1    0    0  504  501  0.00000000000E+00  0.00000000000E+00  0.65417114786E+03  0.65417114786E+03  0.00000000000E+00 0. -1.
         21   -1    0    0  505  502 -0.00000000000E+00 -0.00000000000E+00 -0.27314923276E+02  0.27314923276E+02  0.00000000000E+00 0. -1.
         21    1    1    2  503  502 -0.44229361316E+02  0.26662891149E+02  0.78074760494E+02  0.93609905422E+02  0.00000000000E+00 0. -1.
         21    1    1    2  504  503 -0.40327516609E+02  0.66093120409E+02  0.23924255586E+03  0.25145896225E+03  0.00000000000E+00 0. -1.
         21    1    1    2  505  506  0.27234075251E+02 -0.41090451272E+02  0.77191067414E+02  0.91589196574E+02  0.00000000000E+00 0. -1.
         21    1    1    2  506  501  0.57322802674E+02 -0.51665560286E+02  0.23234784082E+03  0.24482800689E+03  0.00000000000E+00 0. -1.
<scales pt_clust_3="41.87377" pt_clust_4="41.87377" pt_clust_5="32.05633" pt_clust_6="131.76570"></scales>
<clustering>
<clus scale="   32.056">  5  6 -1 -1</clus>
<clus scale="   41.874">  3  4 -1 -1</clus>
<clus scale="  131.766">  1  5  2 -1</clus>
<clus scale="  131.766">  1  3  2 -1</clus>
</clustering>
</event>
<event>
 6    0  0.2036847E+002  0.1583123E+03  0.7546771E-02  0.1190615E+00
         21   -1    0    0  503  501  0.00000000000E+00  0.00000000000E+00  0.36159159549E+03  0.36159159549E+03  0.00000000000E+00 0. -1.
         21   -1    0    0  504  502 -0.00000000000E+00 -0.00000000000E+00 -0.13287935411E+03  0.13287935411E+03  0.00000000000E+00 0. -1.
         21    1    1    2  503  502 -0.12659733238E+03  0.10017418489E+03  0.15741233609E+02  0.16220215263E+03  0.00000000000E+00 0. -1.
         21    1    1    2  504  506 -0.22397791822E+02 -0.80891674384E+02  0.29344028002E+02  0.88916792804E+02  0.00000000000E+00 0. -1.
         21    1    1    2  505  501  0.60891043947E+02 -0.34943450793E+02  0.80292298034E+02  0.10665653806E+03  0.00000000000E+00 0. -1.
         21    1    1    2  506  505  0.88104080251E+02  0.15660940289E+02  0.10333468173E+03  0.13669546611E+03  0.00000000000E+00 0. -1.
<scales pt_clust_3="148.77099" pt_clust_4="83.93524" pt_clust_5="47.94468" pt_clust_6="47.94468"></scales>
<clustering>
<clus scale="   47.945">  5  6 -1 -1</clus>
<clus scale="   83.935">  2  4  1 -1</clus>
<clus scale="  148.771">  2  3  1 -1</clus>
<clus scale="  158.312">  1  3  2 -1</clus>
</clustering>
</event>
<event>
 6    0  0.2036847E+002  0.6291880E+02  0.7546771E-02  0.1385976E+00
         21   -1    0    0  504  501  0.00000000000E+00  0.00000000000E+00  0.19698668385E+04  0.19698668385E+04  0.00000000000E+00 0. -1.
         21   -1    0    0  505  502 -0.00000000000E+00 -0.00000000000E+00 -0.41770677785E+02  0.41770677785E+02  0.00000000000E+00 0. -1.
         21    1    1    2  503  501  0.65933347457E+02 -0.65907269375E+02  0.14406541301E+04  0.14436673083E+04  0.00000000000E+00 0. -1.
         21    1    1    2  504  506 -0.36759699223E+02  0.11928135439E+02  0.38947645850E+03  0.39138915114E+03  0.00000000000E+00 0. -1.
         21    1    1    2  505  503  0.31229075667E+02  0.68443206004E+02  0.84295119491E+02  0.11298404660E+03  0.00000000000E+00 0. -1.
         21    1    1    2  506  502 -0.60402723900E+02 -0.14464072068E+02  0.13670452589E+02  0.63597010223E+02  0.00000000000E+00 0. -1.
<scales pt_clust_3="14000.00000" pt_clust_4="38.64655" pt_clust_5="62.10485" pt_clust_6="62.91880"></scales>
<clustering>
<clus scale="   38.647">  1  4  2 -1</clus>
<clus scale="   62.919">  2  6  1 -1</clus>
<clus scale="   62.105">  2  5  1 -1</clus>
<clus scale="   38.647">  1  3  2 -1</clus>
</clustering>
</event>
<event>
 6    0  0.2036847E+002  0.8479291E+02  0.7546771E-02  0.1315975E+00
         21   -1    0    0  504  501  0.00000000000E+00  0.00000000000E+00  0.76938483235E+03  0.76938483235E+03  0.00000000000E+00 0.  1.
         21   -1    0    0  506  502 -0.00000000000E+00 -0.00000000000E+00 -0.25769470342E+03  0.25769470342E+03  0.00000000000E+00 0. -1.
         21    1    1    2  503  502  0.10918776428E+03 -0.53856596779E+02 -0.19062780822E+03  0.22618899653E+03  0.00000000000E+00 0. -1.
         21    1    1    2  504  503  0.27159211908E+01  0.43667123076E+02  0.63862796378E+03  0.64012488624E+03  0.00000000000E+00 0.  1.
         21    1    1    2  505  501 -0.83166822784E+02 -0.23097960702E+02  0.76101030338E+02  0.11507216440E+03  0.00000000000E+00 0. -1.
         21    1    1    2  506  505 -0.28736862684E+02  0.33287434405E+02 -0.12411056961E+02  0.45693488607E+02  0.00000000000E+00 0.  1.
<scales pt_clust_3="84.79291" pt_clust_4="43.75150" pt_clust_5="14000.00000" pt_clust_6="48.13896"></scales>
<clustering>
<clus scale="   43.752">  1  4  2 -1</clus>
<clus scale="   48.139">  2  6  1 -1</clus>
<clus scale="   84.793">  2  3  1 -1</clus>
<clus scale="   43.752">  1  3  2 -1</clus>
</clustering>
</event>
<event>
 6    0  0.2036847E+002  0.1244927E+03  0.7546771E-02  0.1235864E+00
         21   -1    0    0  506  501  0.00000000000E+00  0.00000000000E+00  0.37599815747E+02  0.37599815747E+02  0.00000000000E+00 0. -1.
         21   -1    0    0  505  502 -0.00000000000E+00 -0.00000000000E+00 -0.11987837190E+04  0.11987837190E+04  0.00000000000E+00 0.  1.
         21    1    1    2  503  504  0.19448785472E+02 -0.32158660397E+02 -0.12463192980E+02  0.39595023351E+02  0.00000000000E+00 0. -1.
         21    1    1    2  504  502 -0.87208393887E+02  0.35858341973E+02 -0.42262721702E+03  0.43301834744E+03  0.00000000000E+00 0. -1.
         21    1    1    2  505  501  0.61812410969E+02  0.83681166585E+02 -0.60748807130E+03  0.61633194673E+03  0.00000000000E+00 0.  1.
         21    1    1    2  506  503  0.59471974459E+01 -0.87380848161E+02 -0.11860542198E+03  0.14743821725E+03  0.00000000000E+00 0. -1.
<scales pt_clust_3="35.07977" pt_clust_4="94.29276" pt_clust_5="112.38605" pt_clust_6="35.07977"></scales>
<clustering>
<clus scale="   35.080">  3  6 -1 -1</clus>
<clus scale="   94.293">  2  4  1 -1</clus>
<clus scale="  112.386">  2  5  1 -1</clus>
<clus scale="  124.493">  1  3  2 -1</clus>
</clustering>
</event>
<event>
 6    0  0.2036847E+002  0.1427367E+03  0.7546771E-02  0.1209693E+00
         21   -1    0    0  505  501  0.00000000000E+00  0.00000000000E+00  0.29539994743E+02  0.29539994743E+02  0.00000000000E+00 0.  1.
         21   -1    0    0  506  502 -0.00000000000E+00 -0.00000000000E+00 -0.21381518738E+04  0.21381518738E+04  0.00000000000E+00 0. -1.
         21    1    1    2  503  502  0.18407228090E+02  0.50802873651E+02 -0.62951975925E+03  0.63183453950E+03  0.00000000000E+00 0. -1.
         21    1    1    2  504  503 -0.23308841359E+02  0.88185339973E+02 -0.12395206094E+04  0.12428721968E+04  0.00000000000E+00 0. -1.
         21    1    1    2  505  504 -0.39389207741E+02 -0.26648450820E+02 -0.76359480943E+02  0.89957878741E+02  0.00000000000E+00 0.  1.
         21    1    1    2  506  501  0.44290821010E+02 -0.11233976280E+03 -0.16321202945E+03  0.20302725357E+03  0.00000000000E+00 0.  1.
<scales pt_clust_3="33.29847" pt_clust_4="33.29847" pt_clust_5="47.55680" pt_clust_6="136.02233"></scales>
<clustering>
<clus scale="   33.298">  3  4 -1 -1</clus>
<clus scale="   47.557">  1  5  2 -1</clus>
<clus scale="  136.022">  1  6  2 -1</clus>
<clus scale="   47.557">  1  3  2 -1</clus>
</clustering>
</event>
<event>
 6    0  0.2036847E+002  0.2549927E+03  0.7546771E-02  0.1110190E+00
         21   -1    0    0  505  501  0.00000000000E+00  0.00000000000E+00  0.34727546728E+03  0.34727546728E+03  0.00000000000E+00 0.  1.
         21   -1    0    0  506  502 -0.00000000000E+00 -0.00000000000E+00 -0.10874660623E+04  0.10874660623E+04  0.00000000000E+00 0.  1.
         21    1    1    2  503  501  0.11308303600E+03 -0.80912460236E+02  0.11839130074E+03  0.18262283358E+03  0.00000000000E+00 0.  1.
         21    1    1    2  504  502  0.39507278004E+02  0.22502853577E+03 -0.89381887926E+03  0.92255669519E+03  0.00000000000E+00 0.  1.
         21    1    1    2  505  504 -0.13733012202E+03 -0.18538983580E+03  0.99844707533E+02  0.25139196339E+03  0.00000000000E+00 0.  1.
         21    1    1    2  506  503 -0.15260191982E+02  0.41273760268E+02 -0.64607724060E+02  0.78170037446E+02  0.00000000000E+00 0. -1.
<scales pt_clust_3="137.89973" pt_clust_4="14000.00000" pt_clust_5="254.99265" pt_clust_6="44.00451"></scales>
<clustering>
<clus scale="   44.005">  2  6  1 -1</clus>
<clus scale="  137.900">  1  3  2 -1</clus>
<clus scale="  254.993">  1  5  2 -1</clus>
<clus scale="  137.900">  1  3  2 -1</clus>
</clustering>
</event>
<event>
 6    0  0.2036847E+002  0.1660160E+03  0.7546771E-02  0.1182067E+00
         21   -1    0    0  504  501  0.00000000000E+00  0.00000000000E+00  0.14495726763E+04  0.14495726763E+04  0.00000000000E+00 0. -1.
         21   -1    0    0  505  502 -0.00000000000E+00 -0.00000000000E+00 -0.35397456911E+02  0.35397456911E+02  0.00000000000E+00 0. -1.
         21    1    1    2  503  502 -0.71595104814E+02 -0.69109384507E+02  0.84235914855E+02  0.13037505671E+03  0.00000000000E+00 0. -1.
         21    1    1    2  504  503 -0.44276899932E+02 -0.31802947058E+02  0.14119343732E+03  0.15135209959E+03  0.00000000000E+00 0. -1.
         21    1    1    2  505  506  0.79406396860E+02  0.11945826302E+03  0.84746860113E+03  0.85952235711E+03  0.00000000000E+00 0. -1.
         21    1    1    2  506  501  0.36465607886E+02 -0.18545931454E+02  0.34127726609E+03  0.34372061981E+03  0.00000000000E+00 0. -1.
<scales pt_clust_3="51.25859" pt_clust_4="51.25859" pt_clust_5="150.39657" pt_clust_6="40.91078"></scales>
<clustering>
<clus scale="   40.911">  1  6  2 -1</clus>
<clus scale="   51.259">  3  4 -1 -1</clus>
<clus scale="  150.397">  1  5  2 -1</clus>
<clus scale="   40.911">  1  3  2 -1</clus>
</clustering>
</event>
<event>
 6    0  0.2036847E+002  0.9377748E+02  0.7546771E-02  0.1293953E+00
         21   -1    0    0  503  501  0.00000000000E+00  0.00000000000E+00  0.27075101980E+03  0.27075101980E+03  0.00000000000E+00 0.  1.
         21   -1    0    0  504  502 -0.00000000000E+00 -0.00000000000E+00 -0.29045556633E+03  0.29045556633E+03  0.00000000000E+00 0.  1.
         21    1    1    2  503  506  0.86597901131E+02  0.47261919042E+02  0.22926959027E+03  0.24959453218E+03  0.00000000000E+00 0.  1.
         21    1    1    2  504  505 -0.26851584033E+02 -0.26308887546E+02 -0.71329001834E+01  0.38262819996E+02  0.00000000000E+00 0.  1.
         21    1    1    2  505  501 -0.63944920543E+02  0.28250956874E+02 -0.91782995700E+02  0.11537412070E+03  0.00000000000E+00 0.  1.
         21    1    1    2  506  502  0.41986034447E+01 -0.49203988371E+02 -0.15005824091E+03  0.15797511325E+03  0.00000000000E+00 0.  1.
<scales pt_clust_3="14000.00000" pt_clust_4="37.59209" pt_clust_5="93.77748" pt_clust_6="65.31271"></scales>
<clustering>
<clus scale="   37.592">  2  4  1 -1</clus>
<clus scale="   65.313">  2  6  1 -1</clus>
<clus scale="   93.777">  2  5  1 -1</clus>
<clus scale="   93.777">  1  3  2 -1</clus>
</clustering>
</event>
<event>
 6    0  0.2036847E+002  0.9603785E+02  0.7546771E-02  0.1288856E+00
         21   -1    0    0  504  501  0.00000000000E+00  0.00000000000E+00  0.84591092021E+02  0.84591092021E+02  0.00000000000E+00 0. -1.
         21   -1    0    0  505  502 -0.00000000000E+00 -0.00000000000E+00 -0.37396635659E+03  0.37396635659E+03  0.00000000000E+00 0. -1.
         21    1    1    2  503  501  0.48012020068E+02 -0.62431699760E+01 -0.17196746722E+02  0.51379561503E+02  0.00000000000E+00 0. -1.
         21    1    1    2  504  506 -0.10360512156E+03 -0.19761206234E+02 -0.75465779018E+02  0.12969044023E+03  0.00000000000E+00 0. -1.
         21    1    1    2  505  503 -0.11949710213E+00 -0.75309514866E+02 -0.10841854277E+03  0.13200802144E+03  0.00000000000E+00 0. -1.
         21    1    1    2  506  502  0.55712598593E+02  0.10131389108E+03 -0.88294196063E+02  0.14547942544E+03  0.00000000000E+00 0. -1.
<scales pt_clust_3="48.41623" pt_clust_4="96.03785" pt_clust_5="76.84672" pt_clust_6="14000.00000"></scales>
<clustering>
<clus scale="   48.416">  1  3  2 -1</clus>
<clus scale="   76.847">  2  5  1 -1</clus>
<clus scale="   96.038">  1  4  2 -1</clus>
<clus scale="   48.416">  1  3  2 -1</clus>
</clustering>
</event>
<event>
 6    0  0.2036847E+002  0.1349563E+03  0.7546771E-02  0.1220281E+00
         21   -1    0    0  503  501  0.00000000000E+00  0.00000000000E+00  0.16216561663E+03  0.16216561663E+03  0.00000000000E+00 0. -1.
         21   -1    0    0  505  502 -0.00000000000E+00 -0.00000000000E+00 -0.71097736785E+03  0.71097736785E+03  0.00000000000E+00 0.  1.
         21    1    1    2  503  502 -0.24183654948E+02 -0.23394356118E+02  0.99209047188E+02  0.10475963015E+03  0.00000000000E+00 0. -1.
         21    1    1    2  504  506  0.22577486615E+02  0.42766522326E+02 -0.24861988373E+03  0.25327961805E+03  0.00000000000E+00 0.  1.
         21    1    1    2  505  504  0.89453995370E+02  0.68692820882E+01 -0.41280831461E+03  0.42244515494E+03  0.00000000000E+00 0.  1.
         21    1    1    2  506  501 -0.87847827037E+02 -0.26241448296E+02  0.13407399933E+02  0.92658581344E+02  0.00000000000E+00 0. -1.
<scales pt_clust_3="33.64736" pt_clust_4="46.95854" pt_clust_5="46.95854" pt_clust_6="118.79083"></scales>
<clustering>
<clus scale="   33.647">  1  3  2 -1</clus>
<clus scale="   46.959">  4  5 -1 -1</clus>
<clus scale="  118.791">  1  6  2 -1</clus>
<clus scale="   33.647">  1  3  2 -1</clus>
</clustering>
</event>
<event>
 6    0  0.2036847E+002  0.7570921E+02  0.7546771E-02  0.1341689E+00
         21   -1    0    0  506  501  0.00000000000E+00  0.00000000000E+00  0.41529277820E+03  0.41529277820E+03  0.00000000000E+00 0.  1.
         21   -1    0    0  504  502 -0.00000000000E+00 -0.00000000000E+00 -0.69651642545E+03  0.69651642545E+03  0.00000000000E+00 0.  1.
         21    1    1    2  503  502  0.19817073940E+01  0.36147962859E+02 -0.23650282003E+03  0.23925757306E+03  0.00000000000E+00 0.  1.
         21    1    1    2  504  505 -0.61680165100E+02  0.11222619564E+02 -0.44054429938E+03  0.44498277458E+03  0.00000000000E+00 0.  1.
         21    1    1    2  505  501  0.36845995978E+02 -0.96860929814E+02  0.29906504769E+03  0.31651156360E+03  0.00000000000E+00 0.  1.
         21    1    1    2  506  503  0.22852461728E+02  0.49490347391E+02  0.96758424474E+02  0.11105729241E+03  0.00000000000E+00 0. -1.
<scales pt_clust_3="36.20224" pt_clust_4="75.70921" pt_clust_5="14000.00000" pt_clust_6="55.03667"></scales>
<clustering>
<clus scale="   36.202">  2  3  1 -1</clus>
<clus scale="   55.037">  1  6  2 -1</clus>
<clus scale="   75.709">  2  4  1 -1</clus>
<clus scale="   55.037">  1  3  2 -1</clus>
</clustering>
</event>
<event>
 6    0  0.2036847E+002  0.1315268E+03  0.7546771E-02  0.1225208E+00
         21   -1    0    0  504  501  0.00000000000E+00  0.00000000000E+00  0.81435100613E+03  0.81435100613E+03  0.00000000000E+00 0. -1.
         21   -1    0    0  505  502 -0.00000000000E+00 -0.00000000000E+00 -0.17269639588E+04  0.17269639588E+04  0.00000000000E+00 0. -1.
         21    1    1    2  503  502 -0.47766091468E+02 -0.29981200280E+02 -0.69117763726E+03  0.69347458361E+03  0.00000000000E+00 0. -1.
         21    1    1    2  504  503 -0.73183997119E+02  0.16152896050E+02 -0.10220278102E+04  0.10247720031E+04  0.00000000000E+00 0.  1.
         21    1    1    2  505  506  0.11775177932E+03  0.51106755092E+02  0.74550858874E+03  0.75647897382E+03  0.00000000000E+00 0. -1.
         21    1    1    2  506  501  0.31983092647E+01 -0.37278450863E+02  0.55083906027E+02  0.66589404443E+02  0.00000000000E+00 0. -1.
<scales pt_clust_3="43.20012" pt_clust_4="43.20012" pt_clust_5="121.74162" pt_clust_6="37.41540"></scales>
<clustering>
<clus scale="   37.415">  1  6  2 -1</clus>
<clus scale="   43.200">  3  4 -1 -1</clus>
<clus scale="  121.742">  1  5  2 -1</clus>
<clus scale="   37.415">  1  3  2 -1</clus>
</clustering>
</event>
<event>
 6    0  0.2036847E+002  0.1272207E+03  0.7546771E-02  0.1231639E+00
         21   -1    0    0  504  501  0.00000000000E+00  0.00000000000E+00  0.69818966341E+02  0.69818966341E+02  0.00000000000E+00 0.  1.
         21   -1    0    0  503  502 -0.00000000000E+00 -0.00000000000E+00 -0.45863636424E+03  0.45863636424E+03  0.00000000000E+00 0.  1.
         21    1    1    2  503  506  0.79717764509E+02  0.89142738183E+02 -0.13140871697E+03  0.17767836290E+03  0.00000000000E+00 0.  1.
         21    1    1    2  504  505 -0.77698742133E+02 -0.10830036498E+03 -0.20723725807E+03  0.24640078067E+03  0.00000000000E+00 0.  1.
         21    1    1    2  505  502 -0.31397735412E+02  0.28071630896E+01 -0.61324831542E+02  0.68952396022E+02  0.00000000000E+00 0.  1.
         21    1    1    2  506  501  0.29378713036E+02  0.16350463707E+02  0.11153408671E+02  0.35423790990E+02  0.00000000000E+00 0.  1.
<scales pt_clust_3="127.22069" pt_clust_4="14000.00000" pt_clust_5="31.52298" pt_clust_6="32.82268"></scales>
<clustering>
<clus scale="   31.523">  2  5  1 -1</clus>
<clus scale="   32.823">  1  6  2 -1</clus>
<clus scale="  127.221">  2  3  1 -1</clus>
<clus scale="   32.823">  1  3  2 -1</clus>
</clustering>
</event>
<event>
 6    0  0.2036847E+002  0.1405473E+03  0.7546771E-02  0.1212594E+00
         21   -1    0    0  503  501  0.00000000000E+00  0.00000000000E+00  0.59366585282E+03  0.59366585282E+03  0.00000000000E+00 0.  1.
         21   -1    0    0  505  502 -0.00000000000E+00 -0.00000000000E+00 -0.36831807202E+03  0.36831807202E+03  0.00000000000E+00 0. -1.
         21    1    1    2  503  502 -0.48857669474E+02 -0.83271747739E+02 -0.30098096371E+03  0.31608669120E+03  0.00000000000E+00 0. -1.
         21    1    1    2  504  506 -0.22522844946E+01  0.45776314006E+02  0.12587357319E+03  0.13395782969E+03  0.00000000000E+00 0.  1.
         21    1    1    2  505  504  0.15676687581E+02 -0.46643161134E+02 -0.39195599786E+02  0.62909761220E+02  0.00000000000E+00 0. -1.
         21    1    1    2  506  501  0.35433266387E+02  0.84138594866E+02  0.43965077111E+03  0.44902964273E+03  0.00000000000E+00 0.  1.
<scales pt_clust_3="132.95032" pt_clust_4="32.29649" pt_clust_5="49.20714" pt_clust_6="32.29649"></scales>
<clustering>
<clus scale="   32.296">  4  6 -1 -1</clus>
<clus scale="   49.207">  2  5  1 -1</clus>
<clus scale="  132.950">  2  3  1 -1</clus>
<clus scale="  140.547">  1  3  2 -1</clus>
</clustering>
</event>
<event>
 6    0  0.2036847E+002  0.1295781E+03  0.7546771E-02  0.1228083E+00
         21   -1    0    0  504  501  0.00000000000E+00  0.00000000000E+00  0.45096818926E+03  0.45096818926E+03  0.00000000000E+00 0.  1.
         21   -1    0    0  503  502 -0.00000000000E+00 -0.00000000000E+00 -0.93434160006E+02  0.93434160006E+02  0.00000000000E+00 0.  1.
         21    1    1    2  503  501  0.17318928923E+02  0.33463909729E+02  0.26899819464E+02  0.46296639625E+02  0.00000000000E+00 0. -1.
         21    1    1    2  504  506 -0.12549536157E+02 -0.46993227428E+02  0.17853238363E+03  0.18503963437E+03  0.00000000000E+00 0.  1.
         21    1    1    2  505  502 -0.20656442941E+02  0.94447134956E+02 -0.39526823977E+02  0.10444768906E+03  0.00000000000E+00 0.  1.
         21    1    1    2  506  505  0.15887050176E+02 -0.80917817257E+02  0.19162865013E+03  0.20861838621E+03  0.00000000000E+00 0.  1.
<scales pt_clust_3="37.67995" pt_clust_4="30.48025" pt_clust_5="123.35082" pt_clust_6="30.48025"></scales>
<clustering>
<clus scale="   30.480">  4  6 -1 -1</clus>
<clus scale="   37.680">  2  3  1 -1</clus>
<clus scale="  123.351">  2  5  1 -1</clus>
<clus scale="  129.578">  1  3  2 -1</clus>
</clustering>
</event>
<event>
 6    0  0.2036847E+002  0.2329399E+03  0.7546771E-02  0.1124587E+00
         21   -1    0    0  504  501  0.00000000000E+00  0.00000000000E+00  0.80212853957E+03  0.80212853957E+03  0.00000000000E+00 0. -1.
         21   -1    0    0  503  502 -0.00000000000E+00 -0.00000000000E+00 -0.14878071928E+03  0.14878071928E+03  0.00000000000E+00 0. -1.
         21    1    1    2  503  501  0.18755099198E+03 -0.11395588853E+03 -0.10303123708E+02  0.21969859690E+03  0.00000000000E+00 0. -1.
         21    1    1    2  504  506 -0.61310312524E+02 -0.41917702009E+02  0.26790167270E+03  0.27800603303E+03  0.00000000000E+00 0. -1.
         21    1    1    2  505  502 -0.11837298871E+03  0.80943405988E+02  0.28800682873E+03  0.32173270400E+03  0.00000000000E+00 0. -1.
         21    1    1    2  506  505 -0.78676907524E+01  0.74930184546E+02  0.10774244257E+03  0.13147192493E+03  0.00000000000E+00 0. -1.
<scales pt_clust_3="213.81609" pt_clust_4="74.27010" pt_clust_5="66.99835" pt_clust_6="66.99835"></scales>
<clustering>
<clus scale="   66.998">  5  6 -1 -1</clus>
<clus scale="   74.270">  1  4  2 -1</clus>
<clus scale="  213.816">  2  3  1 -1</clus>
<clus scale="   74.270">  1  3  2 -1</clus>
</clustering>
</event>
<event>
 6    0  0.2036847E+002  0.1382431E+03  0.7546771E-02  0.1215713E+00
         21   -1    0    0  506  501  0.00000000000E+00  0.00000000000E+00  0.34034886075E+03  0.34034886075E+03  0.00000000000E+00 0. -1.
         21   -1    0    0  505  502 -0.00000000000E+00 -0.00000000000E+00 -0.99417697012E+02  0.99417697012E+02  0.00000000000E+00 0. -1.
         21    1    1    2  503  502  0.15015198703E+02  0.37489886440E+02  0.36115211564E+02  0.54178005534E+02  0.00000000000E+00 0. -1.
         21    1    1    2  504  501 -0.45188632887E+02 -0.19398679715E+02  0.57850065494E+02  0.75927277013E+02  0.00000000000E+00 0. -1.
         21    1    1    2  505  504 -0.92763927828E+02 -0.67864853845E+02  0.45175810789E+01  0.11502692395E+03  0.00000000000E+00 0. -1.
         21    1    1    2  506  503  0.12293736201E+03  0.49773647120E+02  0.14244830560E+03  0.19463435127E+03  0.00000000000E+00 0. -1.
<scales pt_clust_3="32.06577" pt_clust_4="49.17643" pt_clust_5="125.43656" pt_clust_6="32.06577"></scales>
<clustering>
<clus scale="   32.066">  3  6 -1 -1</clus>
<clus scale="   49.176">  1  4  2 -1</clus>
<clus scale="  125.437">  2  5  1 -1</clus>
<clus scale="   49.176">  1  3  2 -1</clus>
</clustering>
</event>
<event>
 6    0  0.2036847E+002  0.1609606E+03  0.7546771E-02  0.1187617E+00
         21   -1    0    0  506  501  0.00000000000E+00  0.00000000000E+00  0.73800099551E+02  0.73800099551E+02  0.00000000000E+00 0.  1.
         21   -1    0    0  505  502 -0.00000000000E+00 -0.00000000000E+00 -0.86032886266E+03  0.86032886266E+03  0.00000000000E+00 0.  1.
         21    1    1    2  503  501  0.23205043569E+02  0.22603560463E+02 -0.17761876711E+00  0.32394853620E+02  0.00000000000E+00 0.  1.
         21    1    1    2  504  502 -0.14226198813E+03 -0.36806469199E+02 -0.26968209243E+03  0.30711825152E+03  0.00000000000E+00 0.  1.
         21    1    1    2  505  503  0.16483677682E+03  0.47331549427E+02 -0.50957884727E+03  0.53766350085E+03  0.00000000000E+00 0.  1.
         21    1    1    2  506  504 -0.45779832266E+02 -0.33128640691E+02 -0.70902046387E+01  0.56952356213E+02  0.00000000000E+00 0.  1.
<scales pt_clust_3="32.39437" pt_clust_4="160.96057" pt_clust_5="14000.00000" pt_clust_6="42.70734"></scales>
<clustering>
<clus scale="   32.394">  1  3  2 -1</clus>
<clus scale="   42.707">  1  6  2 -1</clus>
<clus scale="  160.961">  1  4  2 -1</clus>
<clus scale="   32.394">  1  3  2 -1</clus>
</clustering>
</event>
<event>
 6    0  0.2036847E+002  0.1258118E+03  0.7546771E-02  0.1233806E+00
         21   -1    0    0  505  501  0.00000000000E+00  0.00000000000E+00  0.21575326130E+04  0.21575326130E+04  0.00000000000E+00 0. -1.
         21   -1    0    0  504  502 -0.00000000000E+00 -0.00000000000E+00 -0.24245606449E+02  0.24245606449E+02  0.00000000000E+00 0.  1.
         21    1    1    2  503  502 -0.64809923667E+02  0.72760928122E+02  0.11768657273E+03  0.15278942459E+03  0.00000000000E+00 0.  1.
         21    1    1    2  504  501 -0.40444772726E+02 -0.11948903210E+02  0.93390482065E+02  0.10247115725E+03  0.00000000000E+00 0. -1.
         21    1    1    2  505  506  0.49792461497E+02 -0.42347042756E+02  0.74683103781E+03  0.74968604115E+03  0.00000000000E+00 0. -1.
         21    1    1    2  506  503  0.55462234895E+02 -0.18464982156E+02  0.11753789140E+04  0.11768315965E+04  0.00000000000E+00 0. -1.
<scales pt_clust_3="118.43202" pt_clust_4="42.17293" pt_clust_5="40.14874" pt_clust_6="40.14874"></scales>
<clustering>
<clus scale="   40.149">  5  6 -1 -1</clus>
<clus scale="   42.173">  2  4  1 -1</clus>
<clus scale="  118.432">  2  3  1 -1</clus>
<clus scale="  125.812">  1  3  2 -1</clus>
</clustering>
</event>
<event>
 6    0  0.2036847E+002  0.1373143E+03  0.7546771E-02  0.1216989E+00
         21   -1    0    0  503  501  0.00000000000E+00  0.00000000000E+00  0.32377102171E+03  0.32377102171E+03  0.00000000000E+00 0.  1.
         21   -1    0    0  506  502 -0.00000000000E+00 -0.00000000000E+00 -0.16770244566E+03  0.16770244566E+03  0.00000000000E+00 0.  1.
         21    1    1    2  503  502  0.82844345792E+02  0.59091768786E+02  0.11552190004E+03  0.15394912197E+03  0.00000000000E+00 0.  1.
         21    1    1    2  504  505 -0.61539673386E+02  0.13721781098E+02 -0.34647113333E+02  0.71943318935E+02  0.00000000000E+00 0.  1.
         21    1    1    2  505  501  0.58019533651E+02 -0.43596209351E+02  0.14091484181E+03  0.15850516836E+03  0.00000000000E+00 0.  1.
         21    1    1    2  506  504 -0.79324206056E+02 -0.29217340533E+02 -0.65721052455E+02  0.10707585811E+03  0.00000000000E+00 0.  1.
<scales pt_clust_3="130.24540" pt_clust_4="37.55921" pt_clust_5="72.57338" pt_clust_6="37.55921"></scales>
<clustering>
<clus scale="   37.559">  4  6 -1 -1</clus>
<clus scale="   72.573">  1  5  2 -1</clus>
<clus scale="  130.245">  1  3  2 -1</clus>
<clus scale="   72.573">  1  3  2 -1</clus>
</clustering>
</event>
<event>
 6    0  0.2036847E+002  0.6223421E+02  0.7546771E-02  0.1388688E+00
         21   -1    0    0  506  501  0.00000000000E+00  0.00000000000E+00  0.40087675612E+02  0.40087675612E+02  0.00000000000E+00 0. -1.
         21   -1    0    0  503  502 -0.00000000000E+00 -0.00000000000E+00 -0.53870044025E+03  0.53870044025E+03  0.00000000000E+00 0. -1.
         21    1    1    2  503  501 -0.48880984403E+02  0.47416630449E+02 -0.10808431968E+03  0.12774939390E+03  0.00000000000E+00 0. -1.
         21    1    1    2  504  502  0.51216107933E+02  0.32674963609E+02 -0.26346928948E+03  0.27038270924E+03  0.00000000000E+00 0. -1.
         21    1    1    2  505  504 -0.50096658340E+02 -0.46476809558E+02 -0.82909561284E+02  0.10744191154E+03  0.00000000000E+00 0. -1.
         21    1    1    2  506  505  0.47761534809E+02 -0.33614784501E+02 -0.44149594186E+02  0.73214101177E+02  0.00000000000E+00 0. -1.
<scales pt_clust_3="46.03935" pt_clust_4="14000.00000" pt_clust_5="62.23421" pt_clust_6="58.40478"></scales>
<clustering>
<clus scale="   58.405">  1  6  2 -1</clus>
<clus scale="   46.039">  1  3  2 -1</clus>
<clus scale="   62.234">  1  5  2 -1</clus>
<clus scale="   58.405">  1  3  2 -1</clus>
</clustering>
</event>
<event>
 6    0  0.2036847E+002  0.1257268E+03  0.7546771E-02  0.1233938E+00
         21   -1    0    0  503  501  0.00000000000E+00  0.00000000000E+00  0.23060370006E+02  0.23060370006E+02  0.00000000000E+00 0. -1.
         21   -1    0    0  505  502 -0.00000000000E+00 -0.00000000000E+00 -0.13584020111E+04  0.13584020111E+04  0.00000000000E+00 0. -1.
         21    1    1    2  503  506  0.37893738953E+02  0.47293803776E+02 -0.76975561116E+02  0.97968751837E+02  0.00000000000E+00 0. -1.
         21    1    1    2  504  502 -0.55707380653E+02 -0.29994495004E+02 -0.46992233057E+03  0.47416239703E+03  0.00000000000E+00 0. -1.
         21    1    1    2  505  501  0.87466902619E+02  0.36192797539E+02 -0.42793452648E+03  0.43827883430E+03  0.00000000000E+00 0. -1.
         21    1    1    2  506  504 -0.69653260918E+02 -0.53492106311E+02 -0.36050922290E+03  0.37105239790E+03  0.00000000000E+00 0. -1.
<scales pt_clust_3="60.60230" pt_clust_4="38.76737" pt_clust_5="117.13684" pt_clust_6="38.76737"></scales>
<clustering>
<clus scale="   38.767">  4  6 -1 -1</clus>
<clus scale="   60.602">  1  3  2 -1</clus>
<clus scale="  117.137">  2  5  1 -1</clus>
<clus scale="   60.602">  1  3  2 -1</clus>
</clustering>
</event>
<event>
 6    0  0.2036847E+002  0.2470108E+03  0.7546771E-02  0.1115209E+00
         21   -1    0    0  504  501  0.00000000000E+00  0.00000000000E+00  0.14068197714E+03  0.14068197714E+03  0.00000000000E+00 0.  1.
         21   -1    0    0  503  502 -0.00000000000E+00 -0.00000000000E+00 -0.45609693317E+03  0.45609693317E+03  0.00000000000E+00 0. -1.
         21    1    1    2  503  506 -0.28009776124E+02  0.12192857403E+03 -0.80229624907E+02  0.14862004386E+03  0.00000000000E+00 0.  1.
         21    1    1    2  504  505 -0.63328424081E+01 -0.42551239878E+02 -0.46579080047E+01  0.43271341729E+02  0.00000000000E+00 0. -1.
         21    1    1    2  505  502  0.12811799217E+02 -0.18902556605E+03 -0.22339695646E+03  0.29291808919E+03  0.00000000000E+00 0. -1.
         21    1    1    2  506  501  0.21530819316E+02  0.10964823190E+03 -0.71304666565E+01  0.11196943553E+03  0.00000000000E+00 0.  1.
<scales pt_clust_3="245.50986" pt_clust_4="40.83744" pt_clust_5="40.83744" pt_clust_6="76.81010"></scales>
<clustering>
<clus scale="   40.837">  4  5 -1 -1</clus>
<clus scale="   76.810">  3  6 -1 -1</clus>
<clus scale="  245.510">  1  3  2 -1</clus>
<clus scale="  245.510">  1  3  2 -1</clus>
</clustering>
</event>
<event>
 6    0  0.2036847E+002  0.2096099E+03  0.7546771E-02  0.1141875E+00
         21   -1    0    0  503  501  0.00000000000E+00  0.00000000000E+00  0.24194317313E+03  0.24194317313E+03  0.00000000000E+00 0.  1.
         21   -1    0    0  506  502 -0.00000000000E+00 -0.00000000000E+00 -0.18591519896E+03  0.18591519896E+03  0.00000000000E+00 0.  1.
         21    1    1    2  503  505  0.62994575656E+02 -0.86604283775E+02  0.51873058306E+02  0.11899341456E+03  0.00000000000E+00 0.  1.
         21    1    1    2  504  501 -0.85237433511E+02  0.12973591548E+03 -0.13666784961E+02  0.15583198917E+03  0.00000000000E+00 0.  1.
         21    1    1    2  505  502  0.74998517501E+02 -0.49396522589E+02  0.36188272860E+02  0.96821408603E+02  0.00000000000E+00 0.  1.
         21    1    1    2  506  504 -0.52755659646E+02  0.62648908870E+01 -0.18366572032E+02  0.56211559761E+02  0.00000000000E+00 0.  1.
<scales pt_clust_3="197.03106" pt_clust_4="46.79374" pt_clust_5="32.79982" pt_clust_6="46.79374"></scales>
<clustering>
<clus scale="   32.800">  3  5 -1 -1</clus>
<clus scale="   46.794">  4  6 -1 -1</clus>
<clus scale="  197.031">  1  3  2 -1</clus>
<clus scale="  197.031">  1  3  2 -1</clus>
</clustering>
</event>
<event>
 6    0  0.2036847E+002  0.1347961E+03  0.7546771E-02  0.1220508E+00
         21   -1    0    0  506  501  0.00000000000E+00  0.00000000000E+00  0.98930398461E+03  0.98930398461E+03  0.00000000000E+00 0. -1.
         21   -1    0    0  505  502 -0.00000000000E+00 -0.00000000000E+00 -0.97268328040E+02  0.97268328040E+02  0.00000000000E+00 0. -1.
         21    1    1    2  503  502  0.13061364650E+03  0.57040859192E+02 -0.15802294987E+02  0.14339908228E+03  0.00000000000E+00 0. -1.
         21    1    1    2  504  503 -0.55249972786E+02  0.68480747614E+01  0.28375218520E+03  0.28916216597E+03  0.00000000000E+00 0. -1.
         21    1    1    2  505  501 -0.49756500641E+01 -0.37558315855E+02  0.15715416543E+02  0.41016563734E+02  0.00000000000E+00 0.  1.
         21    1    1    2  506  504 -0.70388023655E+02 -0.26330618099E+02  0.60837034981E+03  0.61299450067E+03  0.00000000000E+00 0. -1.
<scales pt_clust_3="127.79054" pt_clust_4="36.91550" pt_clust_5="37.88646" pt_clust_6="36.91550"></scales>
<clustering>
<clus scale="   36.915">  4  6 -1 -1</clus>
<clus scale="   37.886">  2  5  1 -1</clus>
<clus scale="  127.791">  2  3  1 -1</clus>
<clus scale="  134.796">  1  3  2 -1</clus>
</clustering>
</event>
<event>
 6    0  0.2036847E+002  0.1016980E+03  0.7546771E-02  0.1276765E+00
         21   -1    0    0  503  501  0.00000000000E+00  0.00000000000E+00  0.93392267078E+03  0.93392267078E+03  0.00000000000E+00 0. -1.
         21   -1    0    0  504  502 -0.00000000000E+00 -0.00000000000E+00 -0.30925670484E+03  0.30925670484E+03  0.00000000000E+00 0.  1.
         21    1    1    2  503  505  0.21798872413E+02 -0.42296102398E+02  0.31927400944E+03  0.32280031633E+03  0.00000000000E+00 0. -1.
         21    1    1    2  504  506  0.18745104211E+02  0.49361828412E+02 -0.27439629420E+03  0.27943030492E+03  0.00000000000E+00 0.  1.
         21    1    1    2  505  502  0.57807766471E+02  0.35158326552E+02  0.19337042794E+02  0.70368792901E+02  0.00000000000E+00 0.  1.
         21    1    1    2  506  501 -0.98351743096E+02 -0.42224052567E+02  0.56045120790E+03  0.57057996146E+03  0.00000000000E+00 0. -1.
<scales pt_clust_3="47.58310" pt_clust_4="52.67082" pt_clust_5="14000.00000" pt_clust_6="101.69800"></scales>
<clustering>
<clus scale="   47.583">  1  3  2 -1</clus>
<clus scale="   52.671">  2  4  1 -1</clus>
<clus scale="  101.698">  1  6  2 -1</clus>
<clus scale="   47.583">  1  3  2 -1</clus>
</clustering>
</event>
<event>
 6    0  0.2036847E+002  0.1261833E+03  0.7546771E-02  0.1233232E+00
         21   -1    0    0  504  501  0.00000000000E+00  0.00000000000E+00  0.53362768708E+02  0.53362768708E+02  0.00000000000E+00 0.  1.
         21   -1    0    0  505  502 -0.00000000000E+00 -0.00000000000E+00 -0.94217093010E+03  0.94217093010E+03  0.00000000000E+00 0.  1.
         21    1    1    2  503  506 -0.17517479848E+02  0.40631105221E+02 -0.13230542298E+03  0.13950797024E+03  0.00000000000E+00 0.  1.
         21    1    1    2  504  502  0.13495420334E+03  0.37486830823E+01 -0.64553416533E+02  0.14964569225E+03  0.00000000000E+00 0.  1.
         21    1    1    2  505  503 -0.41856706178E+02  0.31576806021E+01 -0.11218666088E+03  0.11978230954E+03  0.00000000000E+00 0.  1.
         21    1    1    2  506  501 -0.75580017313E+02 -0.47537468906E+02 -0.57976266100E+03  0.58659772678E+03  0.00000000000E+00 0.  1.
<scales pt_clust_3="47.84210" pt_clust_4="14000.00000" pt_clust_5="41.97565" pt_clust_6="126.18327"></scales>
<clustering>
<clus scale="   41.976">  2  5  1 -1</clus>
<clus scale="   47.842">  2  3  1 -1</clus>
<clus scale="  126.183">  2  6  1 -1</clus>
<clus scale="  126.183">  1  3  2 -1</clus>
</clustering>
</event>
<event>
 6    0  0.2036847E+002  0.1646350E+03  0.7546771E-02  0.1183561E+00
         21   -1    0    0  503  501  0.00000000000E+00  0.00000000000E+00  0.24573019319E+04  0.24573019319E+04  0.00000000000E+00 0.  1.
         21   -1    0    0  504  502 -0.00000000000E+00 -0.00000000000E+00 -0.46900265478E+03  0.46900265478E+03  0.00000000000E+00 0.  1.
         21    1    1    2  503  505  0.38432472869E+02  0.66872521458E+00  0.15099948016E+04  0.15104839631E+04  0.00000000000E+00 0.  1.
         21    1    1    2  504  501 -0.21471393276E+03  0.26961316297E-01 -0.26309244884E+03  0.33958755909E+03  0.00000000000E+00 0.  1.
         21    1    1    2  505  506  0.46079362985E+02 -0.18149516969E+02  0.88224352511E+03  0.88363247465E+03  0.00000000000E+00 0.  1.
         21    1    1    2  506  502  0.13020209691E+03  0.17453830438E+02 -0.14084660074E+03  0.19260058976E+03  0.00000000000E+00 0.  1.
<scales pt_clust_3="34.58908" pt_clust_4="14000.00000" pt_clust_5="94.81195" pt_clust_6="164.63502"></scales>
<clustering>
<clus scale="   34.589">  3  5 -1 -1</clus>
<clus scale="   94.812">  1  3  2 -1</clus>
<clus scale="  164.635">  2  6  1 -1</clus>
<clus scale="   94.812">  1  3  2 -1</clus>
</clustering>
</event>
<event>
 6    0  0.2036847E+002  0.1096733E+03  0.7546771E-02  0.1261176E+00
         21   -1    0    0  505  501  0.00000000000E+00  0.00000000000E+00  0.12789786530E+04  0.12789786530E+04  0.00000000000E+00 0. -1.
         21   -1    0    0  506  502 -0.00000000000E+00 -0.00000000000E+00 -0.19202620229E+03  0.19202620229E+03  0.00000000000E+00 0. -1.
         21    1    1    2  503  501  0.16085747486E+03 -0.39804381655E+02  0.11180832897E+04  0.11302963145E+04  0.00000000000E+00 0. -1.
         21    1    1    2  504  502 -0.76110407171E+02  0.26717058986E+02 -0.14798220803E+03  0.16853880626E+03  0.00000000000E+00 0. -1.
         21    1    1    2  505  504 -0.62541956917E+02 -0.10960241066E+02  0.12341113610E+03  0.13878736172E+03  0.00000000000E+00 0.  1.
         21    1    1    2  506  503 -0.22205110769E+02  0.24047563734E+02 -0.65597670684E+01  0.33382372741E+02  0.00000000000E+00 0. -1.
<scales pt_clust_3="109.67334" pt_clust_4="14000.00000" pt_clust_5="64.29866" pt_clust_6="32.73152"></scales>
<clustering>
<clus scale="   32.732">  2  6  1 -1</clus>
<clus scale="   64.299">  1  5  2 -1</clus>
<clus scale="  109.673">  1  3  2 -1</clus>
<clus scale="   64.299">  1  3  2 -1</clus>
</clustering>
</event>
<event>
 6    0  0.2036847E+002  0.9311143E+02  0.7546771E-02  0.1295487E+00
         21   -1    0    0  506  501  0.00000000000E+00  0.00000000000E+00  0.85372292825E+03  0.85372292825E+03  0.00000000000E+00 0. -1.
         21   -1    0    0  503  502 -0.00000000000E+00 -0.00000000000E+00 -0.17804799085E+03  0.17804799085E+03  0.00000000000E+00 0. -1.
         21    1    1    2  503  505  0.35408218290E+02  0.58762416862E+02 -0.98095557506E+02  0.11970589777E+03  0.00000000000E+00 0. -1.
         21    1    1    2  504  502 -0.67606545085E+02  0.32821462304E+02 -0.39917829756E+02  0.85095983798E+02  0.00000000000E+00 0. -1.
         21    1    1    2  505  501  0.38192247638E+02  0.14531043641E+02  0.19773078489E+03  0.20190904462E+03  0.00000000000E+00 0. -1.
         21    1    1    2  506  504 -0.59939208426E+01 -0.10611492281E+03  0.61595753978E+03  0.62505999291E+03  0.00000000000E+00 0. -1.
<scales pt_clust_3="69.13849" pt_clust_4="93.11143" pt_clust_5="40.86317" pt_clust_6="14000.00000"></scales>
<clustering>
<clus scale="   40.863">  1  5  2 -1</clus>
<clus scale="   69.138">  2  3  1 -1</clus>
<clus scale="   93.111">  2  4  1 -1</clus>
<clus scale="   40.863">  1  3  2 -1</clus>
</clustering>
</event>
<event>
 6    0  0.2036847E+002  0.2229064E+03  0.7546771E-02  0.1131735E+00
         21   -1    0    0  503  501  0.00000000000E+00  0.00000000000E+00  0.22643028188E+03  0.22643028188E+03  0.00000000000E+00 0.  1.
         21   -1    0    0  506  502 -0.00000000000E+00 -0.00000000000E+00 -0.25797968830E+03  0.25797968830E+03  0.00000000000E+00 0.  1.
         21    1    1    2  503  502  0.10404788233E+03  0.16560415631E+03  0.46376961521E+02  0.20100129592E+03  0.00000000000E+00 0.  1.
         21    1    1    2  504  505 -0.14450823143E+02 -0.87120173194E+02 -0.23818605931E+02  0.91466260749E+02  0.00000000000E+00 0.  1.
         21    1    1    2  505  501  0.28781850275E+02 -0.11714924028E+02  0.20181979437E+02  0.37053294647E+02  0.00000000000E+00 0.  1.
         21    1    1    2  506  504 -0.11837890946E+03 -0.66769059083E+02 -0.74289741444E+02  0.15488911886E+03  0.00000000000E+00 0.  1.
<scales pt_clust_3="199.86784" pt_clust_4="81.30385" pt_clust_5="31.07466" pt_clust_6="81.30385"></scales>
<clustering>
<clus scale="   31.075">  1  5  2 -1</clus>
<clus scale="   81.304">  4  6 -1 -1</clus>
<clus scale="  199.868">  1  3  2 -1</clus>
<clus scale="   31.075">  1  3  2 -1</clus>
</clustering>
</event>
<event>
 6    0  0.2036847E+002  0.1101878E+03  0.7546771E-02  0.1260223E+00
         21   -1    0    0  506  501  0.00000000000E+00  0.00000000000E+00  0.99921678743E+03  0.99921678743E+03  0.00000000000E+00 0. -1.
         21   -1    0    0  503  502 -0.00000000000E+00 -0.00000000000E+00 -0.12758249369E+03  0.12758249369E+03  0.00000000000E+00 0.  1.
         21    1    1    2  503  505  0.31458336529E+01  0.53553549993E+02 -0.40856602994E+02  0.67432492127E+02  0.00000000000E+00 0.  1.
         21    1    1    2  504  502 -0.94341422804E+02  0.11934812924E+02 -0.25843791627E+02  0.98542606936E+02  0.00000000000E+00 0.  1.
         21    1    1    2  505  501  0.13469995880E+03 -0.43809157874E+02  0.83114913082E+03  0.84313237328E+03  0.00000000000E+00 0. -1.
         21    1    1    2  506  504 -0.43504369647E+02 -0.21679205042E+02  0.10718555754E+03  0.11769180878E+03  0.00000000000E+00 0.  1.
<scales pt_clust_3="53.28709" pt_clust_4="110.18775" pt_clust_5="14000.00000" pt_clust_6="48.60677"></scales>
<clustering>
<clus scale="   48.607">  1  6  2 -1</clus>
<clus scale="   53.287">  2  3  1 -1</clus>
<clus scale="  110.188">  2  4  1 -1</clus>
<clus scale="   48.607">  1  3  2 -1</clus>
</clustering>
</event>
<event>
 6    0  0.2036847E+002  0.2555510E+03  0.7546771E-02  0.1109846E+00
         21   -1    0    0  503  501  0.00000000000E+00  0.00000000000E+00  0.77440599703E+03  0.77440599703E+03  0.00000000000E+00 0. -1.
         21   -1    0    0  505  502 -0.00000000000E+00 -0.00000000000E+00 -0.11496733121E+03  0.11496733121E+03  0.00000000000E+00 0. -1.
         21    1    1    2  503  504 -0.13605189540E+03  0.20389106437E+03  0.44107351555E+03  0.50460631238E+03  0.00000000000E+00 0. -1.
         21    1    1    2  504  506  0.10197271826E+03 -0.97680681954E+02  0.14597175563E+03  0.20309530851E+03  0.00000000000E+00 0. -1.
         21    1    1    2  505  501 -0.35092726666E+02 -0.47650205911E+02  0.69104573601E+02  0.90980677513E+02  0.00000000000E+00 0.  1.
         21    1    1    2  506  502  0.69171903809E+02 -0.58560176505E+02  0.32888210303E+01  0.90691029836E+02  0.00000000000E+00 0. -1.
<scales pt_clust_3="234.47022" pt_clust_4="80.82463" pt_clust_5="59.17805" pt_clust_6="80.82463"></scales>
<clustering>
<clus scale="   59.178">  1  5  2 -1</clus>
<clus scale="   80.825">  4  6 -1 -1</clus>
<clus scale="  234.470">  1  3  2 -1</clus>
<clus scale="   59.178">  1  3  2 -1</clus>
</clustering>
</event>
<event>
 6    0  0.2036847E+002  0.1809001E+03  0.7546771E-02  0.1166935E+00
         21   -1    0    0  503  501  0.00000000000E+00  0.00000000000E+00  0.11834760221E+02  0.11834760221E+02  0.00000000000E+00 0. -1.
         21   -1    0    0  506  502 -0.00000000000E+00 -0.00000000000E+00 -0.36386146417E+04  0.36386146417E+04  0.00000000000E+00 0. -1.
         21    1    1    2  503  504 -0.67846128623E+02 -0.92502555115E+02 -0.93699390578E+03  0.94399014791E+03  0.00000000000E+00 0. -1.
         21    1    1    2  504  505 -0.56763575512E+02 -0.20430152148E+02 -0.63592632396E+03  0.63878148386E+03  0.00000000000E+00 0.  1.
         21    1    1    2  505  502 -0.36022914781E+02  0.32037571101E+02 -0.73954266761E+03  0.74111228135E+03  0.00000000000E+00 0. -1.
         21    1    1    2  506  501  0.16063261892E+03  0.80895136162E+02 -0.13143169841E+04  0.13265654888E+04  0.00000000000E+00 0. -1.
<scales pt_clust_3="38.41839" pt_clust_4="38.41839" pt_clust_5="48.20847" pt_clust_6="172.96884"></scales>
<clustering>
<clus scale="   38.418">  3  4 -1 -1</clus>
<clus scale="   48.208">  2  5  1 -1</clus>
<clus scale="  172.969">  1  6  2 -1</clus>
<clus scale="  172.969">  1  3  2 -1</clus>
</clustering>
</event>
<event>
 6    0  0.2036847E+002  0.1896545E+03  0.7546771E-02  0.1158773E+00
         21   -1    0    0  502  501  0.00000000000E+00  0.00000000000E+00  0.31484013044E+03  0.31484013044E+03  0.00000000000E+00 0.  1.
         21   -1    0    0  504  502 -0.00000000000E+00 -0.00000000000E+00 -0.25132248832E+03  0.25132248832E+03  0.00000000000E+00 0.  1.
         21    1    1    2  503  506  0.30401835793E+02  0.86402976372E+02  0.64081824342E+02  0.11178652046E+03  0.00000000000E+00 0.  1.
         21    1    1    2  504  505 -0.35359873431E+02 -0.41460633896E+02 -0.77401674649E+02  0.94658988219E+02  0.00000000000E+00 0.  1.
         21    1    1    2  505  503 -0.27524485143E+02 -0.11825681170E+03 -0.10529415771E+03  0.16071443758E+03  0.00000000000E+00 0.  1.
         21    1    1    2  506  501  0.32482522781E+02  0.73314469227E+02  0.18213165014E+03  0.19900267251E+03  0.00000000000E+00 0.  1.
<scales pt_clust_3="75.46277" pt_clust_4="32.63900" pt_clust_5="178.43155" pt_clust_6="75.46277"></scales>
<clustering>
<clus scale="   32.639">  4  5 -1 -1</clus>
<clus scale="   75.463">  3  6 -1 -1</clus>
<clus scale="  178.432">  2  4  1 -1</clus>
<clus scale="  189.655">  1  3  2 -1</clus>
</clustering>
</event>
<event>
 6    0  0.2036847E+002  0.1456966E+03  0.7546771E-02  0.1205863E+00
         21   -1    0    0  506  501  0.00000000000E+00  0.00000000000E+00  0.11043235658E+03  0.11043235658E+03  0.00000000000E+00 0.  1.
         21   -1    0    0  505  502 -0.00000000000E+00 -0.00000000000E+00 -0.13352249354E+04  0.13352249354E+04  0.00000000000E+00 0.  1.
         21    1    1    2  503  502  0.17914739467E+02 -0.10423724035E+03 -0.11589076219E+04  0.11637238574E+04  0.00000000000E+00 0.  1.
         21    1    1    2  504  501  0.30493789405E+02  0.42032243125E+02 -0.13294647942E+02  0.53603435695E+02  0.00000000000E+00 0. -1.
         21    1    1    2  505  504  0.28034649941E+02 -0.41392363334E+02 -0.82211710612E+02  0.96218681665E+02  0.00000000000E+00 0. -1.
         21    1    1    2  506  503 -0.76443178813E+02  0.10359736055E+03  0.29621401644E+02  0.13211131721E+03  0.00000000000E+00 0.  1.
<scales pt_clust_3="14000.00000" pt_clust_4="51.48660" pt_clust_5="49.99269" pt_clust_6="145.69661"></scales>
<clustering>
<clus scale="   49.993">  2  5  1 -1</clus>
<clus scale="   51.487">  1  4  2 -1</clus>
<clus scale="  145.697">  1  6  2 -1</clus>
<clus scale="   51.487">  1  3  2 -1</clus>
</clustering>
</event>
<event>
 6    0  0.2036847E+002  0.1618379E+03  0.7546771E-02  0.1186637E+00
         21   -1    0    0  503  501  0.00000000000E+00  0.00000000000E+00  0.57640626151E+03  0.57640626151E+03  0.00000000000E+00 0. -1.
         21   -1    0    0  505  502 -0.00000000000E+00 -0.00000000000E+00 -0.47109655995E+02  0.47109655995E+02  0.00000000000E+00 0. -1.
         21    1    1    2  503  504  0.30218434206E+02 -0.53082417438E+02  0.10473275570E+03  0.12124292525E+03  0.00000000000E+00 0. -1.
         21    1    1    2  504  502  0.78144386625E+02 -0.50850692716E+02  0.85215774611E+02  0.12630940722E+03  0.00000000000E+00 0. -1.
         21    1    1    2  505  506 -0.54706976880E+02  0.84120313530E+02  0.25517831933E+03  0.27419893349E+03  0.00000000000E+00 0. -1.
         21    1    1    2  506  501 -0.53655843951E+02  0.19812796625E+02  0.84169755869E+02  0.10176465154E+03  0.00000000000E+00 0.  1.
<scales pt_clust_3="41.72293" pt_clust_4="158.75047" pt_clust_5="45.59336" pt_clust_6="45.59336"></scales>
<clustering>
<clus scale="   41.723">  3  4 -1 -1</clus>
<clus scale="   45.593">  5  6 -1 -1</clus>
<clus scale="  158.750">  2  3  1 -1</clus>
<clus scale="  161.838">  1  3  2 -1</clus>
</clustering>
</event>
<event>
 6    0  0.2036847E+002  0.1482231E+03  0.7546771E-02  0.1202674E+00
         21   -1    0    0  503  501  0.00000000000E+00  0.00000000000E+00  0.44164559822E+02  0.44164559822E+02  0.00000000000E+00 0. -1.
         21   -1    0    0  504  502 -0.00000000000E+00 -0.00000000000E+00 -0.91733836922E+03  0.91733836922E+03  0.00000000000E+00 0. -1.
         21    1    1    2  503  505  0.35602740680E+02  0.70518653239E+02 -0.43290161745E+02  0.90080373570E+02  0.00000000000E+00 0. -1.
         21    1    1    2  504  506 -0.49874278056E+01 -0.10636869600E+03 -0.56916212401E+03  0.57903773395E+03  0.00000000000E+00 0. -1.
         21    1    1    2  505  502  0.14491486921E+01  0.62389719843E+02 -0.57213371277E+02  0.84663729111E+02  0.00000000000E+00 0. -1.
         21    1    1    2  506  501 -0.32064461567E+02 -0.26539677083E+02 -0.20350815236E+03  0.20772109241E+03  0.00000000000E+00 0. -1.
<scales pt_clust_3="142.94944" pt_clust_4="33.85709" pt_clust_5="33.22151" pt_clust_6="33.85709"></scales>
<clustering>
<clus scale="   33.222">  3  5 -1 -1</clus>
<clus scale="   33.857">  4  6 -1 -1</clus>
<clus scale="  142.949">  1  3  2 -1</clus>
<clus scale="  142.949">  1  3  2 -1</clus>
</clustering>
</event>
<event>
 6    0  0.2036847E+002  0.9673590E+02  0.7546771E-02  0.1287314E+00
         21   -1    0    0  506  501  0.00000000000E+00  0.00000000000E+00  0.70700278537E+02  0.70700278537E+02  0.00000000000E+00 0.  1.
         21   -1    0    0  503  502 -0.00000000000E+00 -0.00000000000E+00 -0.76259798569E+03  0.76259798569E+03  0.00000000000E+00 0.  1.
         21    1    1    2  503  501 -0.89829899063E+02 -0.25240300461E+02 -0.11430895939E+03  0.14755684237E+03  0.00000000000E+00 0.  1.
         21    1    1    2  504  502  0.63094815784E+02 -0.21617780462E+02 -0.38840842488E+03  0.39409312190E+03  0.00000000000E+00 0.  1.
         21    1    1    2  505  504  0.10596483015E+02 -0.33809071779E+02 -0.20486030867E+03  0.20790162302E+03  0.00000000000E+00 0.  1.
         21    1    1    2  506  505  0.16138600265E+02  0.80667152702E+02  0.15679985786E+02  0.83746676936E+02  0.00000000000E+00 0.  1.
<scales pt_clust_3="86.20032" pt_clust_4="31.99788" pt_clust_5="31.99788" pt_clust_6="82.26569"></scales>
<clustering>
<clus scale="   31.998">  4  5 -1 -1</clus>
<clus scale="   82.266">  1  6  2 -1</clus>
<clus scale="   86.200">  1  3  2 -1</clus>
<clus scale="   82.266">  1  3  2 -1</clus>
</clustering>
</event>
<event>
 6    0  0.2036847E+002  0.2246896E+03  0.7546771E-02  0.1130434E+00
         21   -1    0    0  506  501  0.00000000000E+00  0.00000000000E+00  0.10883378960E+04  0.10883378960E+04  0.00000000000E+00 0.  1.
         21   -1    0    0  503  502 -0.00000000000E+00 -0.00000000000E+00 -0.32010321182E+03  0.32010321182E+03  0.00000000000E+00 0.  1.
         21    1    1    2  503  501  0.83352094996E+02  0.16926800769E+02  0.63506314560E+03  0.64073339793E+03  0.00000000000E+00 0.  1.
         21    1    1    2  504  505 -0.10220958287E+03 -0.89016704629E+01 -0.97860959463E+02  0.14178436428E+03  0.00000000000E+00 0.  1.
         21    1    1    2  505  502 -0.12615982622E+03  0.26489563420E+02 -0.16114942027E+03  0.20636650498E+03  0.00000000000E+00 0.  1.
         21    1    1    2  506  504  0.14501731409E+03 -0.34514693726E+02  0.39218191826E+03  0.41955684059E+03  0.00000000000E+00 0.  1.
<scales pt_clust_3="85.05344" pt_clust_4="36.35558" pt_clust_5="36.35558" pt_clust_6="220.96309"></scales>
<clustering>
<clus scale="   36.356">  4  5 -1 -1</clus>
<clus scale="   85.053">  1  3  2 -1</clus>
<clus scale="  220.963">  1  6  2 -1</clus>
<clus scale="   85.053">  1  3  2 -1</clus>
</clustering>
</event>
<event>
 6    0  0.2036847E+002  0.9284314E+02  0.7546771E-02  0.1296109E+00
         21   -1    0    0  502  501  0.00000000000E+00  0.00000000000E+00  0.74179083043E+02  0.74179083043E+02  0.00000000000E+00 0. -1.
         21   -1    0    0  505  502 -0.00000000000E+00 -0.00000000000E+00 -0.14475441854E+04  0.14475441854E+04  0.00000000000E+00 0.  1.
         21    1    1    2  503  501 -0.36786409480E+02  0.28924878849E+02  0.41486850710E+02  0.62538366789E+02  0.00000000000E+00 0. -1.
         21    1    1    2  504  506  0.39229815394E+02 -0.93226043545E+02 -0.70216948825E+03  0.70941670677E+03  0.00000000000E+00 0. -1.
         21    1    1    2  505  504  0.43373286283E+02  0.28480833917E+02 -0.68207995621E+03  0.68405077774E+03  0.00000000000E+00 0.  1.
         21    1    1    2  506  503 -0.45816692197E+02  0.35820330779E+02 -0.30602508573E+02  0.65717417113E+02  0.00000000000E+00 0. -1.
<scales pt_clust_3="46.79624" pt_clust_4="92.84314" pt_clust_5="51.26511" pt_clust_6="14000.00000"></scales>
<clustering>
<clus scale="   46.796">  1  3  2 -1</clus>
<clus scale="   51.265">  2  5  1 -1</clus>
<clus scale="   92.843">  2  4  1 -1</clus>
<clus scale="   46.796">  1  3  2 -1</clus>
</clustering>
</event>
<event>
 6    0  0.2036847E+002  0.1454426E+03  0.7546771E-02  0.1206188E+00
         21   -1    0    0  506  501  0.00000000000E+00  0.00000000000E+00  0.86419428043E+03  0.86419428043E+03  0.00000000000E+00 0.  1.
         21   -1    0    0  505  502 -0.00000000000E+00 -0.00000000000E+00 -0.92883166251E+03  0.92883166251E+03  0.00000000000E+00 0.  1.
         21    1    1    2  503  501  0.32626884255E+02  0.11576695103E+03  0.97351338417E+02  0.15473778989E+03  0.00000000000E+00 0.  1.
         21    1    1    2  504  502  0.32265067982E+02  0.97993716714E+02 -0.80359332465E+03  0.81018888819E+03  0.00000000000E+00 0.  1.
         21    1    1    2  505  503  0.28633928758E+02  0.34520947061E+02 -0.61778331516E+02  0.76342386045E+02  0.00000000000E+00 0.  1.
         21    1    1    2  506  504 -0.93525880995E+02 -0.24828161481E+03  0.70338293567E+03  0.75175687882E+03  0.00000000000E+00 0.  1.
<scales pt_clust_3="121.64638" pt_clust_4="145.44261" pt_clust_5="44.85084" pt_clust_6="14000.00000"></scales>
<clustering>
<clus scale="   44.851">  2  5  1 -1</clus>
<clus scale="  121.646">  1  3  2 -1</clus>
<clus scale="  145.443">  2  4  1 -1</clus>
<clus scale="  121.646">  1  3  2 -1</clus>
</clustering>
</event>
<event>
 6    0  0.2396804E+002  0.1477469E+03  0.7546771E-02  0.1203269E+00
         21   -1    0    0  503  501  0.00000000000E+00  0.00000000000E+00  0.10557828091E+04  0.10557828091E+04  0.00000000000E+00 0.  1.
         21   -1    0    0  506  502 -0.00000000000E+00 -0.00000000000E+00 -0.86853678290E+03  0.86853678290E+03  0.00000000000E+00 0.  1.
         21    1    1    2  503  505  0.34493808463E+02  0.14443251369E+02  0.33973118972E+02  0.50523293094E+02  0.00000000000E+00 0.  1.
         21    1    1    2  504  502 -0.51391776037E+02 -0.11231963748E+02 -0.26894142858E+03  0.27403788727E+03  0.00000000000E+00 0.  1.
         21    1    1    2  505  504 -0.35553724200E+02 -0.87852769316E+02 -0.58248085626E+03  0.59014076651E+03  0.00000000000E+00 0.  1.
         21    1    1    2  506  501  0.52451691775E+02  0.84641481695E+02  0.10046951921E+04  0.10096176451E+04  0.00000000000E+00 0.  1.
<scales pt_clust_3="37.39559" pt_clust_4="50.00149" pt_clust_5="50.00149" pt_clust_6="131.61155"></scales>
<clustering>
<clus scale="   37.396">  1  3  2 -1</clus>
<clus scale="   50.001">  4  5 -1 -1</clus>
<clus scale="  131.612">  1  6  2 -1</clus>
<clus scale="   37.396">  1  3  2 -1</clus>
</clustering>
</event>
<event>
 6    0  0.2036847E+002  0.2692541E+03  0.7546771E-02  0.1101707E+00
         21   -1    0    0  506  501  0.00000000000E+00  0.00000000000E+00  0.92828513322E+03  0.92828513322E+03  0.00000000000E+00 0. -1.
         21   -1    0    0  504  502 -0.00000000000E+00 -0.00000000000E+00 -0.12760527164E+04  0.12760527164E+04  0.00000000000E+00 0. -1.
         21    1    1    2  503  505  0.99770689809E+02  0.11443420933E+02  0.23875673568E+03  0.25901722194E+03  0.00000000000E+00 0. -1.
         21    1    1    2  504  501 -0.16446753391E+03 -0.68431904526E+02 -0.51676215097E+03  0.54660371014E+03  0.00000000000E+00 0. -1.
         21    1    1    2  505  502 -0.70765891039E+02 -0.35696051441E+02 -0.72190135158E+03  0.72623934129E+03  0.00000000000E+00 0. -1.
         21    1    1    2  506  503  0.13546273514E+03  0.92684535033E+02  0.65213918370E+03  0.67247757625E+03  0.00000000000E+00 0. -1.
<scales pt_clust_3="69.12480" pt_clust_4="254.33863" pt_clust_5="79.25919" pt_clust_6="69.12480"></scales>
<clustering>
<clus scale="   69.125">  3  6 -1 -1</clus>
<clus scale="   79.259">  2  5  1 -1</clus>
<clus scale="  254.339">  2  4  1 -1</clus>
<clus scale="  269.254">  1  3  2 -1</clus>
</clustering>
</event>
<event>
 6    0  0.2036847E+002  0.2095543E+03  0.7546771E-02  0.1141919E+00
         21   -1    0    0  506  501  0.00000000000E+00  0.00000000000E+00  0.68315788207E+03  0.68315788207E+03  0.00000000000E+00 0. -1.
         21   -1    0    0  504  502 -0.00000000000E+00 -0.00000000000E+00 -0.27799084911E+03  0.27799084911E+03  0.00000000000E+00 0. -1.
         21    1    1    2  503  501 -0.92020367051E+02 -0.10160972971E+03  0.36786760147E+03  0.39257974646E+03  0.00000000000E+00 0. -1.
         21    1    1    2  504  505  0.66509911251E+02  0.17584152198E+03 -0.17457046991E+03  0.25655147263E+03  0.00000000000E+00 0. -1.
         21    1    1    2  505  503 -0.69065793585E+02 -0.31683421533E+02  0.19191253490E+03  0.20640819774E+03  0.00000000000E+00 0. -1.
         21    1    1    2  506  502  0.94576249385E+02 -0.42548370730E+02  0.19957366499E+02  0.10560931435E+03  0.00000000000E+00 0. -1.
<scales pt_clust_3="30.84967" pt_clust_4="205.41684" pt_clust_5="30.84967" pt_clust_6="103.70646"></scales>
<clustering>
<clus scale="   30.850">  3  5 -1 -1</clus>
<clus scale="  103.706">  2  6  1 -1</clus>
<clus scale="  205.417">  2  4  1 -1</clus>
<clus scale="  209.554">  1  3  2 -1</clus>
</clustering>
</event>
<event>
 6    0  0.2476800E+002  0.2056601E+03  0.7546771E-02  0.1145050E+00
         21   -1    0    0  505  501  0.00000000000E+00  0.00000000000E+00  0.24751534188E+03  0.24751534188E+03  0.00000000000E+00 0.  1.
         21   -1    0    0  506  502 -0.00000000000E+00 -0.00000000000E+00 -0.11865649192E+04  0.11865649192E+04  0.00000000000E+00 0.  1.
         21    1    1    2  503  501  0.27273591495E+02 -0.20214836838E+03  0.17632707807E+03  0.26962761374E+03  0.00000000000E+00 0.  1.
         21    1    1    2  504  503 -0.66552449871E+02  0.23216938240E+03 -0.91343555150E+03  0.94482609906E+03  0.00000000000E+00 0.  1.
         21    1    1    2  505  502  0.94376180964E+01 -0.37553065643E+02 -0.43555983845E+02  0.58278856400E+02  0.00000000000E+00 0. -1.
         21    1    1    2  506  504  0.29841240279E+02  0.75320516195E+01 -0.15838512007E+03  0.16134769190E+03  0.00000000000E+00 0.  1.
<scales pt_clust_3="205.66015" pt_clust_4="14000.00000" pt_clust_5="38.74932" pt_clust_6="30.77712"></scales>
<clustering>
<clus scale="   30.777">  2  6  1 -1</clus>
<clus scale="   38.749">  2  5  1 -1</clus>
<clus scale="  205.660">  1  3  2 -1</clus>
<clus scale="  205.660">  1  3  2 -1</clus>
</clustering>
</event>
<event>
 6    0  0.2036847E+002  0.7567436E+02  0.7546771E-02  0.1341795E+00
         21   -1    0    0  504  501  0.00000000000E+00  0.00000000000E+00  0.12689233376E+03  0.12689233376E+03  0.00000000000E+00 0. -1.
         21   -1    0    0  506  502 -0.00000000000E+00 -0.00000000000E+00 -0.60759364918E+03  0.60759364918E+03  0.00000000000E+00 0.  1.
         21    1    1    2  503  502 -0.21728377310E+02 -0.45488131423E+02 -0.30833371110E+03  0.31242754341E+03  0.00000000000E+00 0.  1.
         21    1    1    2  504  505 -0.67005008623E+02  0.63657607472E+02 -0.46773831757E+02  0.10358452349E+03  0.00000000000E+00 0.  1.
         21    1    1    2  505  503  0.27178627115E+02 -0.44766341312E+02 -0.20670383254E+03  0.21323502872E+03  0.00000000000E+00 0.  1.
         21    1    1    2  506  501  0.61554758818E+02  0.26596865262E+02  0.81110059973E+02  0.10523888732E+03  0.00000000000E+00 0. -1.
<scales pt_clust_3="50.41123" pt_clust_4="14000.00000" pt_clust_5="75.67436" pt_clust_6="65.52685"></scales>
<clustering>
<clus scale="   50.411">  2  3  1 -1</clus>
<clus scale="   65.527">  1  6  2 -1</clus>
<clus scale="   75.674">  2  5  1 -1</clus>
<clus scale="   65.527">  1  3  2 -1</clus>
</clustering>
</event>
<event>
 6    0  0.2036847E+002  0.1712210E+03  0.7546771E-02  0.1176580E+00
         21   -1    0    0  504  501  0.00000000000E+00  0.00000000000E+00  0.44863924442E+02  0.44863924442E+02  0.00000000000E+00 0.  1.
         21   -1    0    0  506  502 -0.00000000000E+00 -0.00000000000E+00 -0.11266722422E+04  0.11266722422E+04  0.00000000000E+00 0.  1.
         21    1    1    2  503  502 -0.84263223139E+02  0.12047567085E+03 -0.21623633976E+03  0.26148199302E+03  0.00000000000E+00 0.  1.
         21    1    1    2  504  503 -0.42448382175E+02 -0.39305744032E+01 -0.22536576028E+02  0.48220450262E+02  0.00000000000E+00 0.  1.
         21    1    1    2  505  501  0.56718964268E+02 -0.70416292508E+02 -0.33781280170E+03  0.34970413802E+03  0.00000000000E+00 0.  1.
         21    1    1    2  506  505  0.69992641046E+02 -0.46128803940E+02 -0.50522260024E+03  0.51212958530E+03  0.00000000000E+00 0.  1.
<scales pt_clust_3="164.03214" pt_clust_4="42.62997" pt_clust_5="47.35324" pt_clust_6="47.35324"></scales>
<clustering>
<clus scale="   42.630">  1  4  2 -1</clus>
<clus scale="   47.353">  5  6 -1 -1</clus>
<clus scale="  164.032">  1  3  2 -1</clus>
<clus scale="   42.630">  1  3  2 -1</clus>
</clustering>
</event>
<event>
 6    0  0.2036847E+002  0.6913592E+02  0.7546771E-02  0.1363056E+00
         21   -1    0    0  504  501  0.00000000000E+00  0.00000000000E+00  0.36213117215E+02  0.36213117215E+02  0.00000000000E+00 0.  1.
         21   -1    0    0  506  502 -0.00000000000E+00 -0.00000000000E+00 -0.13214671895E+04  0.13214671895E+04  0.00000000000E+00 0. -1.
         21    1    1    2  503  505 -0.21771282740E+02  0.61432582120E+02 -0.12366709689E+03  0.13979092156E+03  0.00000000000E+00 0. -1.
         21    1    1    2  504  502  0.45510823188E+02 -0.23677033573E+02 -0.77692294856E+03  0.77861486304E+03  0.00000000000E+00 0. -1.
         21    1    1    2  505  501  0.42205751638E+02  0.23496333870E+02 -0.44010326461E+01  0.48505383877E+02  0.00000000000E+00 0.  1.
         21    1    1    2  506  503 -0.65945292086E+02 -0.61251882417E+02 -0.38026299415E+03  0.39076913819E+03  0.00000000000E+00 0. -1.
<scales pt_clust_3="14000.00000" pt_clust_4="52.94517" pt_clust_5="48.30531" pt_clust_6="69.13592"></scales>
<clustering>
<clus scale="   48.305">  1  5  2 -1</clus>
<clus scale="   52.945">  2  4  1 -1</clus>
<clus scale="   69.136">  2  6  1 -1</clus>
<clus scale="   48.305">  1  3  2 -1</clus>
</clustering>
</event>
<event>
 6    0  0.2036847E+002  0.1500831E+03  0.7546771E-02  0.1200371E+00
         21   -1    0    0  506  501  0.00000000000E+00  0.00000000000E+00  0.45719762346E+03  0.45719762346E+03  0.00000000000E+00 0.  1.
         21   -1    0    0  503  502 -0.00000000000E+00 -0.00000000000E+00 -0.53670522396E+03  0.53670522396E+03  0.00000000000E+00 0.  1.
         21    1    1    2  503  505 -0.79885669946E+02  0.65228182896E+02  0.24328574800E+03  0.26424305343E+03  0.00000000000E+00 0.  1.
         21    1    1    2  504  502  0.32220415585E+02 -0.37056851959E+02 -0.26100416123E+03  0.26558339111E+03  0.00000000000E+00 0.  1.
         21    1    1    2  505  501 -0.12605818476E+02  0.38428894970E+02  0.19129580423E+03  0.19552434975E+03  0.00000000000E+00 0.  1.
         21    1    1    2  506  504  0.60271072838E+02 -0.66600225907E+02 -0.25308499150E+03  0.26855205312E+03  0.00000000000E+00 0.  1.
<scales pt_clust_3="35.56500" pt_clust_4="30.60696" pt_clust_5="35.56500" pt_clust_6="144.95867"></scales>
<clustering>
<clus scale="   30.607">  4  6 -1 -1</clus>
<clus scale="   35.565">  3  5 -1 -1</clus>
<clus scale="  144.959">  2  4  1 -1</clus>
<clus scale="  150.083">  1  3  2 -1</clus>
</clustering>
</event>
<event>
 6    0  0.2036847E+002  0.2938267E+03  0.7546771E-02  0.1088368E+00
         21   -1    0    0  504  501  0.00000000000E+00  0.00000000000E+00  0.14496446771E+04  0.14496446771E+04  0.00000000000E+00 0.  1.
         21   -1    0    0  503  502 -0.00000000000E+00 -0.00000000000E+00 -0.14188359601E+03  0.14188359601E+03  0.00000000000E+00 0.  1.
         21    1    1    2  503  505  0.95364243276E+02  0.21915050478E+03  0.74800418372E+02  0.25043239653E+03  0.00000000000E+00 0.  1.
         21    1    1    2  504  506 -0.14737816535E+03 -0.24150354312E+03  0.11420168613E+04  0.11765401805E+04  0.00000000000E+00 0.  1.
         21    1    1    2  505  501  0.49785462462E+02  0.71930133725E+02  0.59821098033E+02  0.10597688512E+03  0.00000000000E+00 0.  1.
         21    1    1    2  506  502  0.22284596074E+01 -0.49577095394E+02  0.31122703361E+02  0.58578810882E+02  0.00000000000E+00 0.  1.
<scales pt_clust_3="33.72948" pt_clust_4="288.48893" pt_clust_5="33.72948" pt_clust_6="49.62715"></scales>
<clustering>
<clus scale="   33.729">  3  5 -1 -1</clus>
<clus scale="   49.627">  2  6  1 -1</clus>
<clus scale="  288.489">  1  4  2 -1</clus>
<clus scale="  288.489">  1  3  2 -1</clus>
</clustering>
</event>
<event>
 6    0  0.2036847E+002  0.9070202E+02  0.7546771E-02  0.1301161E+00
         21   -1    0    0  505  501  0.00000000000E+00  0.00000000000E+00  0.69124970226E+03  0.69124970226E+03  0.00000000000E+00 0.  1.
         21   -1    0    0  504  502 -0.00000000000E+00 -0.00000000000E+00 -0.13895124394E+03  0.13895124394E+03  0.00000000000E+00 0.  1.
         21    1    1    2  503  501  0.44706558571E+02 -0.35840929231E+02 -0.66640171038E+01  0.57685853650E+02  0.00000000000E+00 0.  1.
         21    1    1    2  504  503 -0.38053014861E+02  0.27822297495E+02 -0.73793317561E+02  0.87564638380E+02  0.00000000000E+00 0.  1.
         21    1    1    2  505  506  0.80908436639E+02 -0.37998973585E+02  0.54633371274E+03  0.55359788908E+03  0.00000000000E+00 0.  1.
         21    1    1    2  506  502 -0.87561980350E+02  0.46017605321E+02  0.86422080237E+02  0.13135256509E+03  0.00000000000E+00 0.  1.
<scales pt_clust_3="31.31883" pt_clust_4="47.13928" pt_clust_5="90.70202" pt_clust_6="14000.00000"></scales>
<clustering>
<clus scale="   47.139">  2  4  1 -1</clus>
<clus scale="   31.319">  2  3  1 -1</clus>
<clus scale="   90.702">  1  5  2 -1</clus>
<clus scale="   90.702">  1  3  2 -1</clus>
</clustering>
</event>
<event>
 6    0  0.2036847E+002  0.8620089E+02  0.7546771E-02  0.1312322E+00
         21   -1    0    0  505  501  0.00000000000E+00  0.00000000000E+00  0.17314811831E+04  0.17314811831E+04  0.00000000000E+00 0.  1.
         21   -1    0    0  506  502 -0.00000000000E+00 -0.00000000000E+00 -0.20592415588E+02  0.20592415588E+02  0.00000000000E+00 0.  1.
         21    1    1    2  503  502 -0.64143730505E+02 -0.32303980745E+02  0.83281385881E+03  0.83590483236E+03  0.00000000000E+00 0.  1.
         21    1    1    2  504  501 -0.17975769783E+02  0.77300001152E+02  0.36218571569E+03  0.37077879001E+03  0.00000000000E+00 0.  1.
         21    1    1    2  505  503 -0.75756276339E+01 -0.50000618173E+02  0.37433816824E+03  0.37773868765E+03  0.00000000000E+00 0. -1.
         21    1    1    2  506  504  0.89695127922E+02  0.50045977655E+01  0.14155102475E+03  0.16765128863E+03  0.00000000000E+00 0.  1.
<scales pt_clust_3="86.20089" pt_clust_4="66.85035" pt_clust_5="50.57126" pt_clust_6="14000.00000"></scales>
<clustering>
<clus scale="   50.571">  1  5  2 -1</clus>
<clus scale="   66.850">  1  4  2 -1</clus>
<clus scale="   86.201">  1  3  2 -1</clus>
<clus scale="   50.571">  1  3  2 -1</clus>
</clustering>
</event>
<event>
 6    0  0.2036847E+002  0.8969359E+02  0.7546771E-02  0.1303595E+00
         21   -1    0    0  506  501  0.00000000000E+00  0.00000000000E+00  0.90553863906E+03  0.90553863906E+03  0.00000000000E+00 0. -1.
         21   -1    0    0  503  502 -0.00000000000E+00 -0.00000000000E+00 -0.12581972404E+04  0.12581972404E+04  0.00000000000E+00 0.  1.
         21    1    1    2  503  504 -0.81679620975E+02 -0.22887840695E+02 -0.11001311410E+04  0.11033965475E+04  0.00000000000E+00 0.  1.
         21    1    1    2  504  501 -0.72831419916E+01  0.73755832668E+02  0.30355341543E+03  0.31247022742E+03  0.00000000000E+00 0. -1.
         21    1    1    2  505  502  0.22633073441E+02 -0.45899435361E+02 -0.14574317021E+03  0.15446710279E+03  0.00000000000E+00 0.  1.
         21    1    1    2  506  505  0.66329689525E+02 -0.49685566114E+01  0.58966229439E+03  0.59340200176E+03  0.00000000000E+00 0. -1.
<scales pt_clust_3="14000.00000" pt_clust_4="89.69359" pt_clust_5="51.17630" pt_clust_6="66.55943"></scales>
<clustering>
<clus scale="   51.176">  2  5  1 -1</clus>
<clus scale="   66.559">  1  6  2 -1</clus>
<clus scale="   89.694">  1  4  2 -1</clus>
<clus scale="   66.559">  1  3  2 -1</clus>
</clustering>
</event>
<event>
 6    0  0.2036847E+002  0.1894777E+03  0.7546771E-02  0.1158933E+00
         21   -1    0    0  505  501  0.00000000000E+00  0.00000000000E+00  0.55738824341E+03  0.55738824341E+03  0.00000000000E+00 0. -1.
         21   -1    0    0  503  502 -0.00000000000E+00 -0.00000000000E+00 -0.55341249185E+03  0.55341249185E+03  0.00000000000E+00 0.  1.
         21    1    1    2  503  506  0.82098680650E+02 -0.97686949699E+02 -0.44147778470E+03  0.45954930953E+03  0.00000000000E+00 0.  1.
         21    1    1    2  504  501 -0.15788430614E+02  0.36607843926E+02  0.20750117768E+02  0.44944144953E+02  0.00000000000E+00 0.  1.
         21    1    1    2  505  502 -0.10136348975E+03  0.98250960871E+02  0.49762907198E+03  0.51726444073E+03  0.00000000000E+00 0. -1.
         21    1    1    2  506  504  0.35053239711E+02 -0.37171855098E+02 -0.72925653495E+02  0.89042840045E+02  0.00000000000E+00 0.  1.
<scales pt_clust_3="41.99139" pt_clust_4="39.86739" pt_clust_5="177.40018" pt_clust_6="41.99139"></scales>
<clustering>
<clus scale="   39.867">  1  4  2 -1</clus>
<clus scale="   41.991">  3  6 -1 -1</clus>
<clus scale="  177.400">  1  5  2 -1</clus>
<clus scale="   39.867">  1  3  2 -1</clus>
</clustering>
</event>
<event>
 6    0  0.2036847E+002  0.1487571E+03  0.7546771E-02  0.1202009E+00
         21   -1    0    0  506  501  0.00000000000E+00  0.00000000000E+00  0.89116047916E+03  0.89116047916E+03  0.00000000000E+00 0. -1.
         21   -1    0    0  504  502 -0.00000000000E+00 -0.00000000000E+00 -0.14743786715E+04  0.14743786715E+04  0.00000000000E+00 0. -1.
         21    1    1    2  503  505 -0.26468831819E+02  0.77552635134E+02  0.54009840655E+03  0.54627950633E+03  0.00000000000E+00 0. -1.
         21    1    1    2  504  501  0.13087835212E+02  0.86708058246E+02 -0.35075915301E+03  0.36155436965E+03  0.00000000000E+00 0. -1.
         21    1    1    2  505  502  0.57556294126E+02 -0.21216895157E+03 -0.11010648885E+04  0.11227966333E+04  0.00000000000E+00 0. -1.
         21    1    1    2  506  503 -0.44175297518E+02  0.47908258190E+02  0.32850744271E+03  0.33490864132E+03  0.00000000000E+00 0. -1.
<scales pt_clust_3="31.97198" pt_clust_4="87.69024" pt_clust_5="144.37200" pt_clust_6="31.97198"></scales>
<clustering>
<clus scale="   31.972">  3  6 -1 -1</clus>
<clus scale="   87.690">  2  4  1 -1</clus>
<clus scale="  144.372">  2  5  1 -1</clus>
<clus scale="  148.757">  1  3  2 -1</clus>
</clustering>
</event>
<event>
 6    0  0.2036847E+002  0.1079529E+03  0.7546771E-02  0.1264408E+00
         21   -1    0    0  505  501  0.00000000000E+00  0.00000000000E+00  0.64902601356E+03  0.64902601356E+03  0.00000000000E+00 0. -1.
         21   -1    0    0  504  502 -0.00000000000E+00 -0.00000000000E+00 -0.27896475888E+04  0.27896475888E+04  0.00000000000E+00 0.  1.
         21    1    1    2  503  506  0.62841668797E+02 -0.93358360444E+02 -0.51634535700E+03  0.52846701552E+03  0.00000000000E+00 0. -1.
         21    1    1    2  504  501 -0.63003646196E+02 -0.28701154601E+02  0.59435221958E+03  0.59837093565E+03  0.00000000000E+00 0. -1.
         21    1    1    2  505  503 -0.28829933022E+02  0.11349179914E+02  0.39839851170E+02  0.50469621200E+02  0.00000000000E+00 0. -1.
         21    1    1    2  506  502  0.28991910420E+02  0.11071033513E+03 -0.22584682890E+04  0.22613660300E+04  0.00000000000E+00 0.  1.
<scales pt_clust_3="107.95289" pt_clust_4="93.13267" pt_clust_5="30.98337" pt_clust_6="14000.00000"></scales>
<clustering>
<clus scale="   30.983">  1  5  2 -1</clus>
<clus scale="   93.133">  1  4  2 -1</clus>
<clus scale="  107.953">  1  3  2 -1</clus>
<clus scale="   30.983">  1  3  2 -1</clus>
</clustering>
</event>
<event>
 6    0  0.2036847E+002  0.1508746E+03  0.7546771E-02  0.1199402E+00
         21   -1    0    0  503  501  0.00000000000E+00  0.00000000000E+00  0.11778292426E+03  0.11778292426E+03  0.00000000000E+00 0. -1.
         21   -1    0    0  505  502 -0.00000000000E+00 -0.00000000000E+00 -0.66184852400E+03  0.66184852400E+03  0.00000000000E+00 0.  1.
         21    1    1    2  503  502  0.10709286813E+03  0.33450915503E+02  0.62028400347E+02  0.12820050156E+03  0.00000000000E+00 0. -1.
         21    1    1    2  504  506 -0.30598663319E+02  0.17244052536E+02 -0.85202719292E+02  0.92158227628E+02  0.00000000000E+00 0.  1.
         21    1    1    2  505  504 -0.11136151265E+03 -0.26274095901E+02 -0.49792815359E+03  0.51090523657E+03  0.00000000000E+00 0.  1.
         21    1    1    2  506  501  0.34867307847E+02 -0.24420872138E+02 -0.22963127204E+02  0.48367482501E+02  0.00000000000E+00 0. -1.
<scales pt_clust_3="139.11668" pt_clust_4="32.35231" pt_clust_5="32.35231" pt_clust_6="42.56886"></scales>
<clustering>
<clus scale="   32.352">  4  5 -1 -1</clus>
<clus scale="   42.569">  1  6  2 -1</clus>
<clus scale="  139.117">  1  3  2 -1</clus>
<clus scale="   42.569">  1  3  2 -1</clus>
</clustering>
</event>
<event>
 6    0  0.2036847E+002  0.1615486E+03  0.7546771E-02  0.1186959E+00
         21   -1    0    0  503  501  0.00000000000E+00  0.00000000000E+00  0.39993899572E+02  0.39993899572E+02  0.00000000000E+00 0.  1.
         21   -1    0    0  505  502 -0.00000000000E+00 -0.00000000000E+00 -0.20866389601E+04  0.20866389601E+04  0.00000000000E+00 0.  1.
         21    1    1    2  503  506 -0.31589654482E+02  0.32044971718E+01 -0.10002463432E+03  0.10494333015E+03  0.00000000000E+00 0.  1.
         21    1    1    2  504  502  0.17030821313E+02  0.62078581722E+02 -0.10016708017E+04  0.10037371141E+04  0.00000000000E+00 0.  1.
         21    1    1    2  505  501 -0.62616356933E+02 -0.11755353637E+03 -0.96687989177E+02  0.16458496079E+03  0.00000000000E+00 0.  1.
         21    1    1    2  506  504  0.77175190102E+02  0.52270457476E+02 -0.84826163533E+03  0.85336745466E+03  0.00000000000E+00 0.  1.
<scales pt_clust_3="31.75177" pt_clust_4="57.03343" pt_clust_5="146.49591" pt_clust_6="57.03343"></scales>
<clustering>
<clus scale="   31.752">  1  3  2 -1</clus>
<clus scale="   57.033">  4  6 -1 -1</clus>
<clus scale="  146.496">  1  5  2 -1</clus>
<clus scale="   31.752">  1  3  2 -1</clus>
</clustering>
</event>
<event>
 6    0  0.2036847E+002  0.7595943E+02  0.7546771E-02  0.1340925E+00
         21   -1    0    0  506  501  0.00000000000E+00  0.00000000000E+00  0.18416454493E+03  0.18416454493E+03  0.00000000000E+00 0. -1.
         21   -1    0    0  505  502 -0.00000000000E+00 -0.00000000000E+00 -0.13652273028E+04  0.13652273028E+04  0.00000000000E+00 0. -1.
         21    1    1    2  503  504 -0.49781771035E+01 -0.83252974436E+02 -0.26354590789E+02  0.87466590510E+02  0.00000000000E+00 0.  1.
         21    1    1    2  504  501  0.48012109306E+02  0.20161349626E+02  0.14351795637E+03  0.15267300501E+03  0.00000000000E+00 0. -1.
         21    1    1    2  505  503  0.51663187612E+02  0.22420247954E+02 -0.69565887289E+03  0.69793482497E+03  0.00000000000E+00 0. -1.
         21    1    1    2  506  502 -0.94697119815E+02  0.40671376857E+02 -0.60256725054E+03  0.61131742721E+03  0.00000000000E+00 0. -1.
<scales pt_clust_3="75.95943" pt_clust_4="52.07344" pt_clust_5="57.96111" pt_clust_6="14000.00000"></scales>
<clustering>
<clus scale="   52.073">  1  4  2 -1</clus>
<clus scale="   57.961">  2  5  1 -1</clus>
<clus scale="   75.959">  1  3  2 -1</clus>
<clus scale="   52.073">  1  3  2 -1</clus>
</clustering>
</event>
<event>
 6    0  0.2036847E+002  0.3425775E+03  0.7546771E-02  0.1065703E+00
         21   -1    0    0  505  501  0.00000000000E+00  0.00000000000E+00  0.18847498389E+03  0.18847498389E+03  0.00000000000E+00 0.  1.
         21   -1    0    0  503  502 -0.00000000000E+00 -0.00000000000E+00 -0.84507942320E+03  0.84507942320E+03  0.00000000000E+00 0.  1.
         21    1    1    2  503  501 -0.30872827163E+03  0.63276251501E+02 -0.48191936556E+03  0.57581533899E+03  0.00000000000E+00 0.  1.
         21    1    1    2  504  506  0.19328302037E+03 -0.40480799057E+02 -0.20857848031E+02  0.19857510136E+03  0.00000000000E+00 0.  1.
         21    1    1    2  505  504 -0.15305794529E+02  0.54550708599E+02 -0.42220869260E+02  0.70658679268E+02  0.00000000000E+00 0.  1.
         21    1    1    2  506  502  0.13075104579E+03 -0.77346161043E+02 -0.11160635645E+03  0.18850528747E+03  0.00000000000E+00 0.  1.
<scales pt_clust_3="322.42236" pt_clust_4="101.58635" pt_clust_5="56.65728" pt_clust_6="101.58635"></scales>
<clustering>
<clus scale="   56.657">  1  5  2 -1</clus>
<clus scale="  101.586">  4  6 -1 -1</clus>
<clus scale="  322.422">  2  3  1 -1</clus>
<clus scale="   56.657">  1  3  2 -1</clus>
</clustering>
</event>
<event>
 6    0  0.2036847E+002  0.8769509E+02  0.7546771E-02  0.1308531E+00
         21   -1    0    0  503  501  0.00000000000E+00  0.00000000000E+00  0.22515019172E+02  0.22515019172E+02  0.00000000000E+00 0.  1.
         21   -1    0    0  504  502 -0.00000000000E+00 -0.00000000000E+00 -0.25289407212E+04  0.25289407212E+04  0.00000000000E+00 0. -1.
         21    1    1    2  503  505 -0.56858345005E+02 -0.28930306751E+02 -0.30477479496E+03  0.31138000850E+03  0.00000000000E+00 0. -1.
         21    1    1    2  504  506  0.70170742486E+02  0.56627185147E+02 -0.18144192902E+03  0.20261230171E+03  0.00000000000E+00 0.  1.
         21    1    1    2  505  502 -0.18497398005E+02 -0.63599838640E+02 -0.19875471949E+04  0.19886505337E+04  0.00000000000E+00 0.  1.
         21    1    1    2  506  501  0.51850005243E+01  0.35902960244E+02 -0.32661783181E+02  0.48812896505E+02  0.00000000000E+00 0.  1.
<scales pt_clust_3="63.79525" pt_clust_4="35.50746" pt_clust_5="67.50196" pt_clust_6="35.50746"></scales>
<clustering>
<clus scale="   35.507">  4  6 -1 -1</clus>
<clus scale="   63.795">  1  3  2 -1</clus>
<clus scale="   67.502">  2  5  1 -1</clus>
<clus scale="   63.795">  1  3  2 -1</clus>
</clustering>
</event>
<event>
 6    0  0.2036847E+002  0.1418421E+03  0.7546771E-02  0.1210872E+00
         21   -1    0    0  505  501  0.00000000000E+00  0.00000000000E+00  0.51226745462E+03  0.51226745462E+03  0.00000000000E+00 0. -1.
         21   -1    0    0  503  502 -0.00000000000E+00 -0.00000000000E+00 -0.44859061807E+03  0.44859061807E+03  0.00000000000E+00 0. -1.
         21    1    1    2  503  506  0.58524216304E+02  0.35023177377E+02 -0.26540215755E+03  0.27402556829E+03  0.00000000000E+00 0. -1.
         21    1    1    2  504  501 -0.11415072442E+03 -0.84683887544E+02  0.46916174929E+03  0.49021882430E+03  0.00000000000E+00 0. -1.
         21    1    1    2  505  502  0.29648154298E+02 -0.13434942396E+02  0.80414098538E+01  0.33528719076E+02  0.00000000000E+00 0. -1.
         21    1    1    2  506  504  0.25978353817E+02  0.63095652563E+02 -0.14812416505E+03  0.16308496102E+03  0.00000000000E+00 0. -1.
<scales pt_clust_3="57.32798" pt_clust_4="129.71339" pt_clust_5="32.55013" pt_clust_6="57.32798"></scales>
<clustering>
<clus scale="   32.550">  1  5  2 -1</clus>
<clus scale="   57.328">  3  6 -1 -1</clus>
<clus scale="  129.713">  1  4  2 -1</clus>
<clus scale="   32.550">  1  3  2 -1</clus>
</clustering>
</event>
<event>
 6    0  0.2036847E+002  0.2641131E+03  0.7546771E-02  0.1104697E+00
         21   -1    0    0  505  501  0.00000000000E+00  0.00000000000E+00  0.11726129340E+04  0.11726129340E+04  0.00000000000E+00 0.  1.
         21   -1    0    0  503  502 -0.00000000000E+00 -0.00000000000E+00 -0.66239301548E+03  0.66239301548E+03  0.00000000000E+00 0. -1.
         21    1    1    2  503  501  0.17926022763E+03 -0.89169814996E+02 -0.32499024366E+03  0.38171212136E+03  0.00000000000E+00 0. -1.
         21    1    1    2  504  502  0.54537269320E+02 -0.32881868896E+02 -0.28999112677E+03  0.29690130457E+03  0.00000000000E+00 0. -1.
         21    1    1    2  505  506 -0.99774043650E+02  0.31308266516E+02  0.47063479391E+03  0.48211220331E+03  0.00000000000E+00 0.  1.
         21    1    1    2  506  504 -0.13402345330E+03  0.90743417376E+02  0.65456649506E+03  0.67428032026E+03  0.00000000000E+00 0.  1.
<scales pt_clust_3="261.05149" pt_clust_4="63.68305" pt_clust_5="32.23042" pt_clust_6="32.23042"></scales>
<clustering>
<clus scale="   32.230">  5  6 -1 -1</clus>
<clus scale="   63.683">  2  4  1 -1</clus>
<clus scale="  261.051">  2  3  1 -1</clus>
<clus scale="  264.113">  1  3  2 -1</clus>
</clustering>
</event>
<event>
 6    0  0.2036847E+002  0.2207290E+03  0.7546771E-02  0.1133341E+00
         21   -1    0    0  504  501  0.00000000000E+00  0.00000000000E+00  0.13753528319E+04  0.13753528319E+04  0.00000000000E+00 0.  1.
         21   -1    0    0  505  502 -0.00000000000E+00 -0.00000000000E+00 -0.22671981299E+03  0.22671981299E+03  0.00000000000E+00 0.  1.
         21    1    1    2  503  501  0.16155175480E+03  0.23697473518E+03  0.11886938020E+04  0.12228037248E+04  0.00000000000E+00 0.  1.
         21    1    1    2  504  506 -0.18356145996E+02 -0.60060343740E+02  0.73080622762E+02  0.96358551303E+02  0.00000000000E+00 0. -1.
         21    1    1    2  505  503 -0.36994838200E+01 -0.79844173089E+02 -0.73087343576E+02  0.10830760799E+03  0.00000000000E+00 0.  1.
         21    1    1    2  506  502 -0.13949612498E+03 -0.97070218347E+02 -0.40054062238E+02  0.17460276079E+03  0.00000000000E+00 0.  1.
<scales pt_clust_3="220.72900" pt_clust_4="62.80281" pt_clust_5="80.76032" pt_clust_6="14000.00000"></scales>
<clustering>
<clus scale="   62.803">  1  4  2 -1</clus>
<clus scale="   80.760">  2  5  1 -1</clus>
<clus scale="  220.729">  1  3  2 -1</clus>
<clus scale="   62.803">  1  3  2 -1</clus>
</clustering>
</event>
<event>
 6    0  0.2036847E+002  0.9274077E+02  0.7546771E-02  0.1296347E+00
         21   -1    0    0  504  501  0.00000000000E+00  0.00000000000E+00  0.32612430472E+02  0.32612430472E+02  0.00000000000E+00 0. -1.
         21   -1    0    0  503  502 -0.00000000000E+00 -0.00000000000E+00 -0.11702503519E+04  0.11702503519E+04  0.00000000000E+00 0. -1.
         21    1    1    2  503  506  0.83635006615E+02  0.93898326267E+01 -0.45125982636E+03  0.45904075437E+03  0.00000000000E+00 0. -1.
         21    1    1    2  504  505 -0.47803383030E+02  0.42637039374E+02 -0.82691809318E+02  0.10459931111E+03  0.00000000000E+00 0. -1.
         21    1    1    2  505  502 -0.10026862617E+03 -0.32365881518E+02 -0.52575370362E+03  0.53620733355E+03  0.00000000000E+00 0. -1.
         21    1    1    2  506  501  0.64437002586E+02 -0.19660990482E+02 -0.77932582146E+02  0.10301538336E+03  0.00000000000E+00 0. -1.
<scales pt_clust_3="92.74077" pt_clust_4="64.05529" pt_clust_5="14000.00000" pt_clust_6="37.09886"></scales>
<clustering>
<clus scale="   64.055">  1  4  2 -1</clus>
<clus scale="   37.099">  1  6  2 -1</clus>
<clus scale="   92.741">  2  3  1 -1</clus>
<clus scale="   64.055">  1  3  2 -1</clus>
</clustering>
</event>
<event>
 6    0  0.2036847E+002  0.9618768E+02  0.7546771E-02  0.1288523E+00
         21   -1    0    0  506  501  0.00000000000E+00  0.00000000000E+00  0.60018900218E+02  0.60018900218E+02  0.00000000000E+00 0. -1.
         21   -1    0    0  504  502 -0.00000000000E+00 -0.00000000000E+00 -0.73675923299E+03  0.73675923299E+03  0.00000000000E+00 0. -1.
         21    1    1    2  503  502  0.21073684304E+02 -0.72150582115E+02 -0.40105273838E+03  0.40803566711E+03  0.00000000000E+00 0. -1.
         21    1    1    2  504  505  0.14425313854E+02  0.11547206170E+03 -0.13420864526E+03  0.17763402595E+03  0.00000000000E+00 0. -1.
         21    1    1    2  505  501 -0.32000652490E+02  0.45154715395E+02 -0.16143323168E+02  0.57650645835E+02  0.00000000000E+00 0. -1.
         21    1    1    2  506  503 -0.34983456674E+01 -0.88476194979E+02 -0.12533562596E+03  0.15345779431E+03  0.00000000000E+00 0. -1.
<scales pt_clust_3="70.53157" pt_clust_4="96.18768" pt_clust_5="55.34429" pt_clust_6="14000.00000"></scales>
<clustering>
<clus scale="   55.344">  1  5  2 -1</clus>
<clus scale="   70.532">  2  3  1 -1</clus>
<clus scale="   96.188">  2  4  1 -1</clus>
<clus scale="   55.344">  1  3  2 -1</clus>
</clustering>
</event>
<event>
 6    0  0.2036847E+002  0.1209062E+03  0.7546771E-02  0.1241610E+00
         21   -1    0    0  505  501  0.00000000000E+00  0.00000000000E+00  0.41348533719E+03  0.41348533719E+03  0.00000000000E+00 0. -1.
         21   -1    0    0  504  502 -0.00000000000E+00 -0.00000000000E+00 -0.12696416521E+04  0.12696416521E+04  0.00000000000E+00 0. -1.
         21    1    1    2  503  501 -0.80691443290E+02 -0.48936469554E+02 -0.14064339230E+02  0.95413273242E+02  0.00000000000E+00 0. -1.
         21    1    1    2  504  503 -0.14534665604E+02 -0.39646560162E+02 -0.12523162937E+03  0.13215924951E+03  0.00000000000E+00 0. -1.
         21    1    1    2  505  506  0.64808327518E+02  0.17059595825E+03  0.34489634670E+03  0.39020070509E+03  0.00000000000E+00 0. -1.
         21    1    1    2  506  502  0.30417781376E+02 -0.82012928534E+02 -0.10617566930E+04  0.10653537615E+04  0.00000000000E+00 0. -1.
<scales pt_clust_3="95.96193" pt_clust_4="42.22684" pt_clust_5="120.90618" pt_clust_6="14000.00000"></scales>
<clustering>
<clus scale="   42.227">  2  4  1 -1</clus>
<clus scale="   95.962">  1  3  2 -1</clus>
<clus scale="  120.906">  1  5  2 -1</clus>
<clus scale="   95.962">  1  3  2 -1</clus>
</clustering>
</event>
<event>
 6    0  0.2036847E+002  0.7914500E+02  0.7546771E-02  0.1331495E+00
         21   -1    0    0  506  501  0.00000000000E+00  0.00000000000E+00  0.37413257631E+03  0.37413257631E+03  0.00000000000E+00 0.  1.
         21   -1    0    0  504  502 -0.00000000000E+00 -0.00000000000E+00 -0.12327007493E+04  0.12327007493E+04  0.00000000000E+00 0.  1.
         21    1    1    2  503  501 -0.39014716439E+02 -0.12083486097E+02  0.70634792775E+02  0.81593092143E+02  0.00000000000E+00 0.  1.
         21    1    1    2  504  503 -0.33412948594E+02 -0.24906589373E+02 -0.49437604582E+03  0.49612945691E+03  0.00000000000E+00 0.  1.
         21    1    1    2  505  502 -0.43357980675E+02  0.44843781580E+02 -0.71923595210E+03  0.72193575478E+03  0.00000000000E+00 0.  1.
         21    1    1    2  506  505  0.11578564571E+03 -0.78537061100E+01  0.28440903215E+03  0.30717502180E+03  0.00000000000E+00 0.  1.
<scales pt_clust_3="40.84310" pt_clust_4="41.78778" pt_clust_5="79.14500" pt_clust_6="14000.00000"></scales>
<clustering>
<clus scale="   40.843">  1  3  2 -1</clus>
<clus scale="   41.788">  2  4  1 -1</clus>
<clus scale="   79.145">  2  5  1 -1</clus>
<clus scale="   40.843">  1  3  2 -1</clus>
</clustering>
</event>
<event>
 6    0  0.2036847E+002  0.8357860E+02  0.7546771E-02  0.1319192E+00
         21   -1    0    0  503  501  0.00000000000E+00  0.00000000000E+00  0.40466705890E+03  0.40466705890E+03  0.00000000000E+00 0.  1.
         21   -1    0    0  504  502 -0.00000000000E+00 -0.00000000000E+00 -0.20553538857E+03  0.20553538857E+03  0.00000000000E+00 0.  1.
         21    1    1    2  503  506 -0.12312452355E+03 -0.73095338926E+02 -0.34773936352E+02  0.14734925694E+03  0.00000000000E+00 0.  1.
         21    1    1    2  504  505  0.32127129324E+02  0.31232757036E+02  0.22740152858E+03  0.23177379651E+03  0.00000000000E+00 0.  1.
         21    1    1    2  505  501  0.42657014445E+02 -0.11276263342E+02  0.10225990813E+03  0.11137263491E+03  0.00000000000E+00 0. -1.
         21    1    1    2  506  502  0.48340379777E+02  0.53138845232E+02 -0.95755830031E+02  0.11970675910E+03  0.00000000000E+00 0.  1.
<scales pt_clust_3="14000.00000" pt_clust_4="68.80480" pt_clust_5="44.12227" pt_clust_6="83.57860"></scales>
<clustering>
<clus scale="   44.122">  1  5  2 -1</clus>
<clus scale="   68.805">  1  4  2 -1</clus>
<clus scale="   83.579">  2  6  1 -1</clus>
<clus scale="   44.122">  1  3  2 -1</clus>
</clustering>
</event>
<event>
 6    0  0.2036847E+002  0.1278070E+03  0.7546771E-02  0.1230746E+00
         21   -1    0    0  505  501  0.00000000000E+00  0.00000000000E+00  0.45415886278E+03  0.45415886278E+03  0.00000000000E+00 0. -1.
         21   -1    0    0  506  502 -0.00000000000E+00 -0.00000000000E+00 -0.92378211900E+03  0.92378211900E+03  0.00000000000E+00 0.  1.
         21    1    1    2  503  501  0.33251266971E+02  0.22550577584E+02  0.20855762134E+03  0.21239222379E+03  0.00000000000E+00 0. -1.
         21    1    1    2  504  503  0.26751833666E+02 -0.36163962971E+02 -0.20596823769E+03  0.21082316704E+03  0.00000000000E+00 0. -1.
         21    1    1    2  505  502 -0.11961840684E+03  0.60917043031E+02  0.22033682409E+03  0.25800729725E+03  0.00000000000E+00 0. -1.
         21    1    1    2  506  504  0.59615306204E+02 -0.47303657644E+02 -0.69254946395E+03  0.69671829370E+03  0.00000000000E+00 0.  1.
<scales pt_clust_3="40.17680" pt_clust_4="33.25822" pt_clust_5="120.26356" pt_clust_6="33.25822"></scales>
<clustering>
<clus scale="   33.258">  4  6 -1 -1</clus>
<clus scale="   40.177">  1  3  2 -1</clus>
<clus scale="  120.264">  1  5  2 -1</clus>
<clus scale="   40.177">  1  3  2 -1</clus>
</clustering>
</event>
<event>
 6    0  0.2036847E+002  0.1714314E+03  0.7546771E-02  0.1176363E+00
         21   -1    0    0  503  501  0.00000000000E+00  0.00000000000E+00  0.28516656655E+03  0.28516656655E+03  0.00000000000E+00 0. -1.
         21   -1    0    0  505  502 -0.00000000000E+00 -0.00000000000E+00 -0.22559926513E+03  0.22559926513E+03  0.00000000000E+00 0. -1.
         21    1    1    2  503  504 -0.11139523419E+03 -0.29864398830E+02  0.18418621578E+03  0.21731392639E+03  0.00000000000E+00 0. -1.
         21    1    1    2  504  502 -0.48191298588E+02 -0.12824445959E+02  0.34879107415E+02  0.60855729457E+02  0.00000000000E+00 0. -1.
         21    1    1    2  505  506  0.69128037672E+02  0.35889335448E+02 -0.63245082281E+02  0.10033279835E+03  0.00000000000E+00 0. -1.
         21    1    1    2  506  501  0.90458495105E+02  0.67995093413E+01 -0.96252939495E+02  0.13226337749E+03  0.00000000000E+00 0. -1.
<scales pt_clust_3="30.12332" pt_clust_4="30.12332" pt_clust_5="34.31206" pt_clust_6="169.29667"></scales>
<clustering>
<clus scale="   30.123">  3  4 -1 -1</clus>
<clus scale="   34.312">  5  6 -1 -1</clus>
<clus scale="  169.297">  2  5  1 -1</clus>
<clus scale="  171.431">  1  3  2 -1</clus>
</clustering>
</event>
<event>
 6    0  0.2036847E+002  0.1219064E+03  0.7546771E-02  0.1239985E+00
         21   -1    0    0  506  501  0.00000000000E+00  0.00000000000E+00  0.26846466450E+03  0.26846466450E+03  0.00000000000E+00 0.  1.
         21   -1    0    0  503  502 -0.00000000000E+00 -0.00000000000E+00 -0.29644471577E+03  0.29644471577E+03  0.00000000000E+00 0. -1.
         21    1    1    2  503  501  0.65017105905E+02 -0.25164445580E+02  0.20527402854E+03  0.21678999094E+03  0.00000000000E+00 0.  1.
         21    1    1    2  504  502 -0.10793396526E+03  0.64709657470E+02 -0.23757961748E+03  0.26885154876E+03  0.00000000000E+00 0. -1.
         21    1    1    2  505  504  0.42016763163E+02 -0.24974578057E+01  0.22299819911E+01  0.42149952573E+02  0.00000000000E+00 0. -1.
         21    1    1    2  506  505  0.90009619600E+00 -0.37047754084E+02  0.20955556816E+01  0.37117887998E+02  0.00000000000E+00 0. -1.
<scales pt_clust_3="14000.00000" pt_clust_4="121.90640" pt_clust_5="42.49482" pt_clust_6="37.05869"></scales>
<clustering>
<clus scale="   37.059">  1  6  2 -1</clus>
<clus scale="   42.495">  1  5  2 -1</clus>
<clus scale="  121.906">  2  4  1 -1</clus>
<clus scale="   37.059">  1  3  2 -1</clus>
</clustering>
</event>
<event>
 6    0  0.2036847E+002  0.1873014E+03  0.7546771E-02  0.1160918E+00
         21   -1    0    0  504  501  0.00000000000E+00  0.00000000000E+00  0.14298578992E+04  0.14298578992E+04  0.00000000000E+00 0. -1.
         21   -1    0    0  506  502 -0.00000000000E+00 -0.00000000000E+00 -0.78842946259E+03  0.78842946259E+03  0.00000000000E+00 0. -1.
         21    1    1    2  503  501  0.33625664536E+02  0.22030221951E+02  0.10320993552E+03  0.11076238886E+03  0.00000000000E+00 0. -1.
         21    1    1    2  504  502  0.14775992177E+03  0.34261022292E+02  0.13018198648E+04  0.13106264810E+04  0.00000000000E+00 0. -1.
         21    1    1    2  505  503 -0.10825691244E+03 -0.74463117221E+02 -0.30427910952E+03  0.33143640628E+03  0.00000000000E+00 0. -1.
         21    1    1    2  506  505 -0.73128673871E+02  0.18171872978E+02 -0.45932225427E+03  0.46546208565E+03  0.00000000000E+00 0. -1.
<scales pt_clust_3="40.19970" pt_clust_4="187.30143" pt_clust_5="14000.00000" pt_clust_6="75.28927"></scales>
<clustering>
<clus scale="   40.200">  1  3  2 -1</clus>
<clus scale="   75.289">  2  6  1 -1</clus>
<clus scale="  187.301">  1  4  2 -1</clus>
<clus scale="   40.200">  1  3  2 -1</clus>
</clustering>
</event>
<event>
 6    0  0.2036847E+002  0.7130727E+02  0.7546771E-02  0.1355703E+00
         21   -1    0    0  506  501  0.00000000000E+00  0.00000000000E+00  0.13313770925E+03  0.13313770925E+03  0.00000000000E+00 0.  1.
         21   -1    0    0  505  502 -0.00000000000E+00 -0.00000000000E+00 -0.37145182131E+03  0.37145182131E+03  0.00000000000E+00 0.  1.
         21    1    1    2  503  504 -0.23224395867E+02 -0.74696887740E+02 -0.58263677256E+02  0.97537960245E+02  0.00000000000E+00 0.  1.
         21    1    1    2  504  502 -0.61645375451E+02  0.52992246316E+02 -0.25807330952E+03  0.27057376733E+03  0.00000000000E+00 0.  1.
         21    1    1    2  505  501  0.49123312822E+02 -0.20221960198E+02  0.55870892795E+02  0.77094644422E+02  0.00000000000E+00 0.  1.
         21    1    1    2  506  503  0.35746458496E+02  0.41926601622E+02  0.22151981916E+02  0.59383158567E+02  0.00000000000E+00 0.  1.
<scales pt_clust_3="14000.00000" pt_clust_4="71.30727" pt_clust_5="53.12276" pt_clust_6="72.12626"></scales>
<clustering>
<clus scale="   53.123">  1  5  2 -1</clus>
<clus scale="   72.126">  1  6  2 -1</clus>
<clus scale="   71.307">  2  4  1 -1</clus>
<clus scale="   53.123">  1  3  2 -1</clus>
</clustering>
</event>
<event>
 6    0  0.2036847E+002  0.2067540E+03  0.7546771E-02  0.1144163E+00
         21   -1    0    0  505  501  0.00000000000E+00  0.00000000000E+00  0.10969103806E+04  0.10969103806E+04  0.00000000000E+00 0.  1.
         21   -1    0    0  504  502 -0.00000000000E+00 -0.00000000000E+00 -0.14457720485E+03  0.14457720485E+03  0.00000000000E+00 0.  1.
         21    1    1    2  503  502  0.50517909093E+02 -0.25344004963E+03  0.93345844017E+02  0.27476783744E+03  0.00000000000E+00 0.  1.
         21    1    1    2  504  506  0.33087059353E+01  0.87609133449E+02  0.57157984246E+02  0.10465821975E+03  0.00000000000E+00 0.  1.
         21    1    1    2  505  503  0.10474874556E+02 -0.68664098759E+02  0.12684613202E+03  0.14461819617E+03  0.00000000000E+00 0.  1.
         21    1    1    2  506  501 -0.64301489585E+02  0.23449501494E+03  0.67498321549E+03  0.71744333211E+03  0.00000000000E+00 0.  1.
<scales pt_clust_3="206.75395" pt_clust_4="81.93649" pt_clust_5="69.45849" pt_clust_6="14000.00000"></scales>
<clustering>
<clus scale="   69.458">  1  5  2 -1</clus>
<clus scale="   81.936">  2  4  1 -1</clus>
<clus scale="  206.754">  2  3  1 -1</clus>
<clus scale="   69.458">  1  3  2 -1</clus>
</clustering>
</event>
<event>
 6    0  0.2616767E+002  0.1985246E+03  0.7546771E-02  0.1150990E+00
         21   -1    0    0  506  501  0.00000000000E+00  0.00000000000E+00  0.14396011861E+04  0.14396011861E+04  0.00000000000E+00 0.  1.
         21   -1    0    0  504  502 -0.00000000000E+00 -0.00000000000E+00 -0.54624095342E+03  0.54624095342E+03  0.00000000000E+00 0.  1.
         21    1    1    2  503  501  0.32389413050E+02  0.24963135378E+01  0.25297666006E+02  0.41173748486E+02  0.00000000000E+00 0. -1.
         21    1    1    2  504  505 -0.27641935168E+02  0.89489406144E+02 -0.40803603024E+03  0.41864762315E+03  0.00000000000E+00 0.  1.
         21    1    1    2  505  503 -0.42491038777E+02  0.10806533841E+03 -0.88700825831E+02  0.14612132714E+03  0.00000000000E+00 0.  1.
         21    1    1    2  506  502  0.37743560895E+02 -0.20005105809E+03  0.13647994228E+04  0.13798994408E+04  0.00000000000E+00 0.  1.
<scales pt_clust_3="32.48547" pt_clust_4="93.63426" pt_clust_5="198.52458" pt_clust_6="14000.00000"></scales>
<clustering>
<clus scale="   32.485">  1  3  2 -1</clus>
<clus scale="   93.634">  2  4  1 -1</clus>
<clus scale="  198.525">  2  5  1 -1</clus>
<clus scale="   32.485">  1  3  2 -1</clus>
</clustering>
</event>
<event>
 6    0  0.2036847E+002  0.1469281E+03  0.7546771E-02  0.1204299E+00
         21   -1    0    0  505  501  0.00000000000E+00  0.00000000000E+00  0.19339863034E+03  0.19339863034E+03  0.00000000000E+00 0.  1.
         21   -1    0    0  503  502 -0.00000000000E+00 -0.00000000000E+00 -0.11829401512E+03  0.11829401512E+03  0.00000000000E+00 0.  1.
         21    1    1    2  503  504 -0.81277609126E+02  0.26569701620E+02  0.52097791982E+02  0.10013080804E+03  0.00000000000E+00 0.  1.
         21    1    1    2  504  501 -0.46232224401E+02 -0.15288190420E+02  0.40842498460E+02  0.63555149436E+02  0.00000000000E+00 0.  1.
         21    1    1    2  505  506  0.62955852469E+02  0.30574302761E+02 -0.91007390403E+01  0.70576559852E+02  0.00000000000E+00 0.  1.
         21    1    1    2  506  502  0.64553981058E+02 -0.41855813961E+02 -0.87349361836E+01  0.77430128134E+02  0.00000000000E+00 0.  1.
<scales pt_clust_3="134.74122" pt_clust_4="31.74057" pt_clust_5="68.78976" pt_clust_6="68.78976"></scales>
<clustering>
<clus scale="   31.741">  3  4 -1 -1</clus>
<clus scale="   68.790">  5  6 -1 -1</clus>
<clus scale="  134.741">  1  3  2 -1</clus>
<clus scale="  134.741">  1  3  2 -1</clus>
</clustering>
</event>
<event>
 6    0  0.2036847E+002  0.1498599E+03  0.7546771E-02  0.1200645E+00
         21   -1    0    0  506  501  0.00000000000E+00  0.00000000000E+00  0.62455163174E+02  0.62455163174E+02  0.00000000000E+00 0.  1.
         21   -1    0    0  503  502 -0.00000000000E+00 -0.00000000000E+00 -0.42507398219E+03  0.42507398219E+03  0.00000000000E+00 0.  1.
         21    1    1    2  503  504 -0.10626071336E+02  0.45362022098E+02 -0.39572157451E+02  0.61127588585E+02  0.00000000000E+00 0.  1.
         21    1    1    2  504  501  0.21592946833E+02  0.88727141811E+02 -0.28059043097E+02  0.95530471298E+02  0.00000000000E+00 0.  1.
         21    1    1    2  505  502 -0.38442532093E+02 -0.88411866414E+02 -0.18283876933E+03  0.20669906136E+03  0.00000000000E+00 0.  1.
         21    1    1    2  506  505  0.27475656597E+02 -0.45677297495E+02 -0.11214884913E+03  0.12417202412E+03  0.00000000000E+00 0.  1.
<scales pt_clust_3="30.86824" pt_clust_4="141.30735" pt_clust_5="49.08602" pt_clust_6="49.08602"></scales>
<clustering>
<clus scale="   30.868">  3  4 -1 -1</clus>
<clus scale="   49.086">  5  6 -1 -1</clus>
<clus scale="  141.307">  1  3  2 -1</clus>
<clus scale="  141.307">  1  3  2 -1</clus>
</clustering>
</event>
<event>
 6    0  0.2036847E+002  0.9690279E+02  0.7546771E-02  0.1286947E+00
         21   -1    0    0  503  501  0.00000000000E+00  0.00000000000E+00  0.36895962493E+02  0.36895962493E+02  0.00000000000E+00 0. -1.
         21   -1    0    0  506  502 -0.00000000000E+00 -0.00000000000E+00 -0.77476378491E+03  0.77476378491E+03  0.00000000000E+00 0. -1.
         21    1    1    2  503  505  0.10567628175E+03 -0.19700029202E+02 -0.95973084478E+02  0.14410551905E+03  0.00000000000E+00 0. -1.
         21    1    1    2  504  501 -0.77663175484E+02  0.21972075647E+02 -0.17728009720E+03  0.19478853611E+03  0.00000000000E+00 0. -1.
         21    1    1    2  505  502  0.23402303691E+02  0.20530242576E+02 -0.15922839913E+03  0.16224315631E+03  0.00000000000E+00 0.  1.
         21    1    1    2  506  504 -0.51415409960E+02 -0.22802289020E+02 -0.30538624161E+03  0.31052253595E+03  0.00000000000E+00 0. -1.
<scales pt_clust_3="96.90279" pt_clust_4="14000.00000" pt_clust_5="31.13131" pt_clust_6="41.60252"></scales>
<clustering>
<clus scale="   31.131">  2  5  1 -1</clus>
<clus scale="   41.603">  2  6  1 -1</clus>
<clus scale="   96.903">  1  3  2 -1</clus>
<clus scale="   96.903">  1  3  2 -1</clus>
</clustering>
</event>
<event>
 6    0  0.2036847E+002  0.1494487E+03  0.7546771E-02  0.1201152E+00
         21   -1    0    0  506  501  0.00000000000E+00  0.00000000000E+00  0.83534092824E+02  0.83534092824E+02  0.00000000000E+00 0.  1.
         21   -1    0    0  505  502 -0.00000000000E+00 -0.00000000000E+00 -0.94702039702E+03  0.94702039702E+03  0.00000000000E+00 0. -1.
         21    1    1    2  503  502 -0.78888704787E+02 -0.21063869736E+02 -0.28676472463E+03  0.29816291125E+03  0.00000000000E+00 0. -1.
         21    1    1    2  504  503 -0.54500510329E+02 -0.97719613098E+02 -0.42162746486E+03  0.43622144323E+03  0.00000000000E+00 0. -1.
         21    1    1    2  505  501  0.13703866288E+02  0.79174786223E+02 -0.14980025715E+03  0.16998988137E+03  0.00000000000E+00 0. -1.
         21    1    1    2  506  504  0.11968534883E+03  0.39608696610E+02 -0.52938575540E+01  0.12618025400E+03  0.00000000000E+00 0.  1.
<scales pt_clust_3="63.91922" pt_clust_4="63.91922" pt_clust_5="80.35199" pt_clust_6="129.36858"></scales>
<clustering>
<clus scale="   63.919">  3  4 -1 -1</clus>
<clus scale="   80.352">  2  5  1 -1</clus>
<clus scale="  129.369">  1  6  2 -1</clus>
<clus scale="  129.369">  1  3  2 -1</clus>
</clustering>
</event>
<event>
 6    0  0.2036847E+002  0.8891165E+02  0.7546771E-02  0.1305509E+00
         21   -1    0    0  505  501  0.00000000000E+00  0.00000000000E+00  0.28058808031E+02  0.28058808031E+02  0.00000000000E+00 0.  1.
         21   -1    0    0  506  502 -0.00000000000E+00 -0.00000000000E+00 -0.30468443938E+04  0.30468443938E+04  0.00000000000E+00 0.  1.
         21    1    1    2  503  501 -0.20950388903E+02  0.29296411033E+02 -0.76042598432E+02  0.84140806218E+02  0.00000000000E+00 0.  1.
         21    1    1    2  504  503 -0.56122296538E+02  0.55823453095E+02 -0.14630026860E+04  0.14651425969E+04  0.00000000000E+00 0.  1.
         21    1    1    2  505  502  0.54165473648E+02 -0.11145769899E+03 -0.14633099803E+03  0.19175369145E+03  0.00000000000E+00 0.  1.
         21    1    1    2  506  504  0.22907211793E+02  0.26337834862E+02 -0.13334093033E+04  0.13338661072E+04  0.00000000000E+00 0.  1.
<scales pt_clust_3="36.42985" pt_clust_4="14000.00000" pt_clust_5="88.91165" pt_clust_6="34.90590"></scales>
<clustering>
<clus scale="   34.906">  2  6  1 -1</clus>
<clus scale="   36.430">  1  3  2 -1</clus>
<clus scale="   88.912">  1  5  2 -1</clus>
<clus scale="   36.430">  1  3  2 -1</clus>
</clustering>
</event>
<event>
 6    0  0.2036847E+002  0.1868671E+03  0.7546771E-02  0.1161318E+00
         21   -1    0    0  506  501  0.00000000000E+00  0.00000000000E+00  0.74480231624E+02  0.74480231624E+02  0.00000000000E+00 0.  1.
         21   -1    0    0  501  502 -0.00000000000E+00 -0.00000000000E+00 -0.17930641542E+04  0.17930641542E+04  0.00000000000E+00 0.  1.
         21    1    1    2  503  502  0.81565606713E+02  0.25703364015E+02 -0.94302047147E+03  0.94689028970E+03  0.00000000000E+00 0.  1.
         21    1    1    2  504  505 -0.14747403827E+03 -0.50177908787E+02 -0.46082623052E+02  0.16245006199E+03  0.00000000000E+00 0.  1.
         21    1    1    2  505  503  0.75884132755E+02  0.63842447478E+02 -0.70245740578E+03  0.70942277003E+03  0.00000000000E+00 0. -1.
         21    1    1    2  506  504 -0.99757011955E+01 -0.39367902706E+02 -0.27023422330E+02  0.48781264152E+02  0.00000000000E+00 0. -1.
<scales pt_clust_3="50.85249" pt_clust_4="178.75317" pt_clust_5="50.85249" pt_clust_6="40.61215"></scales>
<clustering>
<clus scale="   40.612">  1  6  2 -1</clus>
<clus scale="   50.852">  3  5 -1 -1</clus>
<clus scale="  178.753">  1  4  2 -1</clus>
<clus scale="   40.612">  1  3  2 -1</clus>
</clustering>
</event>
<event>
 6    0  0.2036847E+002  0.1008611E+03  0.7546771E-02  0.1278496E+00
         21   -1    0    0  506  501  0.00000000000E+00  0.00000000000E+00  0.57811033330E+03  0.57811033330E+03  0.00000000000E+00 0. -1.
         21   -1    0    0  503  502 -0.00000000000E+00 -0.00000000000E+00 -0.44844344727E+02  0.44844344727E+02  0.00000000000E+00 0. -1.
         21    1    1    2  503  504 -0.60741586461E+01 -0.58491725970E+02  0.22453672628E+02  0.62947158988E+02  0.00000000000E+00 0. -1.
         21    1    1    2  504  505 -0.44202304955E+01 -0.50326991641E+02  0.57957314563E+02  0.76885595768E+02  0.00000000000E+00 0. -1.
         21    1    1    2  505  501 -0.44872310549E+02  0.73322644344E+02  0.14712589509E+03  0.17039883636E+03  0.00000000000E+00 0. -1.
         21    1    1    2  506  502  0.55366699690E+02  0.35496073267E+02  0.30572910629E+03  0.31272308691E+03  0.00000000000E+00 0. -1.
<scales pt_clust_3="31.23495" pt_clust_4="31.23495" pt_clust_5="95.06490" pt_clust_6="65.76810"></scales>
<clustering>
<clus scale="   31.235">  3  4 -1 -1</clus>
<clus scale="   65.768">  1  6  2 -1</clus>
<clus scale="   95.065">  1  5  2 -1</clus>
<clus scale="   65.768">  1  3  2 -1</clus>
</clustering>
</event>
<event>
 6    0  0.2036847E+002  0.1891617E+03  0.7546771E-02  0.1159220E+00
         21   -1    0    0  506  501  0.00000000000E+00  0.00000000000E+00  0.37987800844E+03  0.37987800844E+03  0.00000000000E+00 0. -1.
         21   -1    0    0  504  502 -0.00000000000E+00 -0.00000000000E+00 -0.22324673112E+03  0.22324673112E+03  0.00000000000E+00 0.  1.
         21    1    1    2  503  501 -0.68549429517E+02 -0.74217238782E+02  0.34135350181E+02  0.10664166611E+03  0.00000000000E+00 0. -1.
         21    1    1    2  504  505 -0.92216564020E+01 -0.31766508996E+02 -0.11244457429E+03  0.11720892597E+03  0.00000000000E+00 0.  1.
         21    1    1    2  505  503 -0.89077938204E+01 -0.55226581248E+02 -0.25069203162E+02  0.61300807615E+02  0.00000000000E+00 0.  1.
         21    1    1    2  506  502  0.86678879740E+02  0.16121032902E+03  0.26000970459E+03  0.31797333986E+03  0.00000000000E+00 0. -1.
<scales pt_clust_3="57.76662" pt_clust_4="33.07794" pt_clust_5="57.76662" pt_clust_6="174.39897"></scales>
<clustering>
<clus scale="   33.078">  2  4  1 -1</clus>
<clus scale="   57.767">  3  5 -1 -1</clus>
<clus scale="  174.399">  1  6  2 -1</clus>
<clus scale="  174.399">  1  3  2 -1</clus>
</clustering>
</event>
<event>
 6    0  0.2036847E+002  0.7030003E+02  0.7546771E-02  0.1359076E+00
         21   -1    0    0  505  501  0.00000000000E+00  0.00000000000E+00  0.95143689702E+03  0.95143689702E+03  0.00000000000E+00 0. -1.
         21   -1    0    0  506  502 -0.00000000000E+00 -0.00000000000E+00 -0.12321262692E+03  0.12321262692E+03  0.00000000000E+00 0. -1.
         21    1    1    2  503  501 -0.31584782067E+02  0.15929446477E+02  0.69271114859E+03  0.69361378381E+03  0.00000000000E+00 0. -1.
         21    1    1    2  504  502  0.54199441125E+02  0.46891523451E+02 -0.82408406541E+02  0.10921327693E+03  0.00000000000E+00 0. -1.
         21    1    1    2  505  504  0.49716537396E+02 -0.52412949784E+02  0.16924568861E+03  0.18401889715E+03  0.00000000000E+00 0. -1.
         21    1    1    2  506  503 -0.72331196454E+02 -0.10408020144E+02  0.48675839442E+02  0.87803566038E+02  0.00000000000E+00 0. -1.
<scales pt_clust_3="35.37437" pt_clust_4="70.30003" pt_clust_5="50.14302" pt_clust_6="14000.00000"></scales>
<clustering>
<clus scale="   35.374">  1  3  2 -1</clus>
<clus scale="   50.143">  1  5  2 -1</clus>
<clus scale="   70.300">  2  4  1 -1</clus>
<clus scale="   35.374">  1  3  2 -1</clus>
</clustering>
</event>
<event>
 6    0  0.2036847E+002  0.7186999E+02  0.7546771E-02  0.1353847E+00
         21   -1    0    0  503  501  0.00000000000E+00  0.00000000000E+00  0.10230040665E+04  0.10230040665E+04  0.00000000000E+00 0.  1.
         21   -1    0    0  506  502 -0.00000000000E+00 -0.00000000000E+00 -0.16608209420E+03  0.16608209420E+03  0.00000000000E+00 0. -1.
         21    1    1    2  503  504 -0.93579757178E+02 -0.26349828032E+02  0.83924335928E+03  0.84485555008E+03  0.00000000000E+00 0.  1.
         21    1    1    2  504  502 -0.89405433086E+00  0.78316187596E+02 -0.83122376797E+02  0.11420838015E+03  0.00000000000E+00 0. -1.
         21    1    1    2  505  501  0.34826250788E+02 -0.15736887659E+02  0.14330232118E+03  0.14831073000E+03  0.00000000000E+00 0. -1.
         21    1    1    2  506  505  0.59647560721E+02 -0.36229471905E+02 -0.42501331403E+02  0.81711500448E+02  0.00000000000E+00 0. -1.
<scales pt_clust_3="14000.00000" pt_clust_4="71.86999" pt_clust_5="38.21672" pt_clust_6="70.63621"></scales>
<clustering>
<clus scale="   38.217">  1  5  2 -1</clus>
<clus scale="   70.636">  2  6  1 -1</clus>
<clus scale="   71.870">  2  4  1 -1</clus>
<clus scale="   38.217">  1  3  2 -1</clus>
</clustering>
</event>
<event>
 6    0  0.2036847E+002  0.1567670E+03  0.7546771E-02  0.1192396E+00
         21   -1    0    0  506  501  0.00000000000E+00  0.00000000000E+00  0.23310035296E+03  0.23310035296E+03  0.00000000000E+00 0. -1.
         21   -1    0    0  503  502 -0.00000000000E+00 -0.00000000000E+00 -0.29453260342E+03  0.29453260342E+03  0.00000000000E+00 0.  1.
         21    1    1    2  503  501  0.71250816413E+02  0.98520978166E+02  0.10049775110E+03  0.15774301872E+03  0.00000000000E+00 0. -1.
         21    1    1    2  504  502  0.16020948841E+02 -0.11618538003E+03 -0.18420107141E+03  0.21837066662E+03  0.00000000000E+00 0.  1.
         21    1    1    2  505  504 -0.22290761609E+02 -0.35997715805E+02 -0.30413992340E+02  0.52131799570E+02  0.00000000000E+00 0.  1.
         21    1    1    2  506  505 -0.64981003645E+02  0.53662117665E+02  0.52685062180E+02  0.99387471463E+02  0.00000000000E+00 0. -1.
<scales pt_clust_3="143.74610" pt_clust_4="37.58454" pt_clust_5="37.58454" pt_clust_6="84.27428"></scales>
<clustering>
<clus scale="   37.585">  4  5 -1 -1</clus>
<clus scale="   84.274">  1  6  2 -1</clus>
<clus scale="  143.746">  1  3  2 -1</clus>
<clus scale="   84.274">  1  3  2 -1</clus>
</clustering>
</event>
<event>
 6    0  0.2036847E+002  0.6867097E+02  0.7546771E-02  0.1364672E+00
         21   -1    0    0  506  501  0.00000000000E+00  0.00000000000E+00  0.10247535621E+04  0.10247535621E+04  0.00000000000E+00 0. -1.
         21   -1    0    0  504  502 -0.00000000000E+00 -0.00000000000E+00 -0.68909128547E+02  0.68909128547E+02  0.00000000000E+00 0. -1.
         21    1    1    2  503  502  0.28379055863E+02  0.47340129978E+02  0.79207160644E+01  0.55760169126E+02  0.00000000000E+00 0. -1.
         21    1    1    2  504  501 -0.45478322505E+02  0.54411997694E+02  0.81279572276E+03  0.81588346610E+03  0.00000000000E+00 0. -1.
         21    1    1    2  505  503 -0.21766699395E+02 -0.91817836449E+02  0.15224493381E+02  0.95582893299E+02  0.00000000000E+00 0. -1.
         21    1    1    2  506  505  0.38865966036E+02 -0.99342912229E+01  0.11990350138E+03  0.12643616216E+03  0.00000000000E+00 0. -1.
<scales pt_clust_3="68.67097" pt_clust_4="46.60806" pt_clust_5="14000.00000" pt_clust_6="40.11550"></scales>
<clustering>
<clus scale="   40.116">  1  6  2 -1</clus>
<clus scale="   46.608">  1  4  2 -1</clus>
<clus scale="   68.671">  2  3  1 -1</clus>
<clus scale="   40.116">  1  3  2 -1</clus>
</clustering>
</event>
<event>
 6    0  0.2036847E+002  0.1006517E+03  0.7546771E-02  0.1278931E+00
         21   -1    0    0  505  501  0.00000000000E+00  0.00000000000E+00  0.20817622350E+03  0.20817622350E+03  0.00000000000E+00 0.  1.
         21   -1    0    0  506  502 -0.00000000000E+00 -0.00000000000E+00 -0.42332289498E+03  0.42332289498E+03  0.00000000000E+00 0.  1.
         21    1    1    2  503  501  0.11038441544E+02  0.56842792671E+02  0.15103878093E+03  0.16175804034E+03  0.00000000000E+00 0.  1.
         21    1    1    2  504  502  0.14710093233E+02 -0.11393813537E+03 -0.18615941772E+03  0.21875468987E+03  0.00000000000E+00 0.  1.
         21    1    1    2  505  504  0.23124582478E+02 -0.24015680186E+02  0.13157187449E+02  0.35841467480E+02  0.00000000000E+00 0.  1.
         21    1    1    2  506  503 -0.48873117255E+02  0.81111022882E+02 -0.19318322214E+03  0.21514492078E+03  0.00000000000E+00 0.  1.
<scales pt_clust_3="47.63150" pt_clust_4="100.65173" pt_clust_5="33.33915" pt_clust_6="14000.00000"></scales>
<clustering>
<clus scale="   33.339">  1  5  2 -1</clus>
<clus scale="   47.632">  1  3  2 -1</clus>
<clus scale="  100.652">  1  4  2 -1</clus>
<clus scale="   33.339">  1  3  2 -1</clus>
</clustering>
</event>
<event>
 6    0  0.2036847E+002  0.1307208E+03  0.7546771E-02  0.1226390E+00
         21   -1    0    0  503  501  0.00000000000E+00  0.00000000000E+00  0.41831222547E+03  0.41831222547E+03  0.00000000000E+00 0. -1.
         21   -1    0    0  504  502 -0.00000000000E+00 -0.00000000000E+00 -0.40726408046E+02  0.40726408046E+02  0.00000000000E+00 0. -1.
         21    1    1    2  503  506 -0.46945617396E+02 -0.34538337419E+02  0.87361229882E+02  0.10501796147E+03  0.00000000000E+00 0. -1.
         21    1    1    2  504  505  0.40852638073E+02  0.33242194504E+02  0.77814628777E+02  0.93963279980E+02  0.00000000000E+00 0. -1.
         21    1    1    2  505  501  0.77770273335E+02  0.37607313711E+01  0.10038751824E+03  0.12704334825E+03  0.00000000000E+00 0. -1.
         21    1    1    2  506  502 -0.71677294012E+02 -0.24645884560E+01  0.11202244053E+03  0.13301404383E+03  0.00000000000E+00 0. -1.
<scales pt_clust_3="34.50115" pt_clust_4="33.38132" pt_clust_5="33.38132" pt_clust_6="130.02072"></scales>
<clustering>
<clus scale="   33.381">  4  5 -1 -1</clus>
<clus scale="   34.501">  3  6 -1 -1</clus>
<clus scale="  130.021">  1  3  2 -1</clus>
<clus scale="  130.021">  1  3  2 -1</clus>
</clustering>
</event>
<event>
 6    0  0.2036847E+002  0.2140283E+03  0.7546771E-02  0.1138415E+00
         21   -1    0    0  503  501  0.00000000000E+00  0.00000000000E+00  0.38964365931E+02  0.38964365931E+02  0.00000000000E+00 0. -1.
         21   -1    0    0  505  502 -0.00000000000E+00 -0.00000000000E+00 -0.11917927167E+04  0.11917927167E+04  0.00000000000E+00 0.  1.
         21    1    1    2  503  506 -0.66886854871E+02  0.28647655921E+02 -0.15195502638E+03  0.16847809824E+03  0.00000000000E+00 0.  1.
         21    1    1    2  504  501  0.12405157630E+03 -0.91273354763E+02 -0.29029878718E+03  0.32862289134E+03  0.00000000000E+00 0. -1.
         21    1    1    2  505  504  0.35988803039E+02 -0.32978999449E+02 -0.20882032212E+03  0.21444984327E+03  0.00000000000E+00 0. -1.
         21    1    1    2  506  502 -0.93153524467E+02  0.95604698291E+02 -0.50175421509E+03  0.51920624978E+03  0.00000000000E+00 0.  1.
<scales pt_clust_3="49.65108" pt_clust_4="38.82763" pt_clust_5="38.82763" pt_clust_6="213.48066"></scales>
<clustering>
<clus scale="   38.828">  4  5 -1 -1</clus>
<clus scale="   49.651">  3  6 -1 -1</clus>
<clus scale="  213.481">  2  3  1 -1</clus>
<clus scale="  214.028">  1  3  2 -1</clus>
</clustering>
</event>
<event>
 6    0  0.2036847E+002  0.2041293E+03  0.7546771E-02  0.1146301E+00
         21   -1    0    0  502  501  0.00000000000E+00  0.00000000000E+00  0.13283785644E+04  0.13283785644E+04  0.00000000000E+00 0. -1.
         21   -1    0    0  506  502 -0.00000000000E+00 -0.00000000000E+00 -0.81281138765E+02  0.81281138765E+02  0.00000000000E+00 0.  1.
         21    1    1    2  503  505 -0.27173558511E+02 -0.18746790707E+02  0.36713175283E+03  0.36861303338E+03  0.00000000000E+00 0. -1.
         21    1    1    2  504  503 -0.99369863112E+02 -0.14809685048E+03  0.36391429915E+03  0.40526616432E+03  0.00000000000E+00 0. -1.
         21    1    1    2  505  501  0.21317926836E+02 -0.23862358337E+02  0.37483366429E+03  0.37619694581E+03  0.00000000000E+00 0. -1.
         21    1    1    2  506  504  0.10522549479E+03  0.19070599952E+03  0.14121770937E+03  0.25958355966E+03  0.00000000000E+00 0.  1.
<scales pt_clust_3="33.77240" pt_clust_4="204.12932" pt_clust_5="31.99791" pt_clust_6="14000.00000"></scales>
<clustering>
<clus scale="   31.998">  1  5  2 -1</clus>
<clus scale="   33.772">  1  3  2 -1</clus>
<clus scale="  204.129">  1  4  2 -1</clus>
<clus scale="   31.998">  1  3  2 -1</clus>
</clustering>
</event>
<event>
 6    0  0.2036847E+002  0.1769411E+03  0.7546771E-02  0.1170797E+00
         21   -1    0    0  503  501  0.00000000000E+00  0.00000000000E+00  0.44575705820E+03  0.44575705820E+03  0.00000000000E+00 0.  1.
         21   -1    0    0  504  502 -0.00000000000E+00 -0.00000000000E+00 -0.13113480645E+03  0.13113480645E+03  0.00000000000E+00 0.  1.
         21    1    1    2  503  502 -0.31496424993E+02 -0.27821996386E+02  0.13633150076E+03  0.14266172006E+03  0.00000000000E+00 0.  1.
         21    1    1    2  504  505  0.51294992389E+01  0.71101619006E+02  0.92503927806E+01  0.71884085543E+02  0.00000000000E+00 0.  1.
         21    1    1    2  505  506  0.42221211599E+02  0.10323164943E+03 -0.29238310845E+02  0.11530083684E+03  0.00000000000E+00 0.  1.
         21    1    1    2  506  501 -0.15854285845E+02 -0.14651127206E+03  0.19827866905E+03  0.24704522222E+03  0.00000000000E+00 0.  1.
<scales pt_clust_3="42.02485" pt_clust_4="35.79369" pt_clust_5="35.79369" pt_clust_6="171.18310"></scales>
<clustering>
<clus scale="   35.794">  4  5 -1 -1</clus>
<clus scale="   42.025">  1  3  2 -1</clus>
<clus scale="  171.183">  1  6  2 -1</clus>
<clus scale="   42.025">  1  3  2 -1</clus>
</clustering>
</event>
<event>
 6    0  0.2036847E+002  0.1003909E+03  0.7546771E-02  0.1279476E+00
         21   -1    0    0  506  501  0.00000000000E+00  0.00000000000E+00  0.88507869126E+03  0.88507869126E+03  0.00000000000E+00 0. -1.
         21   -1    0    0  503  502 -0.00000000000E+00 -0.00000000000E+00 -0.10109194440E+03  0.10109194440E+03  0.00000000000E+00 0. -1.
         21    1    1    2  503  504 -0.80833123847E+02 -0.75354298700E+02  0.74264234856E+02  0.13314443594E+03  0.00000000000E+00 0. -1.
         21    1    1    2  504  501 -0.17370521636E+02  0.67640779096E+02  0.63231251799E+03  0.63615731579E+03  0.00000000000E+00 0. -1.
         21    1    1    2  505  502  0.10909285805E+03 -0.26318921258E+02 -0.19208485617E+02  0.11385474612E+03  0.00000000000E+00 0. -1.
         21    1    1    2  506  505 -0.10889212570E+02  0.34032440862E+02  0.96618479637E+02  0.10301413781E+03  0.00000000000E+00 0. -1.
<scales pt_clust_3="14000.00000" pt_clust_4="98.66072" pt_clust_5="100.39087" pt_clust_6="35.73209"></scales>
<clustering>
<clus scale="   35.732">  1  6  2 -1</clus>
<clus scale="   98.661">  1  4  2 -1</clus>
<clus scale="  100.391">  2  5  1 -1</clus>
<clus scale="   35.732">  1  3  2 -1</clus>
</clustering>
</event>
<event>
 6    0  0.2036847E+002  0.1892426E+03  0.7546771E-02  0.1159146E+00
         21   -1    0    0  503  501  0.00000000000E+00  0.00000000000E+00  0.80064576241E+02  0.80064576241E+02  0.00000000000E+00 0. -1.
         21   -1    0    0  505  502 -0.00000000000E+00 -0.00000000000E+00 -0.15642464676E+04  0.15642464676E+04  0.00000000000E+00 0. -1.
         21    1    1    2  503  502  0.10936963468E+03  0.79778054585E+02 -0.52681220455E+02  0.14526378066E+03  0.00000000000E+00 0. -1.
         21    1    1    2  504  506 -0.39965253687E+02  0.27583614922E+02 -0.23921767308E+03  0.24409664567E+03  0.00000000000E+00 0. -1.
         21    1    1    2  505  504 -0.14874777604E+03 -0.12324255500E+02 -0.10719865453E+04  0.10823275573E+04  0.00000000000E+00 0. -1.
         21    1    1    2  506  501  0.79343395052E+02 -0.95037414007E+02 -0.12029645252E+03  0.17262306013E+03  0.00000000000E+00 0. -1.
<scales pt_clust_3="177.52057" pt_clust_4="37.39950" pt_clust_5="37.39950" pt_clust_6="123.80422"></scales>
<clustering>
<clus scale="   37.399">  4  5 -1 -1</clus>
<clus scale="  123.804">  1  6  2 -1</clus>
<clus scale="  177.521">  1  3  2 -1</clus>
<clus scale="  123.804">  1  3  2 -1</clus>
</clustering>
</event>
<event>
 6    0  0.2036847E+002  0.1126938E+03  0.7546771E-02  0.1255661E+00
         21   -1    0    0  503  501  0.00000000000E+00  0.00000000000E+00  0.13879326150E+03  0.13879326150E+03  0.00000000000E+00 0. -1.
         21   -1    0    0  504  502 -0.00000000000E+00 -0.00000000000E+00 -0.37258768874E+03  0.37258768874E+03  0.00000000000E+00 0. -1.
         21    1    1    2  503  506 -0.74658461301E+02 -0.10148664136E+03 -0.50947944743E+02  0.13590113058E+03  0.00000000000E+00 0. -1.
         21    1    1    2  504  505  0.28846527003E+02  0.11804706807E+03 -0.92428930459E+02  0.15267723991E+03  0.00000000000E+00 0. -1.
         21    1    1    2  505  501  0.83373707271E+02  0.94347224258E+01  0.33795633210E+02  0.90456253932E+02  0.00000000000E+00 0. -1.
         21    1    1    2  506  502 -0.37561772973E+02 -0.25995149133E+02 -0.12421318525E+03  0.13234632582E+03  0.00000000000E+00 0. -1.
<scales pt_clust_3="14000.00000" pt_clust_4="112.69380" pt_clust_5="79.27839" pt_clust_6="45.67970"></scales>
<clustering>
<clus scale="   45.680">  2  6  1 -1</clus>
<clus scale="   79.278">  1  5  2 -1</clus>
<clus scale="  112.694">  2  4  1 -1</clus>
<clus scale="   79.278">  1  3  2 -1</clus>
</clustering>
</event>
<event>
 6    0  0.2036847E+002  0.7483694E+02  0.7546771E-02  0.1344377E+00
         21   -1    0    0  505  501  0.00000000000E+00  0.00000000000E+00  0.32368479162E+02  0.32368479162E+02  0.00000000000E+00 0. -1.
         21   -1    0    0  506  502 -0.00000000000E+00 -0.00000000000E+00 -0.23630053222E+04  0.23630053222E+04  0.00000000000E+00 0.  1.
         21    1    1    2  503  501 -0.57441140568E+02 -0.38692389517E+02 -0.50228927769E+02  0.85554256593E+02  0.00000000000E+00 0. -1.
         21    1    1    2  504  502  0.47924428515E+02 -0.20968702906E+02 -0.15421128299E+04  0.15429998113E+04  0.00000000000E+00 0.  1.
         21    1    1    2  505  504  0.35707847016E+02  0.10191404840E+03 -0.20951091522E+03  0.23570393971E+03  0.00000000000E+00 0. -1.
         21    1    1    2  506  503 -0.26191134963E+02 -0.42252955978E+02 -0.52878417015E+03  0.53111579382E+03  0.00000000000E+00 0.  1.
<scales pt_clust_3="14000.00000" pt_clust_4="62.17004" pt_clust_5="74.83694" pt_clust_6="49.71205"></scales>
<clustering>
<clus scale="   49.712">  2  6  1 -1</clus>
<clus scale="   62.170">  2  4  1 -1</clus>
<clus scale="   74.837">  2  5  1 -1</clus>
<clus scale="   74.837">  1  3  2 -1</clus>
</clustering>
</event>
<event>
 6    0  0.2036847E+002  0.1111690E+03  0.7546771E-02  0.1258420E+00
         21   -1    0    0  504  501  0.00000000000E+00  0.00000000000E+00  0.72781076874E+02  0.72781076874E+02  0.00000000000E+00 0. -1.
         21   -1    0    0  506  502 -0.00000000000E+00 -0.00000000000E+00 -0.82545008177E+03  0.82545008177E+03  0.00000000000E+00 0.  1.
         21    1    1    2  503  501  0.17199795764E+02  0.12847147575E+03 -0.35417854262E+02  0.13436955554E+03  0.00000000000E+00 0. -1.
         21    1    1    2  504  502 -0.32668826911E+02 -0.16414438302E+01 -0.94352231848E+02  0.99861355109E+02  0.00000000000E+00 0. -1.
         21    1    1    2  505  503  0.34359410080E+02 -0.87858571587E+02 -0.93466438488E+02  0.13279937043E+03  0.00000000000E+00 0.  1.
         21    1    1    2  506  505 -0.18890378933E+02 -0.38971460330E+02 -0.52943248030E+03  0.53120087757E+03  0.00000000000E+00 0.  1.
<scales pt_clust_3="111.16898" pt_clust_4="32.71004" pt_clust_5="14000.00000" pt_clust_6="58.60617"></scales>
<clustering>
<clus scale="   32.710">  2  4  1 -1</clus>
<clus scale="   58.606">  2  6  1 -1</clus>
<clus scale="  111.169">  1  3  2 -1</clus>
<clus scale="  111.169">  1  3  2 -1</clus>
</clustering>
</event>
<event>
 6    0  0.2036847E+002  0.1619834E+03  0.7546771E-02  0.1186476E+00
         21   -1    0    0  504  501  0.00000000000E+00  0.00000000000E+00  0.58697076157E+03  0.58697076157E+03  0.00000000000E+00 0.  1.
         21   -1    0    0  503  502 -0.00000000000E+00 -0.00000000000E+00 -0.42331716585E+02  0.42331716585E+02  0.00000000000E+00 0.  1.
         21    1    1    2  503  506  0.33196615329E+02  0.90819290008E+02  0.21754247265E+03  0.23806487795E+03  0.00000000000E+00 0.  1.
         21    1    1    2  504  505 -0.36733801573E+02 -0.51858308002E+02  0.16057579540E+03  0.17269407157E+03  0.00000000000E+00 0.  1.
         21    1    1    2  505  502 -0.50735717636E+02 -0.64076148220E+02  0.95581088193E+02  0.12576012975E+03  0.00000000000E+00 0.  1.
         21    1    1    2  506  501  0.54272903880E+02  0.25115166214E+02  0.70939688740E+02  0.92783398882E+02  0.00000000000E+00 0.  1.
<scales pt_clust_3="56.41929" pt_clust_4="42.89951" pt_clust_5="153.16188" pt_clust_6="56.41929"></scales>
<clustering>
<clus scale="   42.900">  4  5 -1 -1</clus>
<clus scale="   56.419">  3  6 -1 -1</clus>
<clus scale="  153.162">  2  4  1 -1</clus>
<clus scale="  161.983">  1  3  2 -1</clus>
</clustering>
</event>
<event>
 6    0  0.2036847E+002  0.1597462E+03  0.7546771E-02  0.1188984E+00
         21   -1    0    0  503  501  0.00000000000E+00  0.00000000000E+00  0.12115854328E+03  0.12115854328E+03  0.00000000000E+00 0.  1.
         21   -1    0    0  504  502 -0.00000000000E+00 -0.00000000000E+00 -0.27523148239E+03  0.27523148239E+03  0.00000000000E+00 0.  1.
         21    1    1    2  503  506  0.40354420987E+02 -0.16930752580E+02 -0.82889369222E+02  0.93732476796E+02  0.00000000000E+00 0.  1.
         21    1    1    2  504  505 -0.77585861538E+01  0.35841910330E+02  0.22821403746E+02  0.43193224748E+02  0.00000000000E+00 0.  1.
         21    1    1    2  505  501 -0.85910068348E+02  0.77078266733E+02 -0.77481581082E+00  0.11542183236E+03  0.00000000000E+00 0.  1.
         21    1    1    2  506  502  0.53314233514E+02 -0.95989424482E+02 -0.93230157821E+02  0.14404249177E+03  0.00000000000E+00 0.  1.
<scales pt_clust_3="39.89816" pt_clust_4="31.62561" pt_clust_5="157.07541" pt_clust_6="39.89816"></scales>
<clustering>
<clus scale="   31.626">  4  5 -1 -1</clus>
<clus scale="   39.898">  3  6 -1 -1</clus>
<clus scale="  157.075">  1  4  2 -1</clus>
<clus scale="  157.075">  1  3  2 -1</clus>
</clustering>
</event>
<event>
 6    0  0.2036847E+002  0.1088704E+03  0.7546771E-02  0.1262676E+00
         21   -1    0    0  504  501  0.00000000000E+00  0.00000000000E+00  0.11774015026E+04  0.11774015026E+04  0.00000000000E+00 0.  1.
         21   -1    0    0  506  502 -0.00000000000E+00 -0.00000000000E+00 -0.11121649127E+03  0.11121649127E+03  0.00000000000E+00 0.  1.
         21    1    1    2  503  501  0.39754954521E+02  0.61466297184E+02  0.17992595402E+03  0.19424703609E+03  0.00000000000E+00 0.  1.
         21    1    1    2  504  502 -0.98454358526E+02 -0.90912853943E+02  0.92678833313E+03  0.93642673080E+03  0.00000000000E+00 0.  1.
         21    1    1    2  505  503  0.44378718800E+02  0.57080293121E+02  0.31963492778E+02  0.79052485196E+02  0.00000000000E+00 0.  1.
         21    1    1    2  506  505  0.14320685205E+02 -0.27633736362E+02 -0.72492768647E+02  0.78891741749E+02  0.00000000000E+00 0.  1.
<scales pt_clust_3="14000.00000" pt_clust_4="108.87037" pt_clust_5="66.36823" pt_clust_6="31.12403"></scales>
<clustering>
<clus scale="   31.124">  2  6  1 -1</clus>
<clus scale="   66.368">  2  5  1 -1</clus>
<clus scale="  108.870">  1  4  2 -1</clus>
<clus scale="  108.870">  1  3  2 -1</clus>
</clustering>
</event>
<event>
 6    0  0.2036847E+002  0.1647826E+03  0.7546771E-02  0.1183401E+00
         21   -1    0    0  506  501  0.00000000000E+00  0.00000000000E+00  0.10987800378E+04  0.10987800378E+04  0.00000000000E+00 0. -1.
         21   -1    0    0  503  502 -0.00000000000E+00 -0.00000000000E+00 -0.63747750966E+02  0.63747750966E+02  0.00000000000E+00 0. -1.
         21    1    1    2  503  505 -0.65680882728E+02 -0.20597990763E+02  0.61890914104E+02  0.92567493366E+02  0.00000000000E+00 0.  1.
         21    1    1    2  504  501 -0.85544073970E+02  0.18012397186E+03  0.40989886380E+03  0.45582838040E+03  0.00000000000E+00 0. -1.
         21    1    1    2  505  504  0.13505030292E+03 -0.82638052740E+02  0.29736679764E+03  0.33688966208E+03  0.00000000000E+00 0. -1.
         21    1    1    2  506  502  0.16174653776E+02 -0.76887928354E+02  0.26587571128E+03  0.27724225291E+03  0.00000000000E+00 0.  1.
<scales pt_clust_3="68.83499" pt_clust_4="164.78256" pt_clust_5="14000.00000" pt_clust_6="79.75649"></scales>
<clustering>
<clus scale="   68.835">  2  3  1 -1</clus>
<clus scale="   79.756">  1  6  2 -1</clus>
<clus scale="  164.783">  1  4  2 -1</clus>
<clus scale="   79.756">  1  3  2 -1</clus>
</clustering>
</event>
<event>
 6    0  0.2036847E+002  0.1570585E+03  0.7546771E-02  0.1192058E+00
         21   -1    0    0  505  501  0.00000000000E+00  0.00000000000E+00  0.32398603827E+03  0.32398603827E+03  0.00000000000E+00 0.  1.
         21   -1    0    0  504  502 -0.00000000000E+00 -0.00000000000E+00 -0.16373719947E+03  0.16373719947E+03  0.00000000000E+00 0.  1.
         21    1    1    2  503  506 -0.78264113358E+02  0.19033842232E+02  0.12819241586E+03  0.15139634763E+03  0.00000000000E+00 0.  1.
         21    1    1    2  504  501 -0.38130761217E+02 -0.45928024968E+02  0.19169455586E+02  0.62696143868E+02  0.00000000000E+00 0.  1.
         21    1    1    2  505  503 -0.44134032513E+02  0.56802227672E+02  0.70261256116E+02  0.10055321977E+03  0.00000000000E+00 0.  1.
         21    1    1    2  506  502  0.16052890709E+03 -0.29908044936E+02 -0.57374288763E+02  0.17307752648E+03  0.00000000000E+00 0.  1.
<scales pt_clust_3="54.79760" pt_clust_4="59.69371" pt_clust_5="54.79760" pt_clust_6="145.96259"></scales>
<clustering>
<clus scale="   54.798">  3  5 -1 -1</clus>
<clus scale="   59.694">  2  4  1 -1</clus>
<clus scale="  145.963">  2  6  1 -1</clus>
<clus scale="  157.059">  1  3  2 -1</clus>
</clustering>
</event>
<event>
 6    0  0.2036847E+002  0.1872032E+03  0.7546771E-02  0.1161008E+00
         21   -1    0    0  505  501  0.00000000000E+00  0.00000000000E+00  0.33049591035E+03  0.33049591035E+03  0.00000000000E+00 0.  1.
         21   -1    0    0  504  502 -0.00000000000E+00 -0.00000000000E+00 -0.27174465589E+03  0.27174465589E+03  0.00000000000E+00 0.  1.
         21    1    1    2  503  501 -0.10866273056E+03  0.57820292015E+02  0.22152921740E+03  0.25342843041E+03  0.00000000000E+00 0.  1.
         21    1    1    2  504  503 -0.47639590633E+02  0.17315395451E+01  0.47486999594E+02  0.67287026649E+02  0.00000000000E+00 0.  1.
         21    1    1    2  505  506  0.78265449691E+02  0.37700913765E+01 -0.13453561963E+03  0.15569048511E+03  0.00000000000E+00 0.  1.
         21    1    1    2  506  502  0.78036871499E+02 -0.63321922937E+02 -0.75729342897E+02  0.12583462406E+03  0.00000000000E+00 0.  1.
<scales pt_clust_3="174.61008" pt_clust_4="31.18997" pt_clust_5="74.23640" pt_clust_6="74.23640"></scales>
<clustering>
<clus scale="   31.190">  3  4 -1 -1</clus>
<clus scale="   74.236">  5  6 -1 -1</clus>
<clus scale="  174.610">  1  3  2 -1</clus>
<clus scale="  174.610">  1  3  2 -1</clus>
</clustering>
</event>
<event>
 6    0  0.2036847E+002  0.9634161E+02  0.7546771E-02  0.1288183E+00
         21   -1    0    0  506  501  0.00000000000E+00  0.00000000000E+00  0.89718410025E+02  0.89718410025E+02  0.00000000000E+00 0.  1.
         21   -1    0    0  504  502 -0.00000000000E+00 -0.00000000000E+00 -0.22761246206E+03  0.22761246206E+03  0.00000000000E+00 0. -1.
         21    1    1    2  503  501 -0.69525877004E+02 -0.97067434407E+01 -0.13007226436E+02  0.71395072526E+02  0.00000000000E+00 0. -1.
         21    1    1    2  504  503 -0.46510023762E+02 -0.35563551208E+02 -0.52461604723E+02  0.78614047440E+02  0.00000000000E+00 0. -1.
         21    1    1    2  505  502  0.52731482502E+02  0.44449329382E+02 -0.77579714813E+02  0.10380252540E+03  0.00000000000E+00 0.  1.
         21    1    1    2  506  505  0.63304418264E+02  0.82096526681E+00  0.51544939317E+01  0.63519226723E+02  0.00000000000E+00 0.  1.
<scales pt_clust_3="47.47877" pt_clust_4="47.47877" pt_clust_5="81.11022" pt_clust_6="63.30974"></scales>
<clustering>
<clus scale="   47.479">  3  4 -1 -1</clus>
<clus scale="   63.310">  1  6  2 -1</clus>
<clus scale="   81.110">  2  5  1 -1</clus>
<clus scale="   63.310">  1  3  2 -1</clus>
</clustering>
</event>
<event>
 6    0  0.2036847E+002  0.1317845E+03  0.7546771E-02  0.1224832E+00
         21   -1    0    0  505  501  0.00000000000E+00  0.00000000000E+00  0.22973818881E+03  0.22973818881E+03  0.00000000000E+00 0. -1.
         21   -1    0    0  506  502 -0.00000000000E+00 -0.00000000000E+00 -0.20217256375E+04  0.20217256375E+04  0.00000000000E+00 0. -1.
         21    1    1    2  503  504  0.59781812257E+02  0.28650547554E+02  0.97179622199E+02  0.11763757020E+03  0.00000000000E+00 0. -1.
         21    1    1    2  504  501  0.64972152015E+02 -0.19171857707E+01  0.10329129151E+03  0.12204157915E+03  0.00000000000E+00 0. -1.
         21    1    1    2  505  502  0.46377644504E+02 -0.16318668645E+02 -0.98561561039E+02  0.11014338914E+03  0.00000000000E+00 0.  1.
         21    1    1    2  506  503 -0.17113160878E+03 -0.10414693138E+02 -0.18938968014E+04  0.19016412878E+04  0.00000000000E+00 0. -1.
<scales pt_clust_3="30.98700" pt_clust_4="30.98700" pt_clust_5="49.16487" pt_clust_6="128.01511"></scales>
<clustering>
<clus scale="   30.987">  3  4 -1 -1</clus>
<clus scale="   49.165">  2  5  1 -1</clus>
<clus scale="  128.015">  2  6  1 -1</clus>
<clus scale="  131.784">  1  3  2 -1</clus>
</clustering>
</event>
<event>
 6    0  0.2036847E+002  0.2004679E+03  0.7546771E-02  0.1149345E+00
         21   -1    0    0  506  501  0.00000000000E+00  0.00000000000E+00  0.53272013572E+03  0.53272013572E+03  0.00000000000E+00 0.  1.
         21   -1    0    0  503  502 -0.00000000000E+00 -0.00000000000E+00 -0.45611200438E+03  0.45611200438E+03  0.00000000000E+00 0.  1.
         21    1    1    2  503  504 -0.78781011025E+02  0.77100118435E+02 -0.40929779016E+02  0.11758453457E+03  0.00000000000E+00 0.  1.
         21    1    1    2  504  501  0.10358937476E+02 -0.59522177477E+02  0.91513150769E+02  0.10965789511E+03  0.00000000000E+00 0. -1.
         21    1    1    2  505  502  0.20825691917E+03 -0.20021769969E+03 -0.26404883821E+03  0.39138198810E+03  0.00000000000E+00 0.  1.
         21    1    1    2  506  505 -0.13983484562E+03  0.18263975873E+03  0.29007359779E+03  0.37020772231E+03  0.00000000000E+00 0.  1.
<scales pt_clust_3="105.92815" pt_clust_4="60.41686" pt_clust_5="200.46786" pt_clust_6="14000.00000"></scales>
<clustering>
<clus scale="   60.417">  1  4  2 -1</clus>
<clus scale="  105.928">  2  3  1 -1</clus>
<clus scale="  200.468">  2  5  1 -1</clus>
<clus scale="   60.417">  1  3  2 -1</clus>
</clustering>
</event>
<event>
 6    0  0.2036847E+002  0.9574292E+02  0.7546771E-02  0.1289512E+00
         21   -1    0    0  506  501  0.00000000000E+00  0.00000000000E+00  0.32016560798E+03  0.32016560798E+03  0.00000000000E+00 0. -1.
         21   -1    0    0  504  502 -0.00000000000E+00 -0.00000000000E+00 -0.18011306640E+03  0.18011306640E+03  0.00000000000E+00 0. -1.
         21    1    1    2  503  502  0.20564243522E+02 -0.58836203795E+02 -0.67237753543E+02  0.91681527530E+02  0.00000000000E+00 0. -1.
         21    1    1    2  504  501 -0.12003327552E+03  0.68379564305E+02 -0.33684375751E+02  0.14219138236E+03  0.00000000000E+00 0. -1.
         21    1    1    2  505  503  0.58186920226E+02 -0.14181086716E+02  0.19704159350E+03  0.20594225034E+03  0.00000000000E+00 0. -1.
         21    1    1    2  506  505  0.41282111773E+02  0.46377262050E+01  0.43933077369E+02  0.60463514155E+02  0.00000000000E+00 0. -1.
<scales pt_clust_3="62.77520" pt_clust_4="95.74292" pt_clust_5="14000.00000" pt_clust_6="41.54180"></scales>
<clustering>
<clus scale="   41.542">  1  6  2 -1</clus>
<clus scale="   62.775">  2  3  1 -1</clus>
<clus scale="   95.743">  2  4  1 -1</clus>
<clus scale="   41.542">  1  3  2 -1</clus>
</clustering>
</event>
<event>
 6    0  0.2036847E+002  0.1810055E+03  0.7546771E-02  0.1166833E+00
         21   -1    0    0  504  501  0.00000000000E+00  0.00000000000E+00  0.18846640835E+03  0.18846640835E+03  0.00000000000E+00 0.  1.
         21   -1    0    0  503  502 -0.00000000000E+00 -0.00000000000E+00 -0.69762655561E+03  0.69762655561E+03  0.00000000000E+00 0.  1.
         21    1    1    2  503  506 -0.97453390771E+02 -0.14139131962E+03 -0.34070804279E+03  0.38153720534E+03  0.00000000000E+00 0.  1.
         21    1    1    2  504  502 -0.28225734034E+02  0.33895802662E+02 -0.28565246027E+03  0.28903796560E+03  0.00000000000E+00 0.  1.
         21    1    1    2  505  501  0.12203122762E+03  0.65518695564E+02  0.85269128675E+02  0.16265037439E+03  0.00000000000E+00 0.  1.
         21    1    1    2  506  505  0.36478971847E+01  0.41976821393E+02  0.31931227123E+02  0.52867418641E+02  0.00000000000E+00 0.  1.
<scales pt_clust_3="165.53407" pt_clust_4="44.10915" pt_clust_5="40.38563" pt_clust_6="40.38563"></scales>
<clustering>
<clus scale="   40.386">  5  6 -1 -1</clus>
<clus scale="   44.109">  2  4  1 -1</clus>
<clus scale="  165.534">  2  3  1 -1</clus>
<clus scale="  181.006">  1  3  2 -1</clus>
</clustering>
</event>
<event>
 6    0  0.2036847E+002  0.7162598E+02  0.7546771E-02  0.1354649E+00
         21   -1    0    0  505  501  0.00000000000E+00  0.00000000000E+00  0.12077430043E+04  0.12077430043E+04  0.00000000000E+00 0.  1.
         21   -1    0    0  506  502 -0.00000000000E+00 -0.00000000000E+00 -0.11086927349E+03  0.11086927349E+03  0.00000000000E+00 0. -1.
         21    1    1    2  503  502 -0.39382657319E+02 -0.91747495756E+02 -0.37810814290E+02  0.10676260746E+03  0.00000000000E+00 0. -1.
         21    1    1    2  504  501  0.58329312989E+02  0.14856104087E+01  0.68240524296E+03  0.68489519739E+03  0.00000000000E+00 0.  1.
         21    1    1    2  505  503  0.82625010633E+01  0.29077437427E+02  0.45869144507E+03  0.45968642364E+03  0.00000000000E+00 0.  1.
         21    1    1    2  506  504 -0.27209156733E+02  0.61184447920E+02 -0.64121429477E+01  0.67268049285E+02  0.00000000000E+00 0. -1.
<scales pt_clust_3="71.62598" pt_clust_4="14000.00000" pt_clust_5="30.22857" pt_clust_6="67.90982"></scales>
<clustering>
<clus scale="   30.229">  1  5  2 -1</clus>
<clus scale="   67.910">  2  6  1 -1</clus>
<clus scale="   71.626">  2  3  1 -1</clus>
<clus scale="   30.229">  1  3  2 -1</clus>
</clustering>
</event>
<event>
 6    0  0.2036847E+002  0.1000921E+03  0.7546771E-02  0.1280102E+00
         21   -1    0    0  506  501  0.00000000000E+00  0.00000000000E+00  0.55934260658E+03  0.55934260658E+03  0.00000000000E+00 0. -1.
         21   -1    0    0  505  502 -0.00000000000E+00 -0.00000000000E+00 -0.48574686022E+03  0.48574686022E+03  0.00000000000E+00 0.  1.
         21    1    1    2  503  504  0.55199391312E+02  0.10394533976E+03  0.12753440570E+03  0.17354143913E+03  0.00000000000E+00 0. -1.
         21    1    1    2  504  501 -0.55752172223E+02 -0.79987446222E+02  0.38096184938E+03  0.39324067305E+03  0.00000000000E+00 0. -1.
         21    1    1    2  505  503 -0.34299693162E+02 -0.21066520016E+02 -0.44097773081E+03  0.44281105033E+03  0.00000000000E+00 0.  1.
         21    1    1    2  506  502  0.34852474073E+02 -0.28913735202E+01  0.60772220990E+01  0.35496304291E+02  0.00000000000E+00 0.  1.
<scales pt_clust_3="14000.00000" pt_clust_4="100.09207" pt_clust_5="40.20459" pt_clust_6="34.97220"></scales>
<clustering>
<clus scale="   34.972">  1  6  2 -1</clus>
<clus scale="   40.205">  2  5  1 -1</clus>
<clus scale="  100.092">  1  4  2 -1</clus>
<clus scale="   34.972">  1  3  2 -1</clus>
</clustering>
</event>
<event>
 6    0  0.2036847E+002  0.1337533E+03  0.7546771E-02  0.1221991E+00
         21   -1    0    0  504  501  0.00000000000E+00  0.00000000000E+00  0.99429705520E+02  0.99429705520E+02  0.00000000000E+00 0. -1.
         21   -1    0    0  503  502 -0.00000000000E+00 -0.00000000000E+00 -0.13181044893E+04  0.13181044893E+04  0.00000000000E+00 0.  1.
         21    1    1    2  503  506 -0.80146147287E+02 -0.64530340424E+02 -0.10415453854E+04  0.10466156695E+04  0.00000000000E+00 0.  1.
         21    1    1    2  504  505  0.12366067192E+02 -0.31798385071E+02  0.36048578659E+02  0.49634231477E+02  0.00000000000E+00 0. -1.
         21    1    1    2  505  502 -0.42912237827E+02  0.51880326764E+01 -0.16415405903E+03  0.16974961247E+03  0.00000000000E+00 0. -1.
         21    1    1    2  506  501  0.11069231792E+03  0.91140692819E+02 -0.49023918047E+02  0.15153468143E+03  0.00000000000E+00 0. -1.
<scales pt_clust_3="14000.00000" pt_clust_4="34.11828" pt_clust_5="42.45511" pt_clust_6="133.75325"></scales>
<clustering>
<clus scale="   34.118">  1  4  2 -1</clus>
<clus scale="   42.455">  2  5  1 -1</clus>
<clus scale="  133.753">  1  6  2 -1</clus>
<clus scale="   34.118">  1  3  2 -1</clus>
</clustering>
</event>
<event>
 6    0  0.2036847E+002  0.9587934E+02  0.7546771E-02  0.1289208E+00
         21   -1    0    0  503  501  0.00000000000E+00  0.00000000000E+00  0.42553938326E+03  0.42553938326E+03  0.00000000000E+00 0. -1.
         21   -1    0    0  504  502 -0.00000000000E+00 -0.00000000000E+00 -0.27089018105E+03  0.27089018105E+03  0.00000000000E+00 0. -1.
         21    1    1    2  503  506 -0.82108281476E+02  0.10487358831E+02  0.28647071923E+03  0.29818991861E+03  0.00000000000E+00 0. -1.
         21    1    1    2  504  505  0.29575479370E+02  0.19479631895E+02 -0.27044366206E+01  0.35517305868E+02  0.00000000000E+00 0. -1.
         21    1    1    2  505  501  0.66815771451E+01  0.53336600986E+02  0.10062333069E+03  0.11408107273E+03  0.00000000000E+00 0.  1.
         21    1    1    2  506  502  0.45851224961E+02 -0.83303591712E+02 -0.22974041108E+03  0.24864126710E+03  0.00000000000E+00 0. -1.
<scales pt_clust_3="95.87934" pt_clust_4="35.41419" pt_clust_5="54.37305" pt_clust_6="14000.00000"></scales>
<clustering>
<clus scale="   35.414">  2  4  1 -1</clus>
<clus scale="   54.373">  1  5  2 -1</clus>
<clus scale="   95.879">  1  3  2 -1</clus>
<clus scale="   54.373">  1  3  2 -1</clus>
</clustering>
</event>
<event>
 6    0  0.2036847E+002  0.1305081E+03  0.7546771E-02  0.1226704E+00
         21   -1    0    0  503  501  0.00000000000E+00  0.00000000000E+00  0.23238325096E+03  0.23238325096E+03  0.00000000000E+00 0. -1.
         21   -1    0    0  504  502 -0.00000000000E+00 -0.00000000000E+00 -0.44448026260E+03  0.44448026260E+03  0.00000000000E+00 0.  1.
         21    1    1    2  503  506  0.71943233941E+02 -0.43573683839E+02  0.12129007063E+02  0.84980042631E+02  0.00000000000E+00 0. -1.
         21    1    1    2  504  501  0.73550559245E+02  0.54605838503E+02  0.14592314618E+03  0.17229349075E+03  0.00000000000E+00 0. -1.
         21    1    1    2  505  502 -0.19127173582E+02 -0.33646546630E+02 -0.21387488557E+03  0.21734858073E+03  0.00000000000E+00 0.  1.
         21    1    1    2  506  505 -0.12636661960E+03  0.22614391967E+02 -0.15627427932E+03  0.20224139945E+03  0.00000000000E+00 0.  1.
<scales pt_clust_3="84.50501" pt_clust_4="14000.00000" pt_clust_5="38.70322" pt_clust_6="130.50810"></scales>
<clustering>
<clus scale="   38.703">  2  5  1 -1</clus>
<clus scale="   84.505">  1  3  2 -1</clus>
<clus scale="  130.508">  2  6  1 -1</clus>
<clus scale="   84.505">  1  3  2 -1</clus>
</clustering>
</event>
<event>
 6    0  0.2036847E+002  0.8534120E+02  0.7546771E-02  0.1314543E+00
         21   -1    0    0  503  501  0.00000000000E+00  0.00000000000E+00  0.87907739322E+03  0.87907739322E+03  0.00000000000E+00 0.  1.
         21   -1    0    0  505  502 -0.00000000000E+00 -0.00000000000E+00 -0.13555743170E+03  0.13555743170E+03  0.00000000000E+00 0. -1.
         21    1    1    2  503  504  0.78218606157E+01 -0.91134727077E+02 -0.45937200817E+00  0.91470929839E+02  0.00000000000E+00 0. -1.
         21    1    1    2  504  502  0.26065193221E+02 -0.38841863876E+02 -0.71389218767E+02  0.85349313079E+02  0.00000000000E+00 0. -1.
         21    1    1    2  505  506 -0.16855699220E+01  0.51069041264E+02  0.65279200674E+02  0.82899108332E+02  0.00000000000E+00 0.  1.
         21    1    1    2  506  501 -0.32201483915E+02  0.78907549689E+02  0.75008935162E+03  0.75491547367E+03  0.00000000000E+00 0.  1.
<scales pt_clust_3="85.34120" pt_clust_4="46.77697" pt_clust_5="45.14553" pt_clust_6="14000.00000"></scales>
<clustering>
<clus scale="   46.777">  2  4  1 -1</clus>
<clus scale="   45.146">  2  5  1 -1</clus>
<clus scale="   85.341">  2  3  1 -1</clus>
<clus scale="   85.341">  1  3  2 -1</clus>
</clustering>
</event>
<event>
 6    0  0.2036847E+002  0.1781344E+03  0.7546771E-02  0.1169621E+00
         21   -1    0    0  505  501  0.00000000000E+00  0.00000000000E+00  0.27102450137E+03  0.27102450137E+03  0.00000000000E+00 0. -1.
         21   -1    0    0  503  502 -0.00000000000E+00 -0.00000000000E+00 -0.74371072124E+03  0.74371072124E+03  0.00000000000E+00 0. -1.
         21    1    1    2  503  501 -0.13454448223E+03 -0.56422723533E+00  0.21685164402E+03  0.25520025777E+03  0.00000000000E+00 0. -1.
         21    1    1    2  504  506  0.36294718690E+02  0.34165858148E+02 -0.18136743073E+03  0.18809241717E+03  0.00000000000E+00 0. -1.
         21    1    1    2  505  504 -0.31126859939E+02 -0.25238313832E+02  0.65860040328E+01  0.40610704794E+02  0.00000000000E+00 0. -1.
         21    1    1    2  506  502  0.12937662348E+03 -0.83633170812E+01 -0.51475643720E+03  0.53083184288E+03  0.00000000000E+00 0. -1.
<scales pt_clust_3="166.07517" pt_clust_4="39.94887" pt_clust_5="40.07311" pt_clust_6="39.94887"></scales>
<clustering>
<clus scale="   39.949">  4  6 -1 -1</clus>
<clus scale="   40.073">  1  5  2 -1</clus>
<clus scale="  166.075">  1  3  2 -1</clus>
<clus scale="   40.073">  1  3  2 -1</clus>
</clustering>
</event>
<event>
 6    0  0.2036847E+002  0.9666464E+02  0.7546771E-02  0.1287470E+00
         21   -1    0    0  503  501  0.00000000000E+00  0.00000000000E+00  0.12175152891E+03  0.12175152891E+03  0.00000000000E+00 0.  1.
         21   -1    0    0  506  502 -0.00000000000E+00 -0.00000000000E+00 -0.30150258661E+03  0.30150258661E+03  0.00000000000E+00 0.  1.
         21    1    1    2  503  504  0.37774321430E+02  0.58733201201E+02  0.40749043630E+02  0.80851548158E+02  0.00000000000E+00 0.  1.
         21    1    1    2  504  505 -0.63157605070E+02  0.79890255140E+02 -0.67042492268E+02  0.12192633724E+03  0.00000000000E+00 0.  1.
         21    1    1    2  505  502  0.14322414190E+02 -0.97628593615E+02 -0.14769808005E+03  0.17762656527E+03  0.00000000000E+00 0.  1.
         21    1    1    2  506  501  0.11060869450E+02 -0.40994862726E+02 -0.57595290012E+01  0.42849664844E+02  0.00000000000E+00 0.  1.
<scales pt_clust_3="56.19250" pt_clust_4="96.66464" pt_clust_5="14000.00000" pt_clust_6="42.46082"></scales>
<clustering>
<clus scale="   42.461">  1  6  2 -1</clus>
<clus scale="   56.192">  1  3  2 -1</clus>
<clus scale="   96.665">  1  4  2 -1</clus>
<clus scale="   42.461">  1  3  2 -1</clus>
</clustering>
</event>
<event>
 6    0  0.2036847E+002  0.4091998E+03  0.7546771E-02  0.1040640E+00
         21   -1    0    0  503  501  0.00000000000E+00  0.00000000000E+00  0.29398918979E+03  0.29398918979E+03  0.00000000000E+00 0.  1.
         21   -1    0    0  505  502 -0.00000000000E+00 -0.00000000000E+00 -0.11482377542E+04  0.11482377542E+04  0.00000000000E+00 0.  1.
         21    1    1    2  503  506 -0.26218412986E+03  0.20338850216E+03 -0.73237036926E+03  0.80403591868E+03  0.00000000000E+00 0.  1.
         21    1    1    2  504  501  0.13708960679E+03 -0.84555253358E+02  0.46330789443E+02  0.16759980075E+03  0.00000000000E+00 0.  1.
         21    1    1    2  505  504  0.14423703775E+03 -0.19220184175E+03  0.44839911933E+02  0.24445140363E+03  0.00000000000E+00 0.  1.
         21    1    1    2  506  502 -0.19142514676E+02  0.73368592954E+02 -0.21304889649E+03  0.22613982090E+03  0.00000000000E+00 0.  1.
<scales pt_clust_3="51.71809" pt_clust_4="61.99968" pt_clust_5="401.83840" pt_clust_6="51.71809"></scales>
<clustering>
<clus scale="   51.718">  3  6 -1 -1</clus>
<clus scale="   62.000">  4  5 -1 -1</clus>
<clus scale="  401.838">  1  4  2 -1</clus>
<clus scale="  401.838">  1  3  2 -1</clus>
</clustering>
</event>
<event>
 6    0  0.2036847E+002  0.9768928E+02  0.7546771E-02  0.1285231E+00
         21   -1    0    0  506  501  0.00000000000E+00  0.00000000000E+00  0.28093826971E+02  0.28093826971E+02  0.00000000000E+00 0. -1.
         21   -1    0    0  505  502 -0.00000000000E+00 -0.00000000000E+00 -0.16722267933E+04  0.16722267933E+04  0.00000000000E+00 0. -1.
         21    1    1    2  503  502 -0.57933778281E+02 -0.63366419196E+02 -0.83241502539E+03  0.83683116591E+03  0.00000000000E+00 0. -1.
         21    1    1    2  504  501 -0.26500106433E+02  0.16658364419E+02 -0.53289488416E+01  0.31751447870E+02  0.00000000000E+00 0. -1.
         21    1    1    2  505  504  0.13052135278E+03  0.61364744049E+02 -0.70238284085E+03  0.71703773295E+03  0.00000000000E+00 0. -1.
         21    1    1    2  506  503 -0.46087468067E+02 -0.14656689272E+02 -0.10400615120E+03  0.11470027350E+03  0.00000000000E+00 0. -1.
<scales pt_clust_3="14000.00000" pt_clust_4="31.30107" pt_clust_5="97.68928" pt_clust_6="56.28058"></scales>
<clustering>
<clus scale="   31.301">  1  4  2 -1</clus>
<clus scale="   56.281">  1  6  2 -1</clus>
<clus scale="   97.689">  1  5  2 -1</clus>
<clus scale="   31.301">  1  3  2 -1</clus>
</clustering>
</event>
<event>
 6    0  0.2036847E+002  0.9986113E+02  0.7546771E-02  0.1280588E+00
         21   -1    0    0  505  501  0.00000000000E+00  0.00000000000E+00  0.11763977451E+03  0.11763977451E+03  0.00000000000E+00 0.  1.
         21   -1    0    0  503  502 -0.00000000000E+00 -0.00000000000E+00 -0.22024509279E+03  0.22024509279E+03  0.00000000000E+00 0.  1.
         21    1    1    2  503  501  0.88049358633E+02 -0.28244152223E+02 -0.37912959548E+02  0.99939052388E+02  0.00000000000E+00 0.  1.
         21    1    1    2  504  502 -0.33709909126E+02 -0.31829392470E+02 -0.42021489929E+02  0.62572148869E+02  0.00000000000E+00 0.  1.
         21    1    1    2  505  506  0.44279666682E+02  0.43916198374E+01  0.26628328804E+02  0.51855984237E+02  0.00000000000E+00 0.  1.
         21    1    1    2  506  504 -0.98619116189E+02  0.55681924855E+02 -0.49299197609E+02  0.12351768181E+03  0.00000000000E+00 0.  1.
<scales pt_clust_3="99.86113" pt_clust_4="41.89943" pt_clust_5="44.49691" pt_clust_6="14000.00000"></scales>
<clustering>
<clus scale="   44.497">  1  5  2 -1</clus>
<clus scale="   41.899">  2  4  1 -1</clus>
<clus scale="   99.861">  2  3  1 -1</clus>
<clus scale="   44.497">  1  3  2 -1</clus>
</clustering>
</event>
<event>
 6    0  0.2036847E+002  0.1224287E+03  0.7546771E-02  0.1239143E+00
         21   -1    0    0  506  501  0.00000000000E+00  0.00000000000E+00  0.14335393149E+04  0.14335393149E+04  0.00000000000E+00 0. -1.
         21   -1    0    0  504  502 -0.00000000000E+00 -0.00000000000E+00 -0.13757812703E+03  0.13757812703E+03  0.00000000000E+00 0. -1.
         21    1    1    2  503  501 -0.41417871693E+02  0.11382117247E+03  0.12440695371E+04  0.12499518841E+04  0.00000000000E+00 0. -1.
         21    1    1    2  504  505  0.55389691588E+02  0.47823964355E+01  0.59434446015E+01  0.55912554794E+02  0.00000000000E+00 0. -1.
         21    1    1    2  505  503 -0.25346259905E+02 -0.15810703431E+03  0.10632399628E+03  0.19221097621E+03  0.00000000000E+00 0. -1.
         21    1    1    2  506  502  0.11374440011E+02  0.39503465405E+02 -0.60375790075E+02  0.73042026887E+02  0.00000000000E+00 0. -1.
<scales pt_clust_3="122.42867" pt_clust_4="62.27644" pt_clust_5="14000.00000" pt_clust_6="41.10841"></scales>
<clustering>
<clus scale="   41.108">  2  6  1 -1</clus>
<clus scale="   62.276">  2  4  1 -1</clus>
<clus scale="  122.429">  1  3  2 -1</clus>
<clus scale="  122.429">  1  3  2 -1</clus>
</clustering>
</event>
<event>
 6    0  0.2036847E+002  0.1880879E+03  0.7546771E-02  0.1160197E+00
         21   -1    0    0  505  501  0.00000000000E+00  0.00000000000E+00  0.76719945535E+02  0.76719945535E+02  0.00000000000E+00 0.  1.
         21   -1    0    0  503  502 -0.00000000000E+00 -0.00000000000E+00 -0.97294172661E+03  0.97294172661E+03  0.00000000000E+00 0. -1.
         21    1    1    2  503  506  0.33694758916E+02  0.88858804541E+02 -0.58879243540E+03  0.59641240422E+03  0.00000000000E+00 0. -1.
         21    1    1    2  504  502 -0.30996948730E+02 -0.48885804704E+02 -0.43087762302E+02  0.72160848057E+02  0.00000000000E+00 0.  1.
         21    1    1    2  505  504 -0.34204903418E+02 -0.11565502994E+03 -0.18599065504E+02  0.12203272761E+03  0.00000000000E+00 0.  1.
         21    1    1    2  506  501  0.31507093232E+02  0.75682030107E+02 -0.24574251787E+03  0.25905569226E+03  0.00000000000E+00 0. -1.
<scales pt_clust_3="59.12263" pt_clust_4="35.19508" pt_clust_5="184.13549" pt_clust_6="59.12263"></scales>
<clustering>
<clus scale="   35.195">  4  5 -1 -1</clus>
<clus scale="   59.123">  3  6 -1 -1</clus>
<clus scale="  184.135">  1  4  2 -1</clus>
<clus scale="  184.135">  1  3  2 -1</clus>
</clustering>
</event>
<event>
 6    0  0.2036847E+002  0.2149375E+03  0.7546771E-02  0.1137715E+00
         21   -1    0    0  506  501  0.00000000000E+00  0.00000000000E+00  0.43533490412E+02  0.43533490412E+02  0.00000000000E+00 0. -1.
         21   -1    0    0  503  502 -0.00000000000E+00 -0.00000000000E+00 -0.35183882754E+04  0.35183882754E+04  0.00000000000E+00 0. -1.
         21    1    1    2  503  504 -0.61722016016E+02 -0.98591243013E+02 -0.17398179755E+03  0.20928331596E+03  0.00000000000E+00 0. -1.
         21    1    1    2  504  501 -0.57195815239E+02 -0.81721935836E+02 -0.96492077148E+02  0.13878240894E+03  0.00000000000E+00 0. -1.
         21    1    1    2  505  502  0.25761323902E+02  0.19116710167E+02 -0.13000714960E+04  0.13004672195E+04  0.00000000000E+00 0. -1.
         21    1    1    2  506  505  0.93156507353E+02  0.16119646868E+03 -0.19043094143E+04  0.19133888214E+04  0.00000000000E+00 0. -1.
<scales pt_clust_3="33.99388" pt_clust_4="33.99388" pt_clust_5="32.07950" pt_clust_6="211.79897"></scales>
<clustering>
<clus scale="   32.080">  2  5  1 -1</clus>
<clus scale="   33.994">  3  4 -1 -1</clus>
<clus scale="  211.799">  2  6  1 -1</clus>
<clus scale="  214.938">  1  3  2 -1</clus>
</clustering>
</event>
<event>
 6    0  0.2036847E+002  0.8858008E+02  0.7546771E-02  0.1306327E+00
         21   -1    0    0  505  501  0.00000000000E+00  0.00000000000E+00  0.29244044005E+03  0.29244044005E+03  0.00000000000E+00 0.  1.
         21   -1    0    0  506  502 -0.00000000000E+00 -0.00000000000E+00 -0.25855501427E+03  0.25855501427E+03  0.00000000000E+00 0.  1.
         21    1    1    2  503  502 -0.29697961789E+02 -0.17475562638E+02 -0.30217040234E+02  0.45830489245E+02  0.00000000000E+00 0.  1.
         21    1    1    2  504  501 -0.53180486430E+02 -0.46418133513E+01  0.20671955192E+03  0.21350101572E+03  0.00000000000E+00 0.  1.
         21    1    1    2  505  503 -0.21011785343E+02  0.66476474063E+02  0.37416887706E+02  0.79124207502E+02  0.00000000000E+00 0.  1.
         21    1    1    2  506  504  0.10389023356E+03 -0.44359098074E+02 -0.18003397362E+03  0.21253974185E+03  0.00000000000E+00 0.  1.
<scales pt_clust_3="34.45815" pt_clust_4="53.86141" pt_clust_5="88.58008" pt_clust_6="14000.00000"></scales>
<clustering>
<clus scale="   34.458">  2  3  1 -1</clus>
<clus scale="   53.861">  1  4  2 -1</clus>
<clus scale="   88.580">  1  5  2 -1</clus>
<clus scale="   53.861">  1  3  2 -1</clus>
</clustering>
</event>
<event>
 6    0  0.2036847E+002  0.1428250E+03  0.7546771E-02  0.1209578E+00
         21   -1    0    0  504  501  0.00000000000E+00  0.00000000000E+00  0.40064928530E+02  0.40064928530E+02  0.00000000000E+00 0. -1.
         21   -1    0    0  505  502 -0.00000000000E+00 -0.00000000000E+00 -0.14453200259E+04  0.14453200259E+04  0.00000000000E+00 0. -1.
         21    1    1    2  503  501  0.37587803788E+02 -0.68097529132E+01 -0.10737594857E+03  0.11396846081E+03  0.00000000000E+00 0.  1.
         21    1    1    2  504  506 -0.89168808302E+01 -0.36779081722E+02 -0.66431441453E+02  0.76454875773E+02  0.00000000000E+00 0. -1.
         21    1    1    2  505  503  0.12668446043E+03  0.63417139732E+02 -0.10304877860E+04  0.10401806397E+04  0.00000000000E+00 0. -1.
         21    1    1    2  506  502 -0.15535538339E+03 -0.19828305097E+02 -0.20095992131E+03  0.25478097810E+03  0.00000000000E+00 0. -1.
<scales pt_clust_3="38.15690" pt_clust_4="37.84457" pt_clust_5="14000.00000" pt_clust_6="142.82498"></scales>
<clustering>
<clus scale="   37.845">  1  4  2 -1</clus>
<clus scale="   38.157">  1  3  2 -1</clus>
<clus scale="  142.825">  1  6  2 -1</clus>
<clus scale="   37.845">  1  3  2 -1</clus>
</clustering>
</event>
<event>
 6    0  0.2036847E+002  0.1113412E+03  0.7546771E-02  0.1258106E+00
         21   -1    0    0  503  501  0.00000000000E+00  0.00000000000E+00  0.89919288428E+03  0.89919288428E+03  0.00000000000E+00 0. -1.
         21   -1    0    0  505  502 -0.00000000000E+00 -0.00000000000E+00 -0.66947635153E+02  0.66947635153E+02  0.00000000000E+00 0. -1.
         21    1    1    2  503  504 -0.32935630262E+02  0.59527629466E+02  0.52116606073E+03  0.52558763043E+03  0.00000000000E+00 0. -1.
         21    1    1    2  504  506  0.85937327988E+01  0.35544536609E+02  0.15552127059E+03  0.15976273637E+03  0.00000000000E+00 0. -1.
         21    1    1    2  505  501 -0.82269509445E+02  0.28050467942E+00  0.22150821633E+02  0.85199822571E+02  0.00000000000E+00 0. -1.
         21    1    1    2  506  502  0.10661140691E+03 -0.95352670754E+02  0.13340709618E+03  0.19559033006E+03  0.00000000000E+00 0. -1.
<scales pt_clust_3="34.13835" pt_clust_4="34.13835" pt_clust_5="82.26999" pt_clust_6="101.13714"></scales>
<clustering>
<clus scale="   34.138">  3  4 -1 -1</clus>
<clus scale="   82.270">  2  5  1 -1</clus>
<clus scale="  101.137">  2  6  1 -1</clus>
<clus scale="  111.341">  1  3  2 -1</clus>
</clustering>
</event>
<event>
 6    0  0.2036847E+002  0.1577709E+03  0.7546771E-02  0.1191237E+00
         21   -1    0    0  503  501  0.00000000000E+00  0.00000000000E+00  0.13320094161E+03  0.13320094161E+03  0.00000000000E+00 0. -1.
         21   -1    0    0  504  502 -0.00000000000E+00 -0.00000000000E+00 -0.48607362630E+03  0.48607362630E+03  0.00000000000E+00 0. -1.
         21    1    1    2  503  505 -0.42534535236E+02  0.18702134510E+02 -0.16385436975E+02  0.49269047767E+02  0.00000000000E+00 0. -1.
         21    1    1    2  504  506 -0.39546323220E+02 -0.95169557004E+01 -0.89374923769E+02  0.98195524973E+02  0.00000000000E+00 0. -1.
         21    1    1    2  505  502 -0.37223119809E+02  0.12486437217E+03  0.37289631115E+02  0.13552560155E+03  0.00000000000E+00 0. -1.
         21    1    1    2  506  501  0.11930397826E+03 -0.13404955098E+03 -0.28440195507E+03  0.33628439362E+03  0.00000000000E+00 0. -1.
<scales pt_clust_3="49.21658" pt_clust_4="40.67535" pt_clust_5="157.77094" pt_clust_6="14000.00000"></scales>
<clustering>
<clus scale="   40.675">  2  4  1 -1</clus>
<clus scale="   49.217">  1  3  2 -1</clus>
<clus scale="  157.771">  1  5  2 -1</clus>
<clus scale="   49.217">  1  3  2 -1</clus>
</clustering>
</event>
<event>
 6    0  0.2036847E+002  0.1954328E+03  0.7546771E-02  0.1153651E+00
         21   -1    0    0  503  501  0.00000000000E+00  0.00000000000E+00  0.85045184081E+03  0.85045184081E+03  0.00000000000E+00 0.  1.
         21   -1    0    0  501  502 -0.00000000000E+00 -0.00000000000E+00 -0.12974252376E+03  0.12974252376E+03  0.00000000000E+00 0.  1.
         21    1    1    2  503  504  0.35380352023E+02 -0.47845989113E+02  0.30676912502E+03  0.31248728622E+03  0.00000000000E+00 0.  1.
         21    1    1    2  504  506  0.44635371860E+02 -0.12592405184E+03  0.43361202747E+03  0.45372742216E+03  0.00000000000E+00 0.  1.
         21    1    1    2  505  502 -0.35576259085E+02  0.20622112108E+01 -0.12157016031E+01  0.35656708428E+02  0.00000000000E+00 0. -1.
         21    1    1    2  506  505 -0.44439464799E+02  0.17170782974E+03 -0.18456133834E+02  0.17832294777E+03  0.00000000000E+00 0.  1.
<scales pt_clust_3="32.16071" pt_clust_4="32.16071" pt_clust_5="35.63598" pt_clust_6="189.39847"></scales>
<clustering>
<clus scale="   32.161">  3  4 -1 -1</clus>
<clus scale="   35.636">  2  5  1 -1</clus>
<clus scale="  189.398">  2  6  1 -1</clus>
<clus scale="  195.433">  1  3  2 -1</clus>
</clustering>
</event>
<event>
 6    0  0.2036847E+002  0.5257838E+03  0.7546771E-02  0.1007260E+00
         21   -1    0    0  505  501  0.00000000000E+00  0.00000000000E+00  0.24356120535E+04  0.24356120535E+04  0.00000000000E+00 0. -1.
         21   -1    0    0  503  502 -0.00000000000E+00 -0.00000000000E+00 -0.15864216077E+03  0.15864216077E+03  0.00000000000E+00 0. -1.
         21    1    1    2  503  504  0.22339678258E+03 -0.11019426470E+03  0.82103285678E+03  0.85798825771E+03  0.00000000000E+00 0. -1.
         21    1    1    2  504  501  0.22369811551E+03 -0.12812366828E+03  0.10235834839E+04  0.10555470950E+04  0.00000000000E+00 0. -1.
         21    1    1    2  505  506 -0.30310974694E+02  0.66044246974E+02  0.82523632215E+02  0.10995793568E+03  0.00000000000E+00 0. -1.
         21    1    1    2  506  502 -0.41678392339E+03  0.17227368601E+03  0.34982991978E+03  0.57076092584E+03  0.00000000000E+00 0. -1.
<scales pt_clust_3="47.33499" pt_clust_4="508.92839" pt_clust_5="56.42552" pt_clust_6="56.42552"></scales>
<clustering>
<clus scale="   47.335">  3  4 -1 -1</clus>
<clus scale="   56.426">  5  6 -1 -1</clus>
<clus scale="  508.928">  1  3  2 -1</clus>
<clus scale="  508.928">  1  3  2 -1</clus>
</clustering>
</event>
<event>
 6    0  0.2036847E+002  0.3435082E+03  0.7546771E-02  0.1065312E+00
         21   -1    0    0  502  501  0.00000000000E+00  0.00000000000E+00  0.33101270350E+04  0.33101270350E+04  0.00000000000E+00 0. -1.
         21   -1    0    0  505  502 -0.00000000000E+00 -0.00000000000E+00 -0.72049928461E+02  0.72049928461E+02  0.00000000000E+00 0. -1.
         21    1    1    2  503  504  0.72744741342E+02  0.86534196177E+02  0.58159636775E+03  0.59248147607E+03  0.00000000000E+00 0.  1.
         21    1    1    2  504  501  0.19634639082E+03  0.10594038410E+03  0.18373938639E+04  0.18508893758E+04  0.00000000000E+00 0. -1.
         21    1    1    2  505  506  0.59365023620E+02 -0.96830572820E+02  0.25394562718E+03  0.27818833086E+03  0.00000000000E+00 0. -1.
         21    1    1    2  506  503 -0.32845615578E+03 -0.95644007460E+02  0.56514124774E+03  0.66061778081E+03  0.00000000000E+00 0. -1.
<scales pt_clust_3="67.87063" pt_clust_4="67.87063" pt_clust_5="113.57978" pt_clust_6="330.01056"></scales>
<clustering>
<clus scale="   67.871">  3  4 -1 -1</clus>
<clus scale="  113.580">  2  5  1 -1</clus>
<clus scale="  330.011">  2  6  1 -1</clus>
<clus scale="  343.508">  1  3  2 -1</clus>
</clustering>
</event>
<event>
 6    0  0.2036847E+002  0.1188872E+03  0.7546771E-02  0.1244944E+00
         21   -1    0    0  505  501  0.00000000000E+00  0.00000000000E+00  0.22553799138E+02  0.22553799138E+02  0.00000000000E+00 0.  1.
         21   -1    0    0  506  502 -0.00000000000E+00 -0.00000000000E+00 -0.84045246338E+03  0.84045246338E+03  0.00000000000E+00 0.  1.
         21    1    1    2  503  502  0.41873428894E+01 -0.51216437555E+02 -0.24046182393E+03  0.24589132983E+03  0.00000000000E+00 0. -1.
         21    1    1    2  504  503  0.31390106310E+02 -0.67828475579E+02 -0.20472674129E+03  0.21794283533E+03  0.00000000000E+00 0.  1.
         21    1    1    2  505  504 -0.54965196224E+02  0.91667339772E+02 -0.24849546554E+03  0.27050706159E+03  0.00000000000E+00 0.  1.
         21    1    1    2  506  501  0.19387747025E+02  0.27377573362E+02 -0.12421463348E+03  0.12866503576E+03  0.00000000000E+00 0.  1.
<scales pt_clust_3="32.24060" pt_clust_4="32.24060" pt_clust_5="112.34914" pt_clust_6="33.54722"></scales>
<clustering>
<clus scale="   32.241">  3  4 -1 -1</clus>
<clus scale="   33.547">  2  6  1 -1</clus>
<clus scale="  112.349">  1  5  2 -1</clus>
<clus scale="  112.349">  1  3  2 -1</clus>
</clustering>
</event>
<event>
 6    0  0.2036847E+002  0.1299049E+03  0.7546771E-02  0.1227597E+00
         21   -1    0    0  506  501  0.00000000000E+00  0.00000000000E+00  0.94620911638E+03  0.94620911638E+03  0.00000000000E+00 0. -1.
         21   -1    0    0  505  502 -0.00000000000E+00 -0.00000000000E+00 -0.20556565401E+03  0.20556565401E+03  0.00000000000E+00 0. -1.
         21    1    1    2  503  502 -0.73948055330E+02 -0.86754679261E+02 -0.14854990633E+03  0.18724786763E+03  0.00000000000E+00 0. -1.
         21    1    1    2  504  501 -0.12499314958E+02 -0.61337070900E+02  0.27646861873E+02  0.68431119473E+02  0.00000000000E+00 0. -1.
         21    1    1    2  505  504  0.23514548288E+02  0.33825359357E+02  0.22442648058E+02  0.46912273114E+02  0.00000000000E+00 0.  1.
         21    1    1    2  506  503  0.62932822000E+02  0.11426639080E+03  0.83910385877E+03  0.84918351017E+03  0.00000000000E+00 0. -1.
<scales pt_clust_3="129.90485" pt_clust_4="58.63162" pt_clust_5="41.19574" pt_clust_6="14000.00000"></scales>
<clustering>
<clus scale="   41.196">  2  5  1 -1</clus>
<clus scale="   58.632">  2  4  1 -1</clus>
<clus scale="  129.905">  2  3  1 -1</clus>
<clus scale="  129.905">  1  3  2 -1</clus>
</clustering>
</event>
<event>
 6    0  0.2036847E+002  0.1400649E+03  0.7546771E-02  0.1213242E+00
         21   -1    0    0  503  501  0.00000000000E+00  0.00000000000E+00  0.29058867287E+03  0.29058867287E+03  0.00000000000E+00 0. -1.
         21   -1    0    0  506  502 -0.00000000000E+00 -0.00000000000E+00 -0.11781824433E+03  0.11781824433E+03  0.00000000000E+00 0. -1.
         21    1    1    2  503  504 -0.66381564145E+01 -0.30155623212E+02  0.72019479484E+01  0.31706383996E+02  0.00000000000E+00 0. -1.
         21    1    1    2  504  502  0.41807157821E+02 -0.92009106351E+02 -0.55271413301E+02  0.11518872872E+03  0.00000000000E+00 0. -1.
         21    1    1    2  505  501 -0.37375479001E+02  0.70703186947E+02  0.17561085539E+03  0.19296382979E+03  0.00000000000E+00 0. -1.
         21    1    1    2  506  505  0.22064775945E+01  0.51461542616E+02  0.45229038497E+02  0.68547974697E+02  0.00000000000E+00 0. -1.
<scales pt_clust_3="30.80762" pt_clust_4="138.80742" pt_clust_5="47.18685" pt_clust_6="47.18685"></scales>
<clustering>
<clus scale="   30.808">  3  4 -1 -1</clus>
<clus scale="   47.187">  5  6 -1 -1</clus>
<clus scale="  138.807">  2  3  1 -1</clus>
<clus scale="  140.065">  1  3  2 -1</clus>
</clustering>
</event>
<event>
 6    0  0.2036847E+002  0.1285309E+03  0.7546771E-02  0.1229652E+00
         21   -1    0    0  505  501  0.00000000000E+00  0.00000000000E+00  0.19096945428E+04  0.19096945428E+04  0.00000000000E+00 0. -1.
         21   -1    0    0  506  502 -0.00000000000E+00 -0.00000000000E+00 -0.61843866281E+02  0.61843866281E+02  0.00000000000E+00 0. -1.
         21    1    1    2  503  504  0.73376899748E+01 -0.38213546816E+02  0.21648826635E+02  0.44528513888E+02  0.00000000000E+00 0.  1.
         21    1    1    2  504  502 -0.47970474533E+02 -0.78416941609E+02  0.17136319727E+01  0.91941936529E+02  0.00000000000E+00 0. -1.
         21    1    1    2  505  503  0.38830540916E+02  0.77955314833E+02  0.37180273303E+03  0.38186661848E+03  0.00000000000E+00 0. -1.
         21    1    1    2  506  501  0.18022436414E+01  0.38675173593E+02  0.14526854849E+04  0.14532013402E+04  0.00000000000E+00 0. -1.
<scales pt_clust_3="34.57847" pt_clust_4="34.57847" pt_clust_5="117.02781" pt_clust_6="38.71714"></scales>
<clustering>
<clus scale="   34.578">  3  4 -1 -1</clus>
<clus scale="   38.717">  1  6  2 -1</clus>
<clus scale="  117.028">  1  5  2 -1</clus>
<clus scale="   38.717">  1  3  2 -1</clus>
</clustering>
</event>
<event>
 6    0  0.2036847E+002  0.1198526E+03  0.7546771E-02  0.1243340E+00
         21   -1    0    0  503  501  0.00000000000E+00  0.00000000000E+00  0.99833386254E+02  0.99833386254E+02  0.00000000000E+00 0. -1.
         21   -1    0    0  505  502 -0.00000000000E+00 -0.00000000000E+00 -0.40495589647E+03  0.40495589647E+03  0.00000000000E+00 0.  1.
         21    1    1    2  503  502 -0.32679337272E+02  0.15434779228E+02 -0.89584339575E+02  0.96599820866E+02  0.00000000000E+00 0.  1.
         21    1    1    2  504  506 -0.11853268923E+01  0.38576976621E+02 -0.99744513783E+01  0.39863238772E+02  0.00000000000E+00 0. -1.
         21    1    1    2  505  504  0.49252868568E+02 -0.12048664467E+03 -0.25348147590E+03  0.28494865368E+03  0.00000000000E+00 0.  1.
         21    1    1    2  506  501 -0.15388204404E+02  0.66474888826E+02  0.47917756639E+02  0.83377569409E+02  0.00000000000E+00 0. -1.
<scales pt_clust_3="36.14099" pt_clust_4="37.44796" pt_clust_5="109.20907" pt_clust_6="37.44796"></scales>
<clustering>
<clus scale="   36.141">  2  3  1 -1</clus>
<clus scale="   37.448">  4  6 -1 -1</clus>
<clus scale="  109.209">  2  5  1 -1</clus>
<clus scale="  119.853">  1  3  2 -1</clus>
</clustering>
</event>
<event>
 6    0  0.2036847E+002  0.2367730E+03  0.7546771E-02  0.1121961E+00
         21   -1    0    0  504  501  0.00000000000E+00  0.00000000000E+00  0.10536293869E+03  0.10536293869E+03  0.00000000000E+00 0. -1.
         21   -1    0    0  506  502 -0.00000000000E+00 -0.00000000000E+00 -0.28410493100E+04  0.28410493100E+04  0.00000000000E+00 0.  1.
         21    1    1    2  503  501 -0.11729412061E+02 -0.35182667308E+02 -0.13604335908E+02  0.39502875107E+02  0.00000000000E+00 0.  1.
         21    1    1    2  504  505 -0.23239599897E+03 -0.31470185588E+02 -0.84605751651E+02  0.24931186520E+03  0.00000000000E+00 0. -1.
         21    1    1    2  505  502  0.17769281188E+03 -0.42995284579E+02 -0.11315189807E+04  0.11461930612E+04  0.00000000000E+00 0.  1.
         21    1    1    2  506  503  0.66432599150E+02  0.10964813747E+03 -0.15059573030E+04  0.15114044472E+04  0.00000000000E+00 0.  1.
<scales pt_clust_3="37.08637" pt_clust_4="14000.00000" pt_clust_5="236.77298" pt_clust_6="127.13726"></scales>
<clustering>
<clus scale="   37.086">  1  3  2 -1</clus>
<clus scale="  127.137">  2  6  1 -1</clus>
<clus scale="  236.773">  2  5  1 -1</clus>
<clus scale="   37.086">  1  3  2 -1</clus>
</clustering>
</event>
<event>
 6    0  0.2036847E+002  0.1436136E+03  0.7546771E-02  0.1208548E+00
         21   -1    0    0  506  501  0.00000000000E+00  0.00000000000E+00  0.10812574231E+03  0.10812574231E+03  0.00000000000E+00 0.  1.
         21   -1    0    0  504  502 -0.00000000000E+00 -0.00000000000E+00 -0.90759567899E+03  0.90759567899E+03  0.00000000000E+00 0. -1.
         21    1    1    2  503  501 -0.61425691251E+02 -0.18900044912E+01 -0.21585911372E+03  0.22443672747E+03  0.00000000000E+00 0. -1.
         21    1    1    2  504  503 -0.75837076796E+02 -0.14418376782E+02 -0.61955734642E+03  0.62434802579E+03  0.00000000000E+00 0. -1.
         21    1    1    2  505  502  0.64762330205E+02  0.50050129634E+02  0.28306004369E+02  0.86604877307E+02  0.00000000000E+00 0.  1.
         21    1    1    2  506  505  0.72500437842E+02 -0.33741748361E+02  0.76405190933E+01  0.80331790729E+02  0.00000000000E+00 0.  1.
<scales pt_clust_3="52.08622" pt_clust_4="52.08622" pt_clust_5="131.21359" pt_clust_6="79.96761"></scales>
<clustering>
<clus scale="   52.086">  3  4 -1 -1</clus>
<clus scale="   79.968">  1  6  2 -1</clus>
<clus scale="  131.214">  1  5  2 -1</clus>
<clus scale="   79.968">  1  3  2 -1</clus>
</clustering>
</event>
<event>
 6    0  0.2036847E+002  0.9971451E+02  0.7546771E-02  0.1280897E+00
         21   -1    0    0  503  501  0.00000000000E+00  0.00000000000E+00  0.31749158102E+03  0.31749158102E+03  0.00000000000E+00 0.  1.
         21   -1    0    0  506  502 -0.00000000000E+00 -0.00000000000E+00 -0.36277350033E+03  0.36277350033E+03  0.00000000000E+00 0.  1.
         21    1    1    2  503  502 -0.53125855794E+02 -0.11687156020E+03 -0.16289586762E+03  0.20740390986E+03  0.00000000000E+00 0.  1.
         21    1    1    2  504  505  0.23547013793E+02  0.35158261103E+02  0.76365028715E+02  0.87305113212E+02  0.00000000000E+00 0.  1.
         21    1    1    2  505  501  0.26293166895E+02  0.40668703920E+02  0.20811987183E+03  0.21368002984E+03  0.00000000000E+00 0.  1.
         21    1    1    2  506  504  0.32856751055E+01  0.41044595177E+02 -0.16687095223E+03  0.17187602844E+03  0.00000000000E+00 0. -1.
<scales pt_clust_3="92.28412" pt_clust_4="35.30646" pt_clust_5="35.30646" pt_clust_6="41.17590"></scales>
<clustering>
<clus scale="   35.306">  4  5 -1 -1</clus>
<clus scale="   41.176">  2  6  1 -1</clus>
<clus scale="   92.284">  2  3  1 -1</clus>
<clus scale="   99.715">  1  3  2 -1</clus>
</clustering>
</event>
<event>
 6    0  0.2036847E+002  0.1523535E+03  0.7546771E-02  0.1197611E+00
         21   -1    0    0  504  501  0.00000000000E+00  0.00000000000E+00  0.46890299486E+03  0.46890299486E+03  0.00000000000E+00 0. -1.
         21   -1    0    0  501  502 -0.00000000000E+00 -0.00000000000E+00 -0.14439815904E+04  0.14439815904E+04  0.00000000000E+00 0. -1.
         21    1    1    2  503  505 -0.59504928473E+02 -0.87066715221E+02 -0.36985730060E+02  0.11175595572E+03  0.00000000000E+00 0.  1.
         21    1    1    2  504  503  0.43734279431E+02  0.15717201863E+03  0.41462847245E+03  0.44556986074E+03  0.00000000000E+00 0. -1.
         21    1    1    2  505  506 -0.11012875878E+02 -0.39841952152E+02 -0.43831528819E+03  0.44026010090E+03  0.00000000000E+00 0. -1.
         21    1    1    2  506  502  0.26783524920E+02 -0.30263351257E+02 -0.91440604972E+03  0.91529866787E+03  0.00000000000E+00 0. -1.
<scales pt_clust_3="152.35348" pt_clust_4="14000.00000" pt_clust_5="65.92911" pt_clust_6="40.41321"></scales>
<clustering>
<clus scale="   40.413">  2  6  1 -1</clus>
<clus scale="   65.929">  2  5  1 -1</clus>
<clus scale="  152.353">  2  3  1 -1</clus>
<clus scale="  152.353">  1  3  2 -1</clus>
</clustering>
</event>
<event>
 6    0  0.2036847E+002  0.1212516E+03  0.7546771E-02  0.1241047E+00
         21   -1    0    0  502  501  0.00000000000E+00  0.00000000000E+00  0.21416463221E+04  0.21416463221E+04  0.00000000000E+00 0. -1.
         21   -1    0    0  505  502 -0.00000000000E+00 -0.00000000000E+00 -0.32137380903E+03  0.32137380903E+03  0.00000000000E+00 0.  1.
         21    1    1    2  503  504  0.11432134834E+02 -0.51093614874E+02 -0.75494838137E+02  0.91873400792E+02  0.00000000000E+00 0.  1.
         21    1    1    2  504  506 -0.63721285647E+02  0.14298147610E+03  0.30349159674E+03  0.34148390013E+03  0.00000000000E+00 0. -1.
         21    1    1    2  505  503  0.22144977780E+02 -0.52162308608E+02 -0.21467274844E+03  0.22202633943E+03  0.00000000000E+00 0.  1.
         21    1    1    2  506  501  0.30144173032E+02 -0.39725552618E+02  0.18069485029E+04  0.18076364907E+04  0.00000000000E+00 0. -1.
<scales pt_clust_3="48.50629" pt_clust_4="110.25122" pt_clust_5="48.50629" pt_clust_6="49.86773"></scales>
<clustering>
<clus scale="   48.506">  3  5 -1 -1</clus>
<clus scale="   49.868">  1  6  2 -1</clus>
<clus scale="  110.251">  1  4  2 -1</clus>
<clus scale="   49.868">  1  3  2 -1</clus>
</clustering>
</event>
<event>
 6    0  0.2036847E+002  0.1159957E+03  0.7546771E-02  0.1249853E+00
         21   -1    0    0  505  501  0.00000000000E+00  0.00000000000E+00  0.21561377471E+02  0.21561377471E+02  0.00000000000E+00 0.  1.
         21   -1    0    0  506  502 -0.00000000000E+00 -0.00000000000E+00 -0.30471331623E+04  0.30471331623E+04  0.00000000000E+00 0. -1.
         21    1    1    2  503  502 -0.17419914922E+02  0.28093251586E+02 -0.32905674099E+03  0.33071290118E+03  0.00000000000E+00 0.  1.
         21    1    1    2  504  501  0.38880516864E+02  0.75939778053E+02 -0.13863388500E+03  0.16278175129E+03  0.00000000000E+00 0.  1.
         21    1    1    2  505  503 -0.29758370743E+02  0.43756587334E+02 -0.10243222105E+03  0.11529336267E+03  0.00000000000E+00 0.  1.
         21    1    1    2  506  504  0.82977688009E+01 -0.14778961697E+03 -0.24554489378E+04  0.24599065246E+04  0.00000000000E+00 0. -1.
<scales pt_clust_3="33.05577" pt_clust_4="115.99574" pt_clust_5="54.24010" pt_clust_6="14000.00000"></scales>
<clustering>
<clus scale="   33.056">  2  3  1 -1</clus>
<clus scale="   54.240">  1  5  2 -1</clus>
<clus scale="  115.996">  1  4  2 -1</clus>
<clus scale="   54.240">  1  3  2 -1</clus>
</clustering>
</event>
<event>
 6    0  0.2036847E+002  0.1404406E+03  0.7546771E-02  0.1212737E+00
         21   -1    0    0  503  501  0.00000000000E+00  0.00000000000E+00  0.13303226842E+04  0.13303226842E+04  0.00000000000E+00 0.  1.
         21   -1    0    0  501  502 -0.00000000000E+00 -0.00000000000E+00 -0.48758738578E+02  0.48758738578E+02  0.00000000000E+00 0. -1.
         21    1    1    2  503  504 -0.59633403302E+02 -0.51602914113E+02  0.73712120420E+03  0.74132764229E+03  0.00000000000E+00 0.  1.
         21    1    1    2  504  505 -0.18746372271E+02 -0.60999978046E+02  0.39930313347E+03  0.40437039480E+03  0.00000000000E+00 0. -1.
         21    1    1    2  505  506  0.95885019555E+02  0.63371492354E+02  0.13962036234E+03  0.18084172250E+03  0.00000000000E+00 0. -1.
         21    1    1    2  506  502 -0.17505243982E+02  0.49231399805E+02  0.55192455641E+01  0.52541663137E+02  0.00000000000E+00 0. -1.
<scales pt_clust_3="43.52372" pt_clust_4="43.52372" pt_clust_5="131.84322" pt_clust_6="52.25097"></scales>
<clustering>
<clus scale="   43.524">  3  4 -1 -1</clus>
<clus scale="   52.251">  2  6  1 -1</clus>
<clus scale="  131.843">  2  5  1 -1</clus>
<clus scale="  140.441">  1  3  2 -1</clus>
</clustering>
</event>
<event>
 6    0  0.2036847E+002  0.9335804E+02  0.7546771E-02  0.1294918E+00
         21   -1    0    0  504  501  0.00000000000E+00  0.00000000000E+00  0.30802565778E+03  0.30802565778E+03  0.00000000000E+00 0. -1.
         21   -1    0    0  501  502 -0.00000000000E+00 -0.00000000000E+00 -0.90286012675E+02  0.90286012675E+02  0.00000000000E+00 0. -1.
         21    1    1    2  503  502  0.37279367686E+02 -0.90889269769E+01 -0.18499416651E+02  0.42597984285E+02  0.00000000000E+00 0. -1.
         21    1    1    2  504  506 -0.39066109668E+02  0.16000645084E+02  0.13814121033E+03  0.14444782988E+03  0.00000000000E+00 0. -1.
         21    1    1    2  505  503  0.14123160977E+02 -0.93742324447E+02  0.27584333418E+02  0.98731871849E+02  0.00000000000E+00 0. -1.
         21    1    1    2  506  505 -0.12336418995E+02  0.86830606339E+02  0.70513518011E+02  0.11253398444E+03  0.00000000000E+00 0. -1.
<scales pt_clust_3="38.37134" pt_clust_4="40.21417" pt_clust_5="14000.00000" pt_clust_6="93.35804"></scales>
<clustering>
<clus scale="   38.371">  2  3  1 -1</clus>
<clus scale="   40.214">  1  4  2 -1</clus>
<clus scale="   93.358">  1  6  2 -1</clus>
<clus scale="   40.214">  1  3  2 -1</clus>
</clustering>
</event>
<event>
 6    0  0.2036847E+002  0.1083513E+03  0.7546771E-02  0.1263654E+00
         21   -1    0    0  503  501  0.00000000000E+00  0.00000000000E+00  0.12968270141E+03  0.12968270141E+03  0.00000000000E+00 0.  1.
         21   -1    0    0  505  502 -0.00000000000E+00 -0.00000000000E+00 -0.11316888834E+04  0.11316888834E+04  0.00000000000E+00 0.  1.
         21    1    1    2  503  504  0.19218262938E+02 -0.66147439536E+02  0.92627712894E+02  0.11543274485E+03  0.00000000000E+00 0.  1.
         21    1    1    2  504  506  0.36484907210E+02  0.35381077840E+02 -0.36000930200E+03  0.36357896894E+03  0.00000000000E+00 0.  1.
         21    1    1    2  505  501 -0.76352714897E+02 -0.24754882923E+02 -0.48704142499E+02  0.93886286524E+02  0.00000000000E+00 0.  1.
         21    1    1    2  506  502  0.20649544749E+02  0.55521244619E+02 -0.68592045042E+03  0.68847358454E+03  0.00000000000E+00 0.  1.
<scales pt_clust_3="68.88269" pt_clust_4="33.62661" pt_clust_5="102.08842" pt_clust_6="33.62661"></scales>
<clustering>
<clus scale="   33.627">  4  6 -1 -1</clus>
<clus scale="   68.883">  1  3  2 -1</clus>
<clus scale="  102.088">  1  5  2 -1</clus>
<clus scale="   68.883">  1  3  2 -1</clus>
</clustering>
</event>
<event>
 6    0  0.2036847E+002  0.2914993E+03  0.7546771E-02  0.1089569E+00
         21   -1    0    0  505  501  0.00000000000E+00  0.00000000000E+00  0.10754944754E+04  0.10754944754E+04  0.00000000000E+00 0. -1.
         21   -1    0    0  506  502 -0.00000000000E+00 -0.00000000000E+00 -0.20683913109E+03  0.20683913109E+03  0.00000000000E+00 0.  1.
         21    1    1    2  503  504 -0.38814011049E+02 -0.41670996814E+02  0.28910462704E+03  0.29465994775E+03  0.00000000000E+00 0.  1.
         21    1    1    2  504  501 -0.21019603632E+03 -0.11458478086E+03  0.61534682208E+03  0.66027551608E+03  0.00000000000E+00 0. -1.
         21    1    1    2  505  502  0.18905258091E+03  0.11432146478E+03  0.37205548028E+02  0.22404135435E+03  0.00000000000E+00 0.  1.
         21    1    1    2  506  503  0.59957466465E+02  0.41934312898E+02 -0.73001652808E+02  0.10335678834E+03  0.00000000000E+00 0.  1.
<scales pt_clust_3="42.09000" pt_clust_4="42.09000" pt_clust_5="278.43199" pt_clust_6="73.16683"></scales>
<clustering>
<clus scale="   42.090">  3  4 -1 -1</clus>
<clus scale="   73.167">  2  6  1 -1</clus>
<clus scale="  278.432">  2  5  1 -1</clus>
<clus scale="  291.499">  1  3  2 -1</clus>
</clustering>
</event>
<event>
 6    0  0.2036847E+002  0.1148254E+03  0.7546771E-02  0.1251886E+00
         21   -1    0    0  505  501  0.00000000000E+00  0.00000000000E+00  0.16828477559E+03  0.16828477559E+03  0.00000000000E+00 0.  1.
         21   -1    0    0  504  502 -0.00000000000E+00 -0.00000000000E+00 -0.22481444744E+03  0.22481444744E+03  0.00000000000E+00 0.  1.
         21    1    1    2  503  502 -0.53517319672E+02  0.57596943341E+02  0.91240585542E+02  0.12044233407E+03  0.00000000000E+00 0.  1.
         21    1    1    2  504  506 -0.30788273287E+02 -0.12350011974E+02 -0.55429992955E+02  0.64598178664E+02  0.00000000000E+00 0.  1.
         21    1    1    2  505  503  0.39257955623E+01  0.34455155975E+02  0.26718666976E+02  0.43777354980E+02  0.00000000000E+00 0.  1.
         21    1    1    2  506  501  0.80379797397E+02 -0.79702087342E+02 -0.11905893141E+03  0.16428135531E+03  0.00000000000E+00 0.  1.
<scales pt_clust_3="30.58476" pt_clust_4="33.17289" pt_clust_5="30.58476" pt_clust_6="105.18583"></scales>
<clustering>
<clus scale="   30.585">  3  5 -1 -1</clus>
<clus scale="   33.173">  2  4  1 -1</clus>
<clus scale="  105.186">  2  6  1 -1</clus>
<clus scale="  114.825">  1  3  2 -1</clus>
</clustering>
</event>
<event>
 6    0  0.2036847E+002  0.9850333E+02  0.7546771E-02  0.1283475E+00
         21   -1    0    0  506  501  0.00000000000E+00  0.00000000000E+00  0.22830475218E+03  0.22830475218E+03  0.00000000000E+00 0.  1.
         21   -1    0    0  503  502 -0.00000000000E+00 -0.00000000000E+00 -0.39387805247E+03  0.39387805247E+03  0.00000000000E+00 0.  1.
         21    1    1    2  503  501 -0.10912257121E+03 -0.41754564295E+02  0.15068949819E+03  0.19067906034E+03  0.00000000000E+00 0.  1.
         21    1    1    2  504  502  0.23569501639E+02 -0.19602620707E+02 -0.68717738835E+02  0.75245676133E+02  0.00000000000E+00 0.  1.
         21    1    1    2  505  504  0.75011553107E+02  0.30541104356E+02 -0.29093884815E+03  0.30200149920E+03  0.00000000000E+00 0.  1.
         21    1    1    2  506  505  0.10541516465E+02  0.30816080646E+02  0.43393788516E+02  0.54256568980E+02  0.00000000000E+00 0.  1.
<scales pt_clust_3="98.50333" pt_clust_4="30.65590" pt_clust_5="14000.00000" pt_clust_6="32.38860"></scales>
<clustering>
<clus scale="   30.656">  2  4  1 -1</clus>
<clus scale="   32.389">  1  6  2 -1</clus>
<clus scale="   98.503">  1  3  2 -1</clus>
<clus scale="   32.389">  1  3  2 -1</clus>
</clustering>
</event>
<event>
 6    0  0.2036847E+002  0.1175439E+03  0.7546771E-02  0.1247205E+00
         21   -1    0    0  504  501  0.00000000000E+00  0.00000000000E+00  0.47174880192E+03  0.47174880192E+03  0.00000000000E+00 0.  1.
         21   -1    0    0  503  502 -0.00000000000E+00 -0.00000000000E+00 -0.46715863571E+03  0.46715863571E+03  0.00000000000E+00 0.  1.
         21    1    1    2  503  506  0.12558096528E+02 -0.65923368022E+02 -0.86074090998E+02  0.10914369144E+03  0.00000000000E+00 0.  1.
         21    1    1    2  504  502 -0.53162209855E+02 -0.48465952644E+02 -0.35181764878E+03  0.35909723908E+03  0.00000000000E+00 0.  1.
         21    1    1    2  505  501 -0.18620229318E+02  0.24728053136E+02  0.23480624392E+03  0.23683783848E+03  0.00000000000E+00 0.  1.
         21    1    1    2  506  505  0.59224342645E+02  0.89661267530E+02  0.20767566207E+03  0.23382866863E+03  0.00000000000E+00 0.  1.
<scales pt_clust_3="65.75424" pt_clust_4="117.54392" pt_clust_5="30.95464" pt_clust_6="14000.00000"></scales>
<clustering>
<clus scale="   30.955">  1  5  2 -1</clus>
<clus scale="   65.754">  2  3  1 -1</clus>
<clus scale="  117.544">  2  4  1 -1</clus>
<clus scale="   30.955">  1  3  2 -1</clus>
</clustering>
</event>
<event>
 6    0  0.2036847E+002  0.1738295E+03  0.7546771E-02  0.1173912E+00
         21   -1    0    0  506  501  0.00000000000E+00  0.00000000000E+00  0.10538298809E+04  0.10538298809E+04  0.00000000000E+00 0. -1.
         21   -1    0    0  504  502 -0.00000000000E+00 -0.00000000000E+00 -0.39221410186E+02  0.39221410186E+02  0.00000000000E+00 0.  1.
         21    1    1    2  503  502  0.31669177255E+02  0.43978370655E+02  0.19281555358E+03  0.20028697306E+03  0.00000000000E+00 0. -1.
         21    1    1    2  504  505 -0.27591296314E+02 -0.73897423738E+02  0.53242781805E+02  0.95167760727E+02  0.00000000000E+00 0.  1.
         21    1    1    2  505  501 -0.31504348649E+02 -0.75359815347E+02  0.16265592619E+03  0.18201257120E+03  0.00000000000E+00 0. -1.
         21    1    1    2  506  503  0.27426467709E+02  0.10527886843E+03  0.60589420914E+03  0.61558398609E+03  0.00000000000E+00 0. -1.
<scales pt_clust_3="31.07188" pt_clust_4="65.53054" pt_clust_5="65.53054" pt_clust_6="166.45761"></scales>
<clustering>
<clus scale="   31.072">  3  6 -1 -1</clus>
<clus scale="   65.531">  4  5 -1 -1</clus>
<clus scale="  166.458">  1  3  2 -1</clus>
<clus scale="  166.458">  1  3  2 -1</clus>
</clustering>
</event>
<event>
 6    0  0.2036847E+002  0.1055429E+03  0.7546771E-02  0.1269054E+00
         21   -1    0    0  503  501  0.00000000000E+00  0.00000000000E+00  0.75393264641E+02  0.75393264641E+02  0.00000000000E+00 0.  1.
         21   -1    0    0  505  502 -0.00000000000E+00 -0.00000000000E+00 -0.50868646847E+03  0.50868646847E+03  0.00000000000E+00 0.  1.
         21    1    1    2  503  506 -0.49812298617E+02  0.13934103575E+02  0.16830275056E+02  0.54393772570E+02  0.00000000000E+00 0.  1.
         21    1    1    2  504  501 -0.68710234177E+02  0.74494642673E+02 -0.11541718771E+03  0.15359581793E+03  0.00000000000E+00 0.  1.
         21    1    1    2  505  504  0.65516578299E+02 -0.85746095810E+02 -0.27903203273E+03  0.29917167357E+03  0.00000000000E+00 0.  1.
         21    1    1    2  506  502  0.53005954495E+02 -0.26826504384E+01 -0.55674258449E+02  0.76918469038E+02  0.00000000000E+00 0.  1.
<scales pt_clust_3="51.72450" pt_clust_4="14000.00000" pt_clust_5="105.54288" pt_clust_6="39.71899"></scales>
<clustering>
<clus scale="   51.725">  1  3  2 -1</clus>
<clus scale="   39.719">  1  6  2 -1</clus>
<clus scale="  105.543">  2  5  1 -1</clus>
<clus scale="   51.725">  1  3  2 -1</clus>
</clustering>
</event>
<event>
 6    0  0.2036847E+002  0.2388361E+03  0.7546771E-02  0.1120571E+00
         21   -1    0    0  505  501  0.00000000000E+00  0.00000000000E+00  0.17912598714E+04  0.17912598714E+04  0.00000000000E+00 0. -1.
         21   -1    0    0  504  502 -0.00000000000E+00 -0.00000000000E+00 -0.21594115201E+03  0.21594115201E+03  0.00000000000E+00 0. -1.
         21    1    1    2  503  502  0.62046536912E+02 -0.12402891157E+02 -0.45746378196E+02  0.78079034125E+02  0.00000000000E+00 0. -1.
         21    1    1    2  504  501 -0.20082213071E+03 -0.10244950641E+03  0.16355162316E+04  0.16509811548E+04  0.00000000000E+00 0. -1.
         21    1    1    2  505  506 -0.14226639575E+02  0.30027078729E+02  0.74725864730E+02  0.81780056189E+02  0.00000000000E+00 0. -1.
         21    1    1    2  506  503  0.15300223337E+03  0.84825318843E+02 -0.89176998798E+02  0.19636077828E+03  0.00000000000E+00 0. -1.
<scales pt_clust_3="45.01725" pt_clust_4="226.76144" pt_clust_5="33.22684" pt_clust_6="45.01725"></scales>
<clustering>
<clus scale="   33.227">  1  5  2 -1</clus>
<clus scale="   45.017">  3  6 -1 -1</clus>
<clus scale="  226.761">  1  4  2 -1</clus>
<clus scale="   33.227">  1  3  2 -1</clus>
</clustering>
</event>
<event>
 6    0  0.2036847E+002  0.1070456E+03  0.7546771E-02  0.1266141E+00
         21   -1    0    0  504  501  0.00000000000E+00  0.00000000000E+00  0.25819581716E+03  0.25819581716E+03  0.00000000000E+00 0.  1.
         21   -1    0    0  506  502 -0.00000000000E+00 -0.00000000000E+00 -0.51615978150E+03  0.51615978150E+03  0.00000000000E+00 0. -1.
         21    1    1    2  503  502 -0.37203690864E+02  0.55409730560E+02 -0.39563682686E+03  0.40122668359E+03  0.00000000000E+00 0. -1.
         21    1    1    2  504  503  0.99460411077E+02 -0.64474505719E+02  0.20003151738E+03  0.23251224313E+03  0.00000000000E+00 0.  1.
         21    1    1    2  505  501 -0.49280929522E+02 -0.35779399059E+02  0.22094163023E+01  0.60939781194E+02  0.00000000000E+00 0. -1.
         21    1    1    2  506  505 -0.12975790691E+02  0.44844174218E+02 -0.64568071160E+02  0.79676890744E+02  0.00000000000E+00 0.  1.
<scales pt_clust_3="107.04559" pt_clust_4="14000.00000" pt_clust_5="59.92217" pt_clust_6="46.68373"></scales>
<clustering>
<clus scale="   46.684">  2  6  1 -1</clus>
<clus scale="   59.922">  1  5  2 -1</clus>
<clus scale="  107.046">  2  3  1 -1</clus>
<clus scale="   59.922">  1  3  2 -1</clus>
</clustering>
</event>
<event>
 6    0  0.2036847E+002  0.8762853E+02  0.7546771E-02  0.1308698E+00
         21   -1    0    0  505  501  0.00000000000E+00  0.00000000000E+00  0.17064058870E+04  0.17064058870E+04  0.00000000000E+00 0. -1.
         21   -1    0    0  506  502 -0.00000000000E+00 -0.00000000000E+00 -0.53915123310E+02  0.53915123310E+02  0.00000000000E+00 0.  1.
         21    1    1    2  503  502  0.54493422825E+02 -0.28583009543E+02 -0.20464213958E+02  0.64848327802E+02  0.00000000000E+00 0.  1.
         21    1    1    2  504  501 -0.11184404435E+03  0.30834574192E+02  0.14889675953E+04  0.14934806196E+04  0.00000000000E+00 0. -1.
         21    1    1    2  505  503  0.22808350573E+02 -0.27844345686E+02  0.11686919178E+03  0.12228628880E+03  0.00000000000E+00 0. -1.
         21    1    1    2  506  504  0.34542270953E+02  0.25592781037E+02  0.67118190617E+02  0.79705774166E+02  0.00000000000E+00 0. -1.
<scales pt_clust_3="14000.00000" pt_clust_4="87.62853" pt_clust_5="35.99345" pt_clust_6="43.10329"></scales>
<clustering>
<clus scale="   35.993">  1  5  2 -1</clus>
<clus scale="   43.103">  2  6  1 -1</clus>
<clus scale="   87.629">  1  4  2 -1</clus>
<clus scale="   35.993">  1  3  2 -1</clus>
</clustering>
</event>
<event>
 6    0  0.2036847E+002  0.1644260E+03  0.7546771E-02  0.1183788E+00
         21   -1    0    0  503  501  0.00000000000E+00  0.00000000000E+00  0.76420077669E+03  0.76420077669E+03  0.00000000000E+00 0.  1.
         21   -1    0    0  506  502 -0.00000000000E+00 -0.00000000000E+00 -0.94881694892E+02  0.94881694892E+02  0.00000000000E+00 0. -1.
         21    1    1    2  503  505 -0.98163586127E+02 -0.64265014844E+02  0.56519222716E+03  0.57724200766E+03  0.00000000000E+00 0.  1.
         21    1    1    2  504  502  0.53271884502E+02  0.69091465546E+02  0.31229548941E+02  0.92665036647E+02  0.00000000000E+00 0. -1.
         21    1    1    2  505  504  0.50538183500E+02  0.59849613959E+02 -0.15145935822E+02  0.79783981190E+02  0.00000000000E+00 0. -1.
         21    1    1    2  506  501 -0.56464818746E+01 -0.64676064661E+02  0.88043241520E+02  0.10939144608E+03  0.00000000000E+00 0.  1.
<scales pt_clust_3="157.98188" pt_clust_4="43.19078" pt_clust_5="43.19078" pt_clust_6="64.92208"></scales>
<clustering>
<clus scale="   43.191">  4  5 -1 -1</clus>
<clus scale="   64.922">  1  6  2 -1</clus>
<clus scale="  157.982">  1  3  2 -1</clus>
<clus scale="   64.922">  1  3  2 -1</clus>
</clustering>
</event>
<event>
 6    0  0.2036847E+002  0.1757564E+03  0.7546771E-02  0.1171974E+00
         21   -1    0    0  505  501  0.00000000000E+00  0.00000000000E+00  0.53572535484E+03  0.53572535484E+03  0.00000000000E+00 0.  1.
         21   -1    0    0  503  502 -0.00000000000E+00 -0.00000000000E+00 -0.24456838883E+03  0.24456838883E+03  0.00000000000E+00 0. -1.
         21    1    1    2  503  506  0.59431985228E+02 -0.28199340749E+02  0.31880724519E+01  0.65859908084E+02  0.00000000000E+00 0.  1.
         21    1    1    2  504  501  0.25581268754E+02 -0.34243122406E+02  0.37011384761E+03  0.37257382213E+03  0.00000000000E+00 0.  1.
         21    1    1    2  505  502 -0.14099253452E+03  0.95898283516E+02 -0.16441967504E+03  0.23687381685E+03  0.00000000000E+00 0. -1.
         21    1    1    2  506  504  0.55979280535E+02 -0.33455820361E+02  0.82274720982E+02  0.10498619661E+03  0.00000000000E+00 0.  1.
<scales pt_clust_3="63.14306" pt_clust_4="42.74334" pt_clust_5="161.63831" pt_clust_6="63.14306"></scales>
<clustering>
<clus scale="   42.743">  1  4  2 -1</clus>
<clus scale="   63.143">  3  6 -1 -1</clus>
<clus scale="  161.638">  2  5  1 -1</clus>
<clus scale="   42.743">  1  3  2 -1</clus>
</clustering>
</event>
<event>
 6    0  0.2036847E+002  0.1401336E+03  0.7546771E-02  0.1213149E+00
         21   -1    0    0  503  501  0.00000000000E+00  0.00000000000E+00  0.76760601825E+03  0.76760601825E+03  0.00000000000E+00 0.  1.
         21   -1    0    0  501  502 -0.00000000000E+00 -0.00000000000E+00 -0.14218886398E+03  0.14218886398E+03  0.00000000000E+00 0.  1.
         21    1    1    2  503  504  0.22317759490E+02 -0.89619007795E+02  0.52037417057E+03  0.52850631627E+03  0.00000000000E+00 0.  1.
         21    1    1    2  504  505  0.38675895852E+02 -0.28191353699E+02  0.19930037638E+03  0.20496638107E+03  0.00000000000E+00 0.  1.
         21    1    1    2  505  506 -0.30647286471E+02  0.10147039566E+03 -0.94274672454E+02  0.14185630487E+03  0.00000000000E+00 0.  1.
         21    1    1    2  506  502 -0.30346368871E+02  0.16339965832E+02  0.17279770226E-01  0.34465880021E+02  0.00000000000E+00 0.  1.
<scales pt_clust_3="35.49588" pt_clust_4="35.49588" pt_clust_5="131.09615" pt_clust_6="34.46588"></scales>
<clustering>
<clus scale="   34.466">  2  6  1 -1</clus>
<clus scale="   35.496">  3  4 -1 -1</clus>
<clus scale="  131.096">  2  5  1 -1</clus>
<clus scale="  140.134">  1  3  2 -1</clus>
</clustering>
</event>
<event>
 6    0  0.2036847E+002  0.7338370E+02  0.7546771E-02  0.1348951E+00
         21   -1    0    0  504  501  0.00000000000E+00  0.00000000000E+00  0.75856179261E+03  0.75856179261E+03  0.00000000000E+00 0. -1.
         21   -1    0    0  506  502 -0.00000000000E+00 -0.00000000000E+00 -0.22086151955E+04  0.22086151955E+04  0.00000000000E+00 0. -1.
         21    1    1    2  503  501  0.58940248159E+02  0.38473051434E+02  0.21461239880E+03  0.22585971366E+03  0.00000000000E+00 0. -1.
         21    1    1    2  504  505  0.97134742003E+01 -0.65140119761E+02  0.53368935304E+03  0.53773777283E+03  0.00000000000E+00 0. -1.
         21    1    1    2  505  502 -0.75453490602E+02  0.57953270595E+02 -0.20287025919E+04  0.20309323025E+04  0.00000000000E+00 0. -1.
         21    1    1    2  506  503  0.67997682432E+01 -0.31286202268E+02 -0.16965256283E+03  0.17264719915E+03  0.00000000000E+00 0. -1.
<scales pt_clust_3="14000.00000" pt_clust_4="65.89210" pt_clust_5="73.38370" pt_clust_6="32.01661"></scales>
<clustering>
<clus scale="   32.017">  2  6  1 -1</clus>
<clus scale="   65.892">  1  4  2 -1</clus>
<clus scale="   73.384">  2  5  1 -1</clus>
<clus scale="   65.892">  1  3  2 -1</clus>
</clustering>
</event>
<event>
 6    0  0.2036847E+002  0.1272285E+03  0.7546771E-02  0.1231627E+00
         21   -1    0    0  504  501  0.00000000000E+00  0.00000000000E+00  0.27520802416E+03  0.27520802416E+03  0.00000000000E+00 0. -1.
         21   -1    0    0  506  502 -0.00000000000E+00 -0.00000000000E+00 -0.22776945347E+03  0.22776945347E+03  0.00000000000E+00 0. -1.
         21    1    1    2  503  501 -0.37187251221E+02 -0.18469509755E+02  0.22067154821E+02  0.47020992820E+02  0.00000000000E+00 0.  1.
         21    1    1    2  504  502  0.78141459008E+02 -0.60296115838E+02 -0.14890801965E+02  0.99817058584E+02  0.00000000000E+00 0.  1.
         21    1    1    2  505  503  0.28104457623E+02 -0.10272207730E+03  0.10684764914E+03  0.15085789946E+03  0.00000000000E+00 0. -1.
         21    1    1    2  506  505 -0.69058665410E+02  0.18148770289E+03 -0.66585431314E+02  0.20528152677E+03  0.00000000000E+00 0. -1.
<scales pt_clust_3="41.52125" pt_clust_4="95.72322" pt_clust_5="127.22853" pt_clust_6="14000.00000"></scales>
<clustering>
<clus scale="   41.521">  1  3  2 -1</clus>
<clus scale="   95.723">  2  4  1 -1</clus>
<clus scale="  127.229">  1  5  2 -1</clus>
<clus scale="   41.521">  1  3  2 -1</clus>
</clustering>
</event>
<event>
 6    0  0.2036847E+002  0.9592620E+02  0.7546771E-02  0.1289104E+00
         21   -1    0    0  506  501  0.00000000000E+00  0.00000000000E+00  0.23640194651E+03  0.23640194651E+03  0.00000000000E+00 0.  1.
         21   -1    0    0  503  502 -0.00000000000E+00 -0.00000000000E+00 -0.24951185857E+03  0.24951185857E+03  0.00000000000E+00 0.  1.
         21    1    1    2  503  504 -0.32124400854E+02 -0.73721313497E+02 -0.17858989080E+03  0.19586004771E+03  0.00000000000E+00 0.  1.
         21    1    1    2  504  505  0.69106368882E+02  0.75347007383E+02  0.13326165210E+03  0.16796288180E+03  0.00000000000E+00 0.  1.
         21    1    1    2  505  501 -0.53647604928E+02  0.23563703263E+02  0.57951413969E+02  0.82411649704E+02  0.00000000000E+00 0.  1.
         21    1    1    2  506  502  0.16665636901E+02 -0.25189397148E+02 -0.25733087337E+02  0.39679225873E+02  0.00000000000E+00 0.  1.
<scales pt_clust_3="95.92620" pt_clust_4="14000.00000" pt_clust_5="57.16976" pt_clust_6="30.20346"></scales>
<clustering>
<clus scale="   30.203">  2  6  1 -1</clus>
<clus scale="   57.170">  1  5  2 -1</clus>
<clus scale="   95.926">  2  3  1 -1</clus>
<clus scale="   57.170">  1  3  2 -1</clus>
</clustering>
</event>
<event>
 6    0  0.2036847E+002  0.1121303E+03  0.7546771E-02  0.1256675E+00
         21   -1    0    0  505  501  0.00000000000E+00  0.00000000000E+00  0.14478959212E+04  0.14478959212E+04  0.00000000000E+00 0.  1.
         21   -1    0    0  503  502 -0.00000000000E+00 -0.00000000000E+00 -0.17439409149E+03  0.17439409149E+03  0.00000000000E+00 0.  1.
         21    1    1    2  503  504 -0.13396053304E+03 -0.47559459667E+02 -0.10895759406E+03  0.17910634807E+03  0.00000000000E+00 0.  1.
         21    1    1    2  504  501  0.73117742819E+02  0.43819693250E+02  0.57194912864E+02  0.10265294876E+03  0.00000000000E+00 0. -1.
         21    1    1    2  505  506  0.60766239427E+02 -0.33290941733E+02  0.12807687694E+04  0.12826415958E+04  0.00000000000E+00 0.  1.
         21    1    1    2  506  502  0.76550793641E-01  0.37030708150E+02  0.44495741508E+02  0.57889120035E+02  0.00000000000E+00 0.  1.
<scales pt_clust_3="112.13029" pt_clust_4="14000.00000" pt_clust_5="69.18923" pt_clust_6="37.03079"></scales>
<clustering>
<clus scale="   37.031">  2  6  1 -1</clus>
<clus scale="   69.189">  1  5  2 -1</clus>
<clus scale="  112.130">  2  3  1 -1</clus>
<clus scale="   69.189">  1  3  2 -1</clus>
</clustering>
</event>
<event>
 6    0  0.2036847E+002  0.1159488E+03  0.7546771E-02  0.1249934E+00
         21   -1    0    0  504  501  0.00000000000E+00  0.00000000000E+00  0.50516340456E+03  0.50516340456E+03  0.00000000000E+00 0.  1.
         21   -1    0    0  505  502 -0.00000000000E+00 -0.00000000000E+00 -0.38577300236E+03  0.38577300236E+03  0.00000000000E+00 0. -1.
         21    1    1    2  503  506 -0.57759412470E+02  0.45414977433E+02 -0.28457738686E+03  0.29390978040E+03  0.00000000000E+00 0. -1.
         21    1    1    2  504  503  0.41094827444E+02  0.20323622249E+02  0.28902078217E+03  0.29263432299E+03  0.00000000000E+00 0. -1.
         21    1    1    2  505  501  0.79484396485E+02 -0.43714298660E+02  0.18605284640E+03  0.20698881817E+03  0.00000000000E+00 0.  1.
         21    1    1    2  506  502 -0.62819811459E+02 -0.22024301022E+02 -0.71105839514E+02  0.97403485360E+02  0.00000000000E+00 0.  1.
<scales pt_clust_3="115.94878" pt_clust_4="45.84577" pt_clust_5="14000.00000" pt_clust_6="63.77811"></scales>
<clustering>
<clus scale="   45.846">  1  4  2 -1</clus>
<clus scale="   63.778">  2  6  1 -1</clus>
<clus scale="  115.949">  2  3  1 -1</clus>
<clus scale="   45.846">  1  3  2 -1</clus>
</clustering>
</event>
<event>
 6    0  0.2036847E+002  0.7287638E+02  0.7546771E-02  0.1350576E+00
         21   -1    0    0  504  501  0.00000000000E+00  0.00000000000E+00  0.10925907721E+03  0.10925907721E+03  0.00000000000E+00 0. -1.
         21   -1    0    0  505  502 -0.00000000000E+00 -0.00000000000E+00 -0.10098151783E+04  0.10098151783E+04  0.00000000000E+00 0. -1.
         21    1    1    2  503  501  0.44154128867E+02 -0.16789358736E+02  0.79129016095E+02  0.92156773223E+02  0.00000000000E+00 0. -1.
         21    1    1    2  504  502 -0.11838628744E+02  0.70191945142E+02 -0.28035992983E+03  0.28925551429E+03  0.00000000000E+00 0. -1.
         21    1    1    2  505  506 -0.72211861246E+02 -0.83660021755E+02 -0.67118802862E+03  0.68022564043E+03  0.00000000000E+00 0. -1.
         21    1    1    2  506  503  0.39896361124E+02  0.30257435350E+02 -0.28137158785E+02  0.57436327610E+02  0.00000000000E+00 0.  1.
<scales pt_clust_3="47.23843" pt_clust_4="67.12240" pt_clust_5="14000.00000" pt_clust_6="72.87638"></scales>
<clustering>
<clus scale="   47.238">  1  3  2 -1</clus>
<clus scale="   67.122">  2  4  1 -1</clus>
<clus scale="   72.876">  1  6  2 -1</clus>
<clus scale="   47.238">  1  3  2 -1</clus>
</clustering>
</event>
<event>
 6    0  0.2036847E+002  0.1551391E+03  0.7546771E-02  0.1194297E+00
         21   -1    0    0  506  501  0.00000000000E+00  0.00000000000E+00  0.10763441766E+03  0.10763441766E+03  0.00000000000E+00 0.  1.
         21   -1    0    0  504  502 -0.00000000000E+00 -0.00000000000E+00 -0.94958146721E+03  0.94958146721E+03  0.00000000000E+00 0.  1.
         21    1    1    2  503  502  0.71811028750E+02 -0.42642005917E+02 -0.13969612988E+03  0.16275802046E+03  0.00000000000E+00 0. -1.
         21    1    1    2  504  505  0.10003439630E+03  0.57164574369E+01 -0.68480762618E+03  0.69209901257E+03  0.00000000000E+00 0.  1.
         21    1    1    2  505  501 -0.11806036036E+03  0.62357427318E+02  0.15398258044E+02  0.13440165096E+03  0.00000000000E+00 0.  1.
         21    1    1    2  506  503 -0.53785064683E+02 -0.25431878838E+02 -0.32841551534E+02  0.67957200879E+02  0.00000000000E+00 0. -1.
<scales pt_clust_3="79.51074" pt_clust_4="14000.00000" pt_clust_5="155.13912" pt_clust_6="59.49465"></scales>
<clustering>
<clus scale="   59.495">  1  6  2 -1</clus>
<clus scale="   79.511">  2  3  1 -1</clus>
<clus scale="  155.139">  1  5  2 -1</clus>
<clus scale="   59.495">  1  3  2 -1</clus>
</clustering>
</event>
<event>
 6    0  0.2036847E+002  0.7846365E+02  0.7546771E-02  0.1333469E+00
         21   -1    0    0  505  501  0.00000000000E+00  0.00000000000E+00  0.18283614279E+03  0.18283614279E+03  0.00000000000E+00 0.  1.
         21   -1    0    0  506  502 -0.00000000000E+00 -0.00000000000E+00 -0.68960578059E+03  0.68960578059E+03  0.00000000000E+00 0.  1.
         21    1    1    2  503  504  0.91387962974E+02  0.75348338013E+01 -0.37462217215E+03  0.38568161138E+03  0.00000000000E+00 0.  1.
         21    1    1    2  504  501 -0.37775116790E+02  0.49803352479E+01  0.13482772146E+03  0.14010809277E+03  0.00000000000E+00 0.  1.
         21    1    1    2  505  502 -0.24777759056E+02  0.58817530156E+02  0.49850137292E+01  0.64017884683E+02  0.00000000000E+00 0.  1.
         21    1    1    2  506  503 -0.28835087129E+02 -0.71332699205E+02 -0.27196020084E+03  0.28263433455E+03  0.00000000000E+00 0.  1.
<scales pt_clust_3="14000.00000" pt_clust_4="38.10201" pt_clust_5="78.46365" pt_clust_6="78.18311"></scales>
<clustering>
<clus scale="   38.102">  1  4  2 -1</clus>
<clus scale="   78.183">  2  6  1 -1</clus>
<clus scale="   78.464">  1  5  2 -1</clus>
<clus scale="   38.102">  1  3  2 -1</clus>
</clustering>
</event>
<event>
 6    0  0.2036847E+002  0.1413336E+03  0.7546771E-02  0.1211546E+00
         21   -1    0    0  505  501  0.00000000000E+00  0.00000000000E+00  0.11302206133E+04  0.11302206133E+04  0.00000000000E+00 0.  1.
         21   -1    0    0  503  502 -0.00000000000E+00 -0.00000000000E+00 -0.65816712802E+02  0.65816712802E+02  0.00000000000E+00 0. -1.
         21    1    1    2  503  504  0.19326504927E+02  0.24135328803E+02  0.29342439944E+02  0.42626361222E+02  0.00000000000E+00 0.  1.
         21    1    1    2  504  506  0.38720798825E+02  0.42155567438E+02  0.28181135663E+03  0.28756570180E+03  0.00000000000E+00 0.  1.
         21    1    1    2  505  502 -0.77313642343E+02 -0.13942542960E+03  0.62934278166E+02  0.17139887129E+03  0.00000000000E+00 0. -1.
         21    1    1    2  506  501  0.19266338591E+02  0.73134533360E+02  0.69031582577E+03  0.69444639180E+03  0.00000000000E+00 0.  1.
<scales pt_clust_3="30.91970" pt_clust_4="45.17739" pt_clust_5="131.57890" pt_clust_6="45.17739"></scales>
<clustering>
<clus scale="   30.920">  2  3  1 -1</clus>
<clus scale="   45.177">  4  6 -1 -1</clus>
<clus scale="  131.579">  2  5  1 -1</clus>
<clus scale="  141.334">  1  3  2 -1</clus>
</clustering>
</event>
<event>
 6    0  0.2036847E+002  0.9892362E+02  0.7546771E-02  0.1282576E+00
         21   -1    0    0  504  501  0.00000000000E+00  0.00000000000E+00  0.14463734767E+03  0.14463734767E+03  0.00000000000E+00 0.  1.
         21   -1    0    0  505  502 -0.00000000000E+00 -0.00000000000E+00 -0.18880062673E+03  0.18880062673E+03  0.00000000000E+00 0.  1.
         21    1    1    2  503  506  0.97106062086E+01 -0.38106434892E+02 -0.11974504933E+02  0.41106994801E+02  0.00000000000E+00 0.  1.
         21    1    1    2  504  502 -0.90400365761E+02  0.77284627508E+02 -0.29315173292E+02  0.12249293516E+03  0.00000000000E+00 0.  1.
         21    1    1    2  505  503  0.17668468451E+02 -0.39132888842E+02 -0.67225082846E+02  0.79766970170E+02  0.00000000000E+00 0.  1.
         21    1    1    2  506  501  0.63021291102E+02 -0.45303773707E-01  0.64351482007E+02  0.90071074275E+02  0.00000000000E+00 0.  1.
<scales pt_clust_3="38.54755" pt_clust_4="90.35192" pt_clust_5="38.54755" pt_clust_6="63.02131"></scales>
<clustering>
<clus scale="   38.548">  3  5 -1 -1</clus>
<clus scale="   63.021">  1  6  2 -1</clus>
<clus scale="   90.352">  1  4  2 -1</clus>
<clus scale="   63.021">  1  3  2 -1</clus>
</clustering>
</event>
<event>
 6    0  0.2036847E+002  0.7786645E+02  0.7546771E-02  0.1335218E+00
         21   -1    0    0  505  501  0.00000000000E+00  0.00000000000E+00  0.19850158765E+03  0.19850158765E+03  0.00000000000E+00 0. -1.
         21   -1    0    0  504  502 -0.00000000000E+00 -0.00000000000E+00 -0.43888004830E+03  0.43888004830E+03  0.00000000000E+00 0. -1.
         21    1    1    2  503  501 -0.71783290753E+02 -0.18191614737E+02  0.13662103785E+03  0.15539975438E+03  0.00000000000E+00 0. -1.
         21    1    1    2  504  503 -0.81723883337E+02  0.21623294273E+02 -0.15372916025E+03  0.17543949006E+03  0.00000000000E+00 0.  1.
         21    1    1    2  505  506  0.11548439089E+03 -0.19939939254E+01 -0.44516050082E+02  0.12378327539E+03  0.00000000000E+00 0. -1.
         21    1    1    2  506  502  0.38022783201E+02 -0.14376856104E+01 -0.17875428818E+03  0.18275911612E+03  0.00000000000E+00 0. -1.
<scales pt_clust_3="77.86645" pt_clust_4="61.09579" pt_clust_5="14000.00000" pt_clust_6="38.04995"></scales>
<clustering>
<clus scale="   38.050">  2  6  1 -1</clus>
<clus scale="   61.096">  2  4  1 -1</clus>
<clus scale="   77.866">  1  3  2 -1</clus>
<clus scale="   77.866">  1  3  2 -1</clus>
</clustering>
</event>
<event>
 6    0  0.2036847E+002  0.1223565E+03  0.7546771E-02  0.1239259E+00
         21   -1    0    0  505  501  0.00000000000E+00  0.00000000000E+00  0.15978351176E+03  0.15978351176E+03  0.00000000000E+00 0.  1.
         21   -1    0    0  506  502 -0.00000000000E+00 -0.00000000000E+00 -0.14929847529E+03  0.14929847529E+03  0.00000000000E+00 0.  1.
         21    1    1    2  503  502  0.70959107004E+02  0.14969084979E+02  0.18420740209E+02  0.74823739828E+02  0.00000000000E+00 0.  1.
         21    1    1    2  504  501 -0.10109443606E+03  0.23842872635E+02 -0.13004630440E+02  0.10467897588E+03  0.00000000000E+00 0.  1.
         21    1    1    2  505  503  0.45525429338E+02 -0.12832525742E+02  0.54183933433E+02  0.71924523464E+02  0.00000000000E+00 0.  1.
         21    1    1    2  506  504 -0.15390100282E+02 -0.25979431872E+02 -0.49115006726E+02  0.57654747877E+02  0.00000000000E+00 0. -1.
<scales pt_clust_3="43.33807" pt_clust_4="110.81836" pt_clust_5="43.33807" pt_clust_6="30.19580"></scales>
<clustering>
<clus scale="   30.196">  2  6  1 -1</clus>
<clus scale="   43.338">  3  5 -1 -1</clus>
<clus scale="  110.818">  2  4  1 -1</clus>
<clus scale="  122.356">  1  3  2 -1</clus>
</clustering>
</event>
<event>
 6    0  0.2036847E+002  0.1159006E+03  0.7546771E-02  0.1250017E+00
         21   -1    0    0  504  501  0.00000000000E+00  0.00000000000E+00  0.22856843854E+03  0.22856843854E+03  0.00000000000E+00 0.  1.
         21   -1    0    0  505  502 -0.00000000000E+00 -0.00000000000E+00 -0.27870715383E+03  0.27870715383E+03  0.00000000000E+00 0.  1.
         21    1    1    2  503  501  0.41233480557E+02  0.79328005193E+02  0.44408444690E+02  0.99826060157E+02  0.00000000000E+00 0.  1.
         21    1    1    2  504  502 -0.80817733589E+02 -0.13119091427E+03  0.10962476090E+03  0.18910354373E+03  0.00000000000E+00 0.  1.
         21    1    1    2  505  506  0.26113548076E+02  0.18643321392E+02 -0.45500616620E+02  0.55675820052E+02  0.00000000000E+00 0.  1.
         21    1    1    2  506  503  0.13470704956E+02  0.33219587685E+02 -0.15867130426E+03  0.16267016842E+03  0.00000000000E+00 0.  1.
<scales pt_clust_3="115.90056" pt_clust_4="14000.00000" pt_clust_5="32.08568" pt_clust_6="56.24629"></scales>
<clustering>
<clus scale="   32.086">  2  5  1 -1</clus>
<clus scale="   56.246">  2  6  1 -1</clus>
<clus scale="  115.901">  1  3  2 -1</clus>
<clus scale="  115.901">  1  3  2 -1</clus>
</clustering>
</event>
<event>
 6    0  0.2036847E+002  0.1591155E+03  0.7546771E-02  0.1189699E+00
         21   -1    0    0  505  501  0.00000000000E+00  0.00000000000E+00  0.10738191769E+03  0.10738191769E+03  0.00000000000E+00 0. -1.
         21   -1    0    0  504  502 -0.00000000000E+00 -0.00000000000E+00 -0.13135861854E+04  0.13135861854E+04  0.00000000000E+00 0. -1.
         21    1    1    2  503  506 -0.60680196500E+02 -0.33477773011E+01 -0.12234611597E+02  0.61991770269E+02  0.00000000000E+00 0. -1.
         21    1    1    2  504  503  0.11842719753E+03 -0.76605968276E+01 -0.11761582339E+04  0.11821302285E+04  0.00000000000E+00 0. -1.
         21    1    1    2  505  502  0.30658264331E+02 -0.73613996043E+01 -0.66982335849E+02  0.74032105817E+02  0.00000000000E+00 0. -1.
         21    1    1    2  506  501 -0.88405265357E+02  0.18369773733E+02  0.49170913708E+02  0.10281399849E+03  0.00000000000E+00 0. -1.
<scales pt_clust_3="47.27034" pt_clust_4="148.23368" pt_clust_5="31.52966" pt_clust_6="47.27034"></scales>
<clustering>
<clus scale="   31.530">  2  5  1 -1</clus>
<clus scale="   47.270">  3  6 -1 -1</clus>
<clus scale="  148.234">  2  4  1 -1</clus>
<clus scale="  159.115">  1  3  2 -1</clus>
</clustering>
</event>
<event>
 6    0  0.2036847E+002  0.1642623E+03  0.7546771E-02  0.1183967E+00
         21   -1    0    0  504  501  0.00000000000E+00  0.00000000000E+00  0.29650128052E+03  0.29650128052E+03  0.00000000000E+00 0. -1.
         21   -1    0    0  505  502 -0.00000000000E+00 -0.00000000000E+00 -0.44389788924E+03  0.44389788924E+03  0.00000000000E+00 0.  1.
         21    1    1    2  503  506  0.23455144983E+02  0.14767600234E+03 -0.22832529492E+03  0.27293000164E+03  0.00000000000E+00 0.  1.
         21    1    1    2  504  502 -0.34761513457E+02 -0.32350181036E+02  0.20018873201E+02  0.51533021599E+02  0.00000000000E+00 0.  1.
         21    1    1    2  505  503 -0.23300722880E+02  0.23213199822E+02 -0.15424183838E+03  0.15770960985E+03  0.00000000000E+00 0.  1.
         21    1    1    2  506  501  0.34607091354E+02 -0.13853902112E+03  0.21515165138E+03  0.25822653667E+03  0.00000000000E+00 0. -1.
<scales pt_clust_3="164.26232" pt_clust_4="47.58778" pt_clust_5="32.89037" pt_clust_6="14000.00000"></scales>
<clustering>
<clus scale="   32.890">  2  5  1 -1</clus>
<clus scale="   47.588">  1  4  2 -1</clus>
<clus scale="  164.262">  2  3  1 -1</clus>
<clus scale="   47.588">  1  3  2 -1</clus>
</clustering>
</event>
<event>
 6    0  0.2036847E+002  0.2074900E+03  0.7546771E-02  0.1143569E+00
         21   -1    0    0  503  501  0.00000000000E+00  0.00000000000E+00  0.48776752687E+02  0.48776752687E+02  0.00000000000E+00 0.  1.
         21   -1    0    0  505  502 -0.00000000000E+00 -0.00000000000E+00 -0.88382278085E+03  0.88382278085E+03  0.00000000000E+00 0. -1.
         21    1    1    2  503  506 -0.15801581228E+02  0.43455941846E+02 -0.43124145004E+02  0.63228164084E+02  0.00000000000E+00 0.  1.
         21    1    1    2  504  501  0.17929767530E+02 -0.41593632232E+02 -0.53067434191E+02  0.69768613126E+02  0.00000000000E+00 0.  1.
         21    1    1    2  505  504  0.37365632746E+02 -0.14747188060E+03 -0.42403019725E+03  0.45049501024E+03  0.00000000000E+00 0.  1.
         21    1    1    2  506  502 -0.39493819049E+02  0.14560957098E+03 -0.31482425172E+03  0.34910774609E+03  0.00000000000E+00 0. -1.
<scales pt_clust_3="30.77652" pt_clust_4="35.56624" pt_clust_5="35.56624" pt_clust_6="204.67987"></scales>
<clustering>
<clus scale="   30.777">  3  6 -1 -1</clus>
<clus scale="   35.566">  4  5 -1 -1</clus>
<clus scale="  204.680">  1  3  2 -1</clus>
<clus scale="  204.680">  1  3  2 -1</clus>
</clustering>
</event>
<event>
 6    0  0.2036847E+002  0.1499931E+03  0.7546771E-02  0.1200481E+00
         21   -1    0    0  502  501  0.00000000000E+00  0.00000000000E+00  0.15280737590E+03  0.15280737590E+03  0.00000000000E+00 0.  1.
         21   -1    0    0  504  502 -0.00000000000E+00 -0.00000000000E+00 -0.81438730123E+03  0.81438730123E+03  0.00000000000E+00 0. -1.
         21    1    1    2  503  506  0.54306959047E+02 -0.15516694750E+02  0.20061697854E+02  0.59937345100E+02  0.00000000000E+00 0. -1.
         21    1    1    2  504  505 -0.25255352718E+02  0.40487017031E+02 -0.18038972956E+03  0.18659444236E+03  0.00000000000E+00 0. -1.
         21    1    1    2  505  503 -0.97115770301E+02  0.19449179826E+02 -0.59119697647E+03  0.59943607534E+03  0.00000000000E+00 0. -1.
         21    1    1    2  506  501  0.68064163973E+02 -0.44419502107E+02  0.89945082847E+02  0.12122681433E+03  0.00000000000E+00 0.  1.
<scales pt_clust_3="38.67048" pt_clust_4="43.51844" pt_clust_5="43.51844" pt_clust_6="143.94082"></scales>
<clustering>
<clus scale="   38.670">  3  6 -1 -1</clus>
<clus scale="   43.518">  4  5 -1 -1</clus>
<clus scale="  143.941">  1  3  2 -1</clus>
<clus scale="  143.941">  1  3  2 -1</clus>
</clustering>
</event>
<event>
 6    0  0.2036847E+002  0.7523283E+02  0.7546771E-02  0.1343152E+00
         21   -1    0    0  505  501  0.00000000000E+00  0.00000000000E+00  0.27141223151E+03  0.27141223151E+03  0.00000000000E+00 0. -1.
         21   -1    0    0  506  502 -0.00000000000E+00 -0.00000000000E+00 -0.12509525335E+04  0.12509525335E+04  0.00000000000E+00 0. -1.
         21    1    1    2  503  504 -0.36555909150E+02  0.99247175486E+02 -0.67558373153E+03  0.68381263124E+03  0.00000000000E+00 0. -1.
         21    1    1    2  504  501  0.40386376418E+02 -0.19092011454E+02  0.22804776879E+03  0.23238190366E+03  0.00000000000E+00 0. -1.
         21    1    1    2  505  502 -0.32630303367E+02 -0.24736897077E+02  0.23469692212E+02  0.47196156913E+02  0.00000000000E+00 0.  1.
         21    1    1    2  506  503  0.28799836099E+02 -0.55418266955E+02 -0.55547403143E+03  0.55897407316E+03  0.00000000000E+00 0. -1.
<scales pt_clust_3="14000.00000" pt_clust_4="44.05534" pt_clust_5="40.94693" pt_clust_6="75.23283"></scales>
<clustering>
<clus scale="   40.947">  1  5  2 -1</clus>
<clus scale="   44.055">  1  4  2 -1</clus>
<clus scale="   75.233">  2  6  1 -1</clus>
<clus scale="   40.947">  1  3  2 -1</clus>
</clustering>
</event>
<event>
 6    0  0.2036847E+002  0.7408081E+02  0.7546771E-02  0.1346741E+00
         21   -1    0    0  505  501  0.00000000000E+00  0.00000000000E+00  0.56009709969E+02  0.56009709969E+02  0.00000000000E+00 0. -1.
         21   -1    0    0  503  502 -0.00000000000E+00 -0.00000000000E+00 -0.93141615355E+03  0.93141615355E+03  0.00000000000E+00 0. -1.
         21    1    1    2  503  501 -0.46397383094E+02 -0.19546032189E+02 -0.18800898878E+03  0.19463335890E+03  0.00000000000E+00 0.  1.
         21    1    1    2  504  506 -0.62221337036E+02  0.35569335950E+00 -0.22786783084E+02  0.66263555471E+02  0.00000000000E+00 0. -1.
         21    1    1    2  505  504 -0.53809814637E+01 -0.29732888723E+02  0.16353362480E+02  0.34357416925E+02  0.00000000000E+00 0. -1.
         21    1    1    2  506  502  0.11399970159E+03  0.48923227553E+02 -0.68096403420E+03  0.69217153223E+03  0.00000000000E+00 0. -1.
<scales pt_clust_3="52.20118" pt_clust_4="74.08081" pt_clust_5="30.21588" pt_clust_6="14000.00000"></scales>
<clustering>
<clus scale="   30.216">  1  5  2 -1</clus>
<clus scale="   52.201">  2  3  1 -1</clus>
<clus scale="   74.081">  1  4  2 -1</clus>
<clus scale="   30.216">  1  3  2 -1</clus>
</clustering>
</event>
<event>
 6    0  0.2036847E+002  0.1930570E+03  0.7546771E-02  0.1155733E+00
         21   -1    0    0  505  501  0.00000000000E+00  0.00000000000E+00  0.18494197952E+03  0.18494197952E+03  0.00000000000E+00 0.  1.
         21   -1    0    0  506  502 -0.00000000000E+00 -0.00000000000E+00 -0.70458554432E+03  0.70458554432E+03  0.00000000000E+00 0.  1.
         21    1    1    2  503  504  0.83413017239E+02  0.44260592658E+02  0.44387306515E+02  0.10434061763E+03  0.00000000000E+00 0.  1.
         21    1    1    2  504  502 -0.22860035246E+03 -0.78410936305E+01 -0.30799764687E+03  0.38364326447E+03  0.00000000000E+00 0.  1.
         21    1    1    2  505  503  0.89490292971E+02 -0.18046901968E+02  0.40062339749E+02  0.99695507787E+02  0.00000000000E+00 0.  1.
         21    1    1    2  506  501  0.55697042250E+02 -0.18372597059E+02 -0.29609556419E+03  0.30184813396E+03  0.00000000000E+00 0.  1.
<scales pt_clust_3="61.96585" pt_clust_4="182.63276" pt_clust_5="61.96585" pt_clust_6="58.64907"></scales>
<clustering>
<clus scale="   58.649">  2  6  1 -1</clus>
<clus scale="   61.966">  3  5 -1 -1</clus>
<clus scale="  182.633">  2  4  1 -1</clus>
<clus scale="  193.057">  1  3  2 -1</clus>
</clustering>
</event>
<event>
 6    0  0.2036847E+002  0.1458199E+03  0.7546771E-02  0.1205706E+00
         21   -1    0    0  503  501  0.00000000000E+00  0.00000000000E+00  0.10748111173E+04  0.10748111173E+04  0.00000000000E+00 0. -1.
         21   -1    0    0  505  502 -0.00000000000E+00 -0.00000000000E+00 -0.21131724881E+03  0.21131724881E+03  0.00000000000E+00 0. -1.
         21    1    1    2  503  504 -0.19038542315E+03 -0.53337939315E+02  0.42235898681E+03  0.46634607199E+03  0.00000000000E+00 0. -1.
         21    1    1    2  504  502  0.67975283631E+02 -0.84708500759E+02 -0.11221870304E+03  0.15617044085E+03  0.00000000000E+00 0. -1.
         21    1    1    2  505  506  0.74631609647E+02  0.20875001184E+02 -0.17043029274E+02  0.79348016231E+02  0.00000000000E+00 0. -1.
         21    1    1    2  506  501  0.47778529875E+02  0.11717143889E+03  0.57039661395E+03  0.58426383699E+03  0.00000000000E+00 0. -1.
<scales pt_clust_3="14000.00000" pt_clust_4="145.81995" pt_clust_5="77.49608" pt_clust_6="128.58403"></scales>
<clustering>
<clus scale="   77.496">  2  5  1 -1</clus>
<clus scale="  128.584">  1  6  2 -1</clus>
<clus scale="  145.820">  2  4  1 -1</clus>
<clus scale="  128.584">  1  3  2 -1</clus>
</clustering>
</event>
<event>
 6    0  0.2036847E+002  0.1121031E+03  0.7546771E-02  0.1256724E+00
         21   -1    0    0  506  501  0.00000000000E+00  0.00000000000E+00  0.17876702522E+03  0.17876702522E+03  0.00000000000E+00 0.  1.
         21   -1    0    0  503  502 -0.00000000000E+00 -0.00000000000E+00 -0.53840083290E+03  0.53840083290E+03  0.00000000000E+00 0. -1.
         21    1    1    2  503  504  0.43963764958E+02 -0.95265254568E+02  0.79212171934E+02  0.13146425195E+03  0.00000000000E+00 0.  1.
         21    1    1    2  504  501  0.62909794855E+02 -0.97136074936E+01  0.20621219264E+02  0.66912115070E+02  0.00000000000E+00 0. -1.
         21    1    1    2  505  502 -0.48066635653E+02  0.10180590615E+03 -0.44379073220E+03  0.45784829144E+03  0.00000000000E+00 0. -1.
         21    1    1    2  506  505 -0.58806924160E+02  0.31729559115E+01 -0.15676466684E+02  0.60943199670E+02  0.00000000000E+00 0.  1.
<scales pt_clust_3="112.10308" pt_clust_4="47.25649" pt_clust_5="14000.00000" pt_clust_6="58.89246"></scales>
<clustering>
<clus scale="   58.892">  1  6  2 -1</clus>
<clus scale="   47.256">  1  4  2 -1</clus>
<clus scale="  112.103">  1  3  2 -1</clus>
<clus scale="   58.892">  1  3  2 -1</clus>
</clustering>
</event>
<event>
 6    0  0.2036847E+002  0.1905083E+03  0.7546771E-02  0.1158004E+00
         21   -1    0    0  506  501  0.00000000000E+00  0.00000000000E+00  0.17933236176E+04  0.17933236176E+04  0.00000000000E+00 0.  1.
         21   -1    0    0  503  502 -0.00000000000E+00 -0.00000000000E+00 -0.76297298268E+02  0.76297298268E+02  0.00000000000E+00 0.  1.
         21    1    1    2  503  505 -0.34844285474E+02  0.95306431688E+02  0.63607506480E+03  0.64411872214E+03  0.00000000000E+00 0. -1.
         21    1    1    2  504  502 -0.55041918673E+02 -0.52331533882E+02  0.37269840451E+02  0.84600492060E+02  0.00000000000E+00 0.  1.
         21    1    1    2  505  501 -0.22281720148E+02  0.82140937396E+02  0.93916734813E+03  0.94301586224E+03  0.00000000000E+00 0.  1.
         21    1    1    2  506  504  0.11216792430E+03 -0.12511583520E+03  0.10451406593E+03  0.19788583940E+03  0.00000000000E+00 0.  1.
<scales pt_clust_3="48.94740" pt_clust_4="75.94868" pt_clust_5="48.94740" pt_clust_6="182.85743"></scales>
<clustering>
<clus scale="   48.947">  3  5 -1 -1</clus>
<clus scale="   75.949">  2  4  1 -1</clus>
<clus scale="  182.857">  2  6  1 -1</clus>
<clus scale="  190.508">  1  3  2 -1</clus>
</clustering>
</event>
<event>
 6    0  0.2036847E+002  0.2803563E+03  0.7546771E-02  0.1095495E+00
         21   -1    0    0  506  501  0.00000000000E+00  0.00000000000E+00  0.51316298147E+03  0.51316298147E+03  0.00000000000E+00 0. -1.
         21   -1    0    0  503  502 -0.00000000000E+00 -0.00000000000E+00 -0.13032921158E+04  0.13032921158E+04  0.00000000000E+00 0.  1.
         21    1    1    2  503  505 -0.29697461482E+02 -0.99455355613E+01 -0.41751826979E+03  0.41869124484E+03  0.00000000000E+00 0.  1.
         21    1    1    2  504  501  0.17017078059E+03 -0.53184389844E+01  0.30549807195E+03  0.34973626110E+03  0.00000000000E+00 0. -1.
         21    1    1    2  505  504  0.79911935498E+02  0.75276622190E+02  0.15175600934E+03  0.18730289281E+03  0.00000000000E+00 0. -1.
         21    1    1    2  506  502 -0.22038525461E+03 -0.60012647645E+02 -0.82986494584E+03  0.86072469853E+03  0.00000000000E+00 0.  1.
<scales pt_clust_3="31.31857" pt_clust_4="87.53774" pt_clust_5="87.53774" pt_clust_6="258.27386"></scales>
<clustering>
<clus scale="   31.319">  2  3  1 -1</clus>
<clus scale="   87.538">  4  5 -1 -1</clus>
<clus scale="  258.274">  2  6  1 -1</clus>
<clus scale="  280.356">  1  3  2 -1</clus>
</clustering>
</event>
<event>
 6    0  0.2036847E+002  0.2071973E+03  0.7546771E-02  0.1143805E+00
         21   -1    0    0  505  501  0.00000000000E+00  0.00000000000E+00  0.18168385336E+03  0.18168385336E+03  0.00000000000E+00 0.  1.
         21   -1    0    0  503  502 -0.00000000000E+00 -0.00000000000E+00 -0.49680978538E+03  0.49680978538E+03  0.00000000000E+00 0. -1.
         21    1    1    2  503  501 -0.18621498062E+01 -0.15824767427E+03 -0.29572587076E+03  0.33540957746E+03  0.00000000000E+00 0. -1.
         21    1    1    2  504  502  0.66927740185E+02 -0.31093956046E+02 -0.89188545519E+02  0.11576162214E+03  0.00000000000E+00 0. -1.
         21    1    1    2  505  506 -0.28420812863E+02  0.12089025105E+03  0.81871051853E+02  0.14874496473E+03  0.00000000000E+00 0.  1.
         21    1    1    2  506  504 -0.36644777516E+02  0.68451379274E+02 -0.12082567593E+02  0.78577474401E+02  0.00000000000E+00 0. -1.
<scales pt_clust_3="190.28779" pt_clust_4="73.79808" pt_clust_5="64.82468" pt_clust_6="64.82468"></scales>
<clustering>
<clus scale="   64.825">  5  6 -1 -1</clus>
<clus scale="   73.798">  2  4  1 -1</clus>
<clus scale="  190.288">  2  3  1 -1</clus>
<clus scale="  207.197">  1  3  2 -1</clus>
</clustering>
</event>
<event>
 6    0  0.2036847E+002  0.1121957E+03  0.7546771E-02  0.1256557E+00
         21   -1    0    0  505  501  0.00000000000E+00  0.00000000000E+00  0.17275503193E+03  0.17275503193E+03  0.00000000000E+00 0. -1.
         21   -1    0    0  506  502 -0.00000000000E+00 -0.00000000000E+00 -0.10334407088E+04  0.10334407088E+04  0.00000000000E+00 0. -1.
         21    1    1    2  503  504 -0.13859571172E+02 -0.34584893199E+02  0.38508124178E+02  0.53582442818E+02  0.00000000000E+00 0.  1.
         21    1    1    2  504  501 -0.72137799014E+02 -0.12798346706E+02  0.10295680415E+03  0.12636361520E+03  0.00000000000E+00 0. -1.
         21    1    1    2  505  502 -0.16107019768E+01 -0.37262570337E+02 -0.69241869179E+03  0.69342248179E+03  0.00000000000E+00 0. -1.
         21    1    1    2  506  503  0.87608072163E+02  0.84645810241E+02 -0.30973191337E+03  0.33282720090E+03  0.00000000000E+00 0. -1.
<scales pt_clust_3="37.24367" pt_clust_4="37.24367" pt_clust_5="37.29737" pt_clust_6="99.29925"></scales>
<clustering>
<clus scale="   37.244">  3  4 -1 -1</clus>
<clus scale="   37.297">  2  5  1 -1</clus>
<clus scale="   99.299">  2  6  1 -1</clus>
<clus scale="  112.196">  1  3  2 -1</clus>
</clustering>
</event>
<event>
 6    0  0.2036847E+002  0.1206079E+03  0.7546771E-02  0.1242097E+00
         21   -1    0    0  504  501  0.00000000000E+00  0.00000000000E+00  0.25157592945E+03  0.25157592945E+03  0.00000000000E+00 0.  1.
         21   -1    0    0  503  502 -0.00000000000E+00 -0.00000000000E+00 -0.71051411129E+02  0.71051411129E+02  0.00000000000E+00 0.  1.
         21    1    1    2  503  501 -0.30924042231E+02 -0.14015497007E+02  0.36300648966E+02  0.49703799248E+02  0.00000000000E+00 0. -1.
         21    1    1    2  504  505 -0.22925925139E+02  0.28783615342E+02  0.15591737701E+02  0.39964945141E+02  0.00000000000E+00 0. -1.
         21    1    1    2  505  506  0.21985018114E+02  0.85854108724E+02  0.61445824170E+02  0.10784182080E+03  0.00000000000E+00 0.  1.
         21    1    1    2  506  502  0.31864949256E+02 -0.10062222706E+03  0.67186307481E+02  0.12511677538E+03  0.00000000000E+00 0.  1.
<scales pt_clust_3="33.95189" pt_clust_4="33.90983" pt_clust_5="33.90983" pt_clust_6="108.52150"></scales>
<clustering>
<clus scale="   33.910">  4  5 -1 -1</clus>
<clus scale="   33.952">  1  3  2 -1</clus>
<clus scale="  108.521">  2  6  1 -1</clus>
<clus scale="   33.952">  1  3  2 -1</clus>
</clustering>
</event>
<event>
 6    0  0.2036847E+002  0.1477962E+03  0.7546771E-02  0.1203208E+00
         21   -1    0    0  506  501  0.00000000000E+00  0.00000000000E+00  0.17899105418E+03  0.17899105418E+03  0.00000000000E+00 0.  1.
         21   -1    0    0  503  502 -0.00000000000E+00 -0.00000000000E+00 -0.61638424265E+03  0.61638424265E+03  0.00000000000E+00 0. -1.
         21    1    1    2  503  501 -0.17449142712E+02  0.93715128562E+02  0.85243412974E+02  0.12788055895E+03  0.00000000000E+00 0.  1.
         21    1    1    2  504  502  0.31667175676E+02 -0.52344194055E+02 -0.23968633502E+03  0.24737070130E+03  0.00000000000E+00 0. -1.
         21    1    1    2  505  504  0.12527156826E+03 -0.43671498359E+02 -0.23987445254E+03  0.27411661490E+03  0.00000000000E+00 0. -1.
         21    1    1    2  506  505 -0.13948960122E+03  0.23005638515E+01 -0.43075813883E+02  0.14600742168E+03  0.00000000000E+00 0.  1.
<scales pt_clust_3="92.06027" pt_clust_4="61.17781" pt_clust_5="14000.00000" pt_clust_6="147.79615"></scales>
<clustering>
<clus scale="   61.178">  2  4  1 -1</clus>
<clus scale="   92.060">  1  3  2 -1</clus>
<clus scale="  147.796">  1  6  2 -1</clus>
<clus scale="   92.060">  1  3  2 -1</clus>
</clustering>
</event>
<event>
 6    0  0.2036847E+002  0.2224923E+03  0.7546771E-02  0.1132038E+00
         21   -1    0    0  505  501  0.00000000000E+00  0.00000000000E+00  0.18428404636E+04  0.18428404636E+04  0.00000000000E+00 0.  1.
         21   -1    0    0  506  502 -0.00000000000E+00 -0.00000000000E+00 -0.33770097778E+03  0.33770097778E+03  0.00000000000E+00 0. -1.
         21    1    1    2  503  502  0.27161548498E+02 -0.16957882185E+03 -0.24606154443E+03  0.30006834252E+03  0.00000000000E+00 0. -1.
         21    1    1    2  504  503  0.86698733441E+02  0.24100111015E+03  0.14390577850E+04  0.14616721637E+04  0.00000000000E+00 0.  1.
         21    1    1    2  505  504 -0.51032487774E+02 -0.20028419335E+02  0.33096667889E+03  0.33547637015E+03  0.00000000000E+00 0.  1.
         21    1    1    2  506  501 -0.62827794165E+02 -0.51393868969E+02 -0.18823433634E+02  0.83324565052E+02  0.00000000000E+00 0. -1.
<scales pt_clust_3="222.49235" pt_clust_4="14000.00000" pt_clust_5="54.82201" pt_clust_6="82.28613"></scales>
<clustering>
<clus scale="   54.822">  1  5  2 -1</clus>
<clus scale="   82.286">  2  6  1 -1</clus>
<clus scale="  222.492">  2  3  1 -1</clus>
<clus scale="   54.822">  1  3  2 -1</clus>
</clustering>
</event>
<event>
 6    0  0.2036847E+002  0.1099159E+03  0.7546771E-02  0.1260726E+00
         21   -1    0    0  504  501  0.00000000000E+00  0.00000000000E+00  0.16926910166E+03  0.16926910166E+03  0.00000000000E+00 0.  1.
         21   -1    0    0  505  502 -0.00000000000E+00 -0.00000000000E+00 -0.92116897256E+03  0.92116897256E+03  0.00000000000E+00 0. -1.
         21    1    1    2  503  501 -0.65366654954E+02 -0.67105855915E+02  0.73769069561E+02  0.11923871478E+03  0.00000000000E+00 0.  1.
         21    1    1    2  504  502 -0.29892734533E+02  0.75048807006E+02 -0.74830876913E+03  0.75265657040E+03  0.00000000000E+00 0. -1.
         21    1    1    2  505  506 -0.24579753551E+01  0.37668824299E+02 -0.10127760170E+03  0.10808392374E+03  0.00000000000E+00 0.  1.
         21    1    1    2  506  503  0.97717364842E+02 -0.45611775391E+02  0.23917430370E+02  0.11045886529E+03  0.00000000000E+00 0.  1.
<scales pt_clust_3="92.97998" pt_clust_4="14000.00000" pt_clust_5="37.74893" pt_clust_6="109.91588"></scales>
<clustering>
<clus scale="   37.749">  2  5  1 -1</clus>
<clus scale="   92.980">  1  3  2 -1</clus>
<clus scale="  109.916">  1  6  2 -1</clus>
<clus scale="   92.980">  1  3  2 -1</clus>
</clustering>
</event>
<event>
 6    0  0.2036847E+002  0.1772097E+03  0.7546771E-02  0.1170531E+00
         21   -1    0    0  505  501  0.00000000000E+00  0.00000000000E+00  0.12186922035E+04  0.12186922035E+04  0.00000000000E+00 0. -1.
         21   -1    0    0  506  502 -0.00000000000E+00 -0.00000000000E+00 -0.77597576054E+03  0.77597576054E+03  0.00000000000E+00 0.  1.
         21    1    1    2  503  501 -0.43319160424E+02  0.10485457257E+03  0.10529445862E+04  0.10590388722E+04  0.00000000000E+00 0. -1.
         21    1    1    2  504  502  0.11575796669E+03 -0.15880659784E+03 -0.63009375386E+03  0.66002846986E+03  0.00000000000E+00 0.  1.
         21    1    1    2  505  504 -0.80810008570E+02  0.22491943636E+02  0.13335035806E+03  0.15753876669E+03  0.00000000000E+00 0. -1.
         21    1    1    2  506  503  0.83712023034E+01  0.31460081633E+02 -0.11348474751E+03  0.11806185532E+03  0.00000000000E+00 0.  1.
<scales pt_clust_3="14000.00000" pt_clust_4="177.20966" pt_clust_5="83.89065" pt_clust_6="32.55478"></scales>
<clustering>
<clus scale="   32.555">  2  6  1 -1</clus>
<clus scale="   83.891">  1  5  2 -1</clus>
<clus scale="  177.210">  2  4  1 -1</clus>
<clus scale="   83.891">  1  3  2 -1</clus>
</clustering>
</event>
<event>
 6    0  0.2036847E+002  0.7991777E+02  0.7546771E-02  0.1329285E+00
         21   -1    0    0  504  501  0.00000000000E+00  0.00000000000E+00  0.23248040538E+03  0.23248040538E+03  0.00000000000E+00 0.  1.
         21   -1    0    0  506  502 -0.00000000000E+00 -0.00000000000E+00 -0.85208515952E+03  0.85208515952E+03  0.00000000000E+00 0. -1.
         21    1    1    2  503  502 -0.20745114547E+02 -0.77087564656E+02 -0.56887091526E+03  0.57444492394E+03  0.00000000000E+00 0. -1.
         21    1    1    2  504  503  0.34715457741E+01  0.32853446367E+02  0.14211110563E+03  0.14590053774E+03  0.00000000000E+00 0.  1.
         21    1    1    2  505  501 -0.66722441849E+02 -0.95026216786E+01  0.61368472179E+02  0.91149730897E+02  0.00000000000E+00 0.  1.
         21    1    1    2  506  505  0.83996010622E+02  0.53736739967E+02 -0.25421341668E+03  0.27307037233E+03  0.00000000000E+00 0.  1.
<scales pt_clust_3="14000.00000" pt_clust_4="33.03635" pt_clust_5="66.44950" pt_clust_6="79.91777"></scales>
<clustering>
<clus scale="   33.036">  1  4  2 -1</clus>
<clus scale="   66.450">  1  5  2 -1</clus>
<clus scale="   79.918">  1  6  2 -1</clus>
<clus scale="   33.036">  1  3  2 -1</clus>
</clustering>
</event>
<event>
 6    0  0.2036847E+002  0.8846381E+02  0.7546771E-02  0.1306615E+00
         21   -1    0    0  506  501  0.00000000000E+00  0.00000000000E+00  0.65108624819E+02  0.65108624819E+02  0.00000000000E+00 0. -1.
         21   -1    0    0  505  502 -0.00000000000E+00 -0.00000000000E+00 -0.46929690649E+03  0.46929690649E+03  0.00000000000E+00 0. -1.
         21    1    1    2  503  504  0.58542003840E+02  0.32744847432E+02 -0.11006195924E+03  0.12889152850E+03  0.00000000000E+00 0. -1.
         21    1    1    2  504  502  0.44563513489E+02  0.26963556356E+02 -0.24668208617E+03  0.25212098632E+03  0.00000000000E+00 0. -1.
         21    1    1    2  505  501 -0.42838025260E+02  0.18709275662E+02 -0.19225657494E+02  0.50544626916E+02  0.00000000000E+00 0. -1.
         21    1    1    2  506  503 -0.60267492069E+02 -0.78417679450E+02 -0.28218578769E+02  0.10284838958E+03  0.00000000000E+00 0. -1.
<scales pt_clust_3="88.46381" pt_clust_4="50.64645" pt_clust_5="46.74541" pt_clust_6="14000.00000"></scales>
<clustering>
<clus scale="   46.745">  1  5  2 -1</clus>
<clus scale="   50.646">  2  4  1 -1</clus>
<clus scale="   88.464">  2  3  1 -1</clus>
<clus scale="   46.745">  1  3  2 -1</clus>
</clustering>
</event>
<event>
 6    0  0.2036847E+002  0.8771267E+02  0.7546771E-02  0.1308487E+00
         21   -1    0    0  506  501  0.00000000000E+00  0.00000000000E+00  0.84014066520E+03  0.84014066520E+03  0.00000000000E+00 0. -1.
         21   -1    0    0  504  502 -0.00000000000E+00 -0.00000000000E+00 -0.47233953760E+02  0.47233953760E+02  0.00000000000E+00 0. -1.
         21    1    1    2  503  502  0.10723118780E+02  0.72122927107E+02  0.14913658846E+02  0.74425258555E+02  0.00000000000E+00 0. -1.
         21    1    1    2  504  505 -0.79881471840E+01 -0.47741529100E+02  0.82842317712E+02  0.95947452807E+02  0.00000000000E+00 0. -1.
         21    1    1    2  505  501 -0.54927828329E+02 -0.53996686808E+02  0.15059391951E+03  0.16914856519E+03  0.00000000000E+00 0. -1.
         21    1    1    2  506  503  0.52192856733E+02  0.29615288801E+02  0.54455681537E+03  0.54785334241E+03  0.00000000000E+00 0. -1.
<scales pt_clust_3="78.86175" pt_clust_4="30.43906" pt_clust_5="30.43906" pt_clust_6="60.00966"></scales>
<clustering>
<clus scale="   30.439">  4  5 -1 -1</clus>
<clus scale="   60.010">  1  6  2 -1</clus>
<clus scale="   78.862">  2  3  1 -1</clus>
<clus scale="   60.010">  1  3  2 -1</clus>
</clustering>
</event>
<event>
 6    0  0.2036847E+002  0.9445196E+02  0.7546771E-02  0.1292415E+00
         21   -1    0    0  506  501  0.00000000000E+00  0.00000000000E+00  0.14927977460E+03  0.14927977460E+03  0.00000000000E+00 0.  1.
         21   -1    0    0  504  502 -0.00000000000E+00 -0.00000000000E+00 -0.45997811536E+03  0.45997811536E+03  0.00000000000E+00 0.  1.
         21    1    1    2  503  501 -0.39617923278E+02 -0.57257099974E+02  0.33238437879E+02  0.77154060781E+02  0.00000000000E+00 0.  1.
         21    1    1    2  504  503  0.10815228402E+03  0.82010969717E+02 -0.31364811506E+03  0.34175701277E+03  0.00000000000E+00 0.  1.
         21    1    1    2  505  502 -0.36579794770E+02 -0.17289752208E+02 -0.10295223231E+03  0.11061726382E+03  0.00000000000E+00 0.  1.
         21    1    1    2  506  505 -0.31954565974E+02 -0.74641175353E+01  0.72663568724E+02  0.79729552595E+02  0.00000000000E+00 0.  1.
<scales pt_clust_3="14000.00000" pt_clust_4="94.45196" pt_clust_5="42.14389" pt_clust_6="32.81474"></scales>
<clustering>
<clus scale="   32.815">  1  6  2 -1</clus>
<clus scale="   42.144">  2  5  1 -1</clus>
<clus scale="   94.452">  2  4  1 -1</clus>
<clus scale="   32.815">  1  3  2 -1</clus>
</clustering>
</event>
<event>
 6    0  0.2036847E+002  0.1933272E+03  0.7546771E-02  0.1155494E+00
         21   -1    0    0  503  501  0.00000000000E+00  0.00000000000E+00  0.15225403487E+03  0.15225403487E+03  0.00000000000E+00 0.  1.
         21   -1    0    0  506  502 -0.00000000000E+00 -0.00000000000E+00 -0.71045745736E+03  0.71045745736E+03  0.00000000000E+00 0. -1.
         21    1    1    2  503  505  0.92624272220E+02 -0.53315364339E+02 -0.90275023242E+02  0.13989769012E+03  0.00000000000E+00 0. -1.
         21    1    1    2  504  501 -0.51581472149E+02 -0.29312320877E+02 -0.98828294813E+02  0.11526878276E+03  0.00000000000E+00 0. -1.
         21    1    1    2  505  502  0.84753107431E+02  0.13400818322E+03  0.50566200689E+02  0.16642783133E+03  0.00000000000E+00 0.  1.
         21    1    1    2  506  504 -0.12579590750E+03 -0.51380498000E+02 -0.41966630512E+03  0.44111718803E+03  0.00000000000E+00 0. -1.
<scales pt_clust_3="106.87275" pt_clust_4="34.67995" pt_clust_5="186.06663" pt_clust_6="34.67995"></scales>
<clustering>
<clus scale="   34.680">  4  6 -1 -1</clus>
<clus scale="  106.873">  1  3  2 -1</clus>
<clus scale="  186.067">  1  5  2 -1</clus>
<clus scale="  106.873">  1  3  2 -1</clus>
</clustering>
</event>
<event>
 6    0  0.2036847E+002  0.1493738E+03  0.7546771E-02  0.1201245E+00
         21   -1    0    0  503  501  0.00000000000E+00  0.00000000000E+00  0.52527972309E+03  0.52527972309E+03  0.00000000000E+00 0. -1.
         21   -1    0    0  505  502 -0.00000000000E+00 -0.00000000000E+00 -0.49481853042E+03  0.49481853042E+03  0.00000000000E+00 0. -1.
         21    1    1    2  503  502 -0.46793734749E+02  0.38519257307E+01 -0.47835183487E+02  0.67027574347E+02  0.00000000000E+00 0.  1.
         21    1    1    2  504  501  0.95683956510E+02  0.38600384252E+01  0.32809019074E+03  0.34177988924E+03  0.00000000000E+00 0. -1.
         21    1    1    2  505  506 -0.93329025393E+02 -0.39365261263E+02 -0.42026619689E+03  0.43230036667E+03  0.00000000000E+00 0. -1.
         21    1    1    2  506  504  0.44438803632E+02  0.31653297107E+02  0.17047238231E+03  0.17899042326E+03  0.00000000000E+00 0. -1.
<scales pt_clust_3="46.95201" pt_clust_4="31.49924" pt_clust_5="143.42606" pt_clust_6="31.49924"></scales>
<clustering>
<clus scale="   31.499">  4  6 -1 -1</clus>
<clus scale="   46.952">  2  3  1 -1</clus>
<clus scale="  143.426">  2  5  1 -1</clus>
<clus scale="  149.374">  1  3  2 -1</clus>
</clustering>
</event>
<event>
 6    0  0.2036847E+002  0.9553533E+02  0.7546771E-02  0.1289975E+00
         21   -1    0    0  502  501  0.00000000000E+00  0.00000000000E+00  0.17651965429E+04  0.17651965429E+04  0.00000000000E+00 0.  1.
         21   -1    0    0  504  502 -0.00000000000E+00 -0.00000000000E+00 -0.17905566860E+04  0.17905566860E+04  0.00000000000E+00 0. -1.
         21    1    1    2  503  501  0.13780155821E+02  0.52092652287E+02  0.10565331940E+04  0.10579063886E+04  0.00000000000E+00 0.  1.
         21    1    1    2  504  506 -0.93406073105E+01  0.45754960621E+02 -0.11911288855E+04  0.11920439528E+04  0.00000000000E+00 0. -1.
         21    1    1    2  505  503  0.18664757915E+02 -0.13535724052E+03  0.70009455350E+03  0.71330381997E+03  0.00000000000E+00 0.  1.
         21    1    1    2  506  505 -0.23104306425E+02  0.37509627611E+02 -0.59085900504E+03  0.59249906749E+03  0.00000000000E+00 0. -1.
<scales pt_clust_3="53.88448" pt_clust_4="32.61060" pt_clust_5="89.44112" pt_clust_6="32.61060"></scales>
<clustering>
<clus scale="   32.611">  4  6 -1 -1</clus>
<clus scale="   53.884">  1  3  2 -1</clus>
<clus scale="   89.441">  1  5  2 -1</clus>
<clus scale="   53.884">  1  3  2 -1</clus>
</clustering>
</event>
<event>
 6    0  0.2036847E+002  0.7697128E+02  0.7546771E-02  0.1337873E+00
         21   -1    0    0  505  501  0.00000000000E+00  0.00000000000E+00  0.94674612988E+03  0.94674612988E+03  0.00000000000E+00 0.  1.
         21   -1    0    0  506  502 -0.00000000000E+00 -0.00000000000E+00 -0.66921391519E+02  0.66921391519E+02  0.00000000000E+00 0.  1.
         21    1    1    2  503  504 -0.37690268526E+02 -0.41470233106E+02  0.43973684520E+03  0.44329316440E+03  0.00000000000E+00 0.  1.
         21    1    1    2  504  502  0.24750004593E+02 -0.58090598104E+02 -0.21822896717E+02  0.66808076881E+02  0.00000000000E+00 0.  1.
         21    1    1    2  505  503  0.11666504507E+02 -0.31423834624E+02  0.26471315428E+03  0.26682694534E+03  0.00000000000E+00 0.  1.
         21    1    1    2  506  501  0.12737594256E+01  0.13098466583E+03  0.19719763559E+03  0.23673933478E+03  0.00000000000E+00 0.  1.
<scales pt_clust_3="76.97128" pt_clust_4="64.24927" pt_clust_5="33.51962" pt_clust_6="14000.00000"></scales>
<clustering>
<clus scale="   33.520">  1  5  2 -1</clus>
<clus scale="   64.249">  2  4  1 -1</clus>
<clus scale="   76.971">  1  3  2 -1</clus>
<clus scale="   33.520">  1  3  2 -1</clus>
</clustering>
</event>
<event>
 6    0  0.2036847E+002  0.1433925E+03  0.7546771E-02  0.1208836E+00
         21   -1    0    0  504  501  0.00000000000E+00  0.00000000000E+00  0.71375824273E+03  0.71375824273E+03  0.00000000000E+00 0. -1.
         21   -1    0    0  506  502 -0.00000000000E+00 -0.00000000000E+00 -0.63443472738E+03  0.63443472738E+03  0.00000000000E+00 0. -1.
         21    1    1    2  503  505  0.80327837184E+02  0.29036713749E+02 -0.17424452854E+03  0.19405372425E+03  0.00000000000E+00 0. -1.
         21    1    1    2  504  502 -0.91970492058E+02 -0.62140385430E+02  0.63401839403E+03  0.64366087568E+03  0.00000000000E+00 0. -1.
         21    1    1    2  505  501 -0.22674420085E+02 -0.34010356139E+02  0.55014427249E+02  0.68537733085E+02  0.00000000000E+00 0. -1.
         21    1    1    2  506  503  0.34317074960E+02  0.67114027819E+02 -0.43546477739E+03  0.44194063709E+03  0.00000000000E+00 0. -1.
<scales pt_clust_3="14000.00000" pt_clust_4="143.39248" pt_clust_5="40.87583" pt_clust_6="75.17709"></scales>
<clustering>
<clus scale="   40.876">  1  5  2 -1</clus>
<clus scale="   75.177">  2  6  1 -1</clus>
<clus scale="  143.392">  1  4  2 -1</clus>
<clus scale="   40.876">  1  3  2 -1</clus>
</clustering>
</event>
<event>
 6    0  0.2036847E+002  0.2555840E+03  0.7546771E-02  0.1109826E+00
         21   -1    0    0  504  501  0.00000000000E+00  0.00000000000E+00  0.47468594656E+03  0.47468594656E+03  0.00000000000E+00 0.  1.
         21   -1    0    0  506  502 -0.00000000000E+00 -0.00000000000E+00 -0.73270911705E+03  0.73270911705E+03  0.00000000000E+00 0. -1.
         21    1    1    2  503  502  0.24245485287E+03  0.10019105655E+03 -0.60114706831E+03  0.65589663914E+03  0.00000000000E+00 0. -1.
         21    1    1    2  504  505 -0.12213125214E+03 -0.66188221387E+02  0.25800986221E+03  0.29302902996E+03  0.00000000000E+00 0.  1.
         21    1    1    2  505  503 -0.98382274041E+02 -0.56687682122E+02  0.14892934485E+03  0.18727657330E+03  0.00000000000E+00 0.  1.
         21    1    1    2  506  501 -0.21941326687E+02  0.22684846963E+02 -0.63815309242E+02  0.71192821212E+02  0.00000000000E+00 0. -1.
<scales pt_clust_3="252.89115" pt_clust_4="33.46046" pt_clust_5="33.46046" pt_clust_6="31.55985"></scales>
<clustering>
<clus scale="   31.560">  2  6  1 -1</clus>
<clus scale="   33.460">  4  5 -1 -1</clus>
<clus scale="  252.891">  2  3  1 -1</clus>
<clus scale="  255.584">  1  3  2 -1</clus>
</clustering>
</event>
<event>
 6    0  0.2036847E+002  0.8150123E+02  0.7546771E-02  0.1324844E+00
         21   -1    0    0  503  501  0.00000000000E+00  0.00000000000E+00  0.16720182326E+04  0.16720182326E+04  0.00000000000E+00 0. -1.
         21   -1    0    0  506  502 -0.00000000000E+00 -0.00000000000E+00 -0.36340780181E+03  0.36340780181E+03  0.00000000000E+00 0.  1.
         21    1    1    2  503  505  0.11699196254E+02  0.61551586894E+02  0.41005095308E+03  0.41480990003E+03  0.00000000000E+00 0. -1.
         21    1    1    2  504  501 -0.24959734115E+02 -0.93412412264E+02  0.12241466168E+04  0.12279592039E+04  0.00000000000E+00 0. -1.
         21    1    1    2  505  502 -0.20045501319E+02  0.80108889705E+02 -0.24818645792E+02  0.86227730527E+02  0.00000000000E+00 0. -1.
         21    1    1    2  506  504  0.33306039180E+02 -0.48248064335E+02 -0.30076849333E+03  0.30642919988E+03  0.00000000000E+00 0.  1.
<scales pt_clust_3="14000.00000" pt_clust_4="81.50123" pt_clust_5="36.95422" pt_clust_6="58.62737"></scales>
<clustering>
<clus scale="   58.627">  2  6  1 -1</clus>
<clus scale="   36.954">  2  5  1 -1</clus>
<clus scale="   81.501">  1  4  2 -1</clus>
<clus scale="   81.501">  1  3  2 -1</clus>
</clustering>
</event>
<event>
 6    0  0.2036847E+002  0.9511947E+02  0.7546771E-02  0.1290907E+00
         21   -1    0    0  504  501  0.00000000000E+00  0.00000000000E+00  0.25061371619E+03  0.25061371619E+03  0.00000000000E+00 0.  1.
         21   -1    0    0  505  502 -0.00000000000E+00 -0.00000000000E+00 -0.78976704928E+03  0.78976704928E+03  0.00000000000E+00 0. -1.
         21    1    1    2  503  501  0.29056426328E+02 -0.12487248695E+02 -0.99858951930E+01  0.33165123152E+02  0.00000000000E+00 0. -1.
         21    1    1    2  504  506  0.16659538189E+01  0.58019004468E+02  0.22060623680E+03  0.22811420823E+03  0.00000000000E+00 0.  1.
         21    1    1    2  505  503  0.70713296940E+02 -0.56354623207E+02 -0.19392996104E+03  0.21397439966E+03  0.00000000000E+00 0. -1.
         21    1    1    2  506  502 -0.10143567709E+03  0.10822867433E+02 -0.55584371364E+03  0.56512703443E+03  0.00000000000E+00 0. -1.
<scales pt_clust_3="31.62605" pt_clust_4="54.59855" pt_clust_5="14000.00000" pt_clust_6="95.11947"></scales>
<clustering>
<clus scale="   31.626">  1  3  2 -1</clus>
<clus scale="   54.599">  1  4  2 -1</clus>
<clus scale="   95.119">  2  6  1 -1</clus>
<clus scale="   31.626">  1  3  2 -1</clus>
</clustering>
</event>
<event>
 6    0  0.2036847E+002  0.1351801E+03  0.7546771E-02  0.1219966E+00
         21   -1    0    0  506  501  0.00000000000E+00  0.00000000000E+00  0.66072479472E+03  0.66072479472E+03  0.00000000000E+00 0.  1.
         21   -1    0    0  505  502 -0.00000000000E+00 -0.00000000000E+00 -0.27655902777E+02  0.27655902777E+02  0.00000000000E+00 0.  1.
         21    1    1    2  503  502  0.24118589709E+02  0.69337036142E+02  0.18816179696E+03  0.20197572326E+03  0.00000000000E+00 0. -1.
         21    1    1    2  504  501 -0.39068082987E+01 -0.64446550966E+02  0.15212596804E+03  0.16526019253E+03  0.00000000000E+00 0.  1.
         21    1    1    2  505  504  0.11082215815E+02 -0.55462743504E+02  0.67090642651E+02  0.87750132511E+02  0.00000000000E+00 0.  1.
         21    1    1    2  506  503 -0.31293997225E+02  0.50572258329E+02  0.22569048429E+03  0.23339464920E+03  0.00000000000E+00 0.  1.
<scales pt_clust_3="55.80312" pt_clust_4="126.32617" pt_clust_5="36.59289" pt_clust_6="55.80312"></scales>
<clustering>
<clus scale="   36.593">  4  5 -1 -1</clus>
<clus scale="   55.803">  3  6 -1 -1</clus>
<clus scale="  126.326">  2  4  1 -1</clus>
<clus scale="  135.180">  1  3  2 -1</clus>
</clustering>
</event>
<event>
 6    0  0.2036847E+002  0.2456140E+03  0.7546771E-02  0.1116108E+00
         21   -1    0    0  503  501  0.00000000000E+00  0.00000000000E+00  0.18277072612E+04  0.18277072612E+04  0.00000000000E+00 0. -1.
         21   -1    0    0  501  502 -0.00000000000E+00 -0.00000000000E+00 -0.12193415420E+03  0.12193415420E+03  0.00000000000E+00 0. -1.
         21    1    1    2  503  506 -0.41824490422E+02 -0.31716992005E+02  0.41243183862E+03  0.41575867651E+03  0.00000000000E+00 0.  1.
         21    1    1    2  504  502  0.19313199268E+03  0.21667255352E+02 -0.10267729845E+02  0.19461465214E+03  0.00000000000E+00 0. -1.
         21    1    1    2  505  504  0.40107454041E+02  0.12189393364E+02  0.30481618463E+02  0.51829704267E+02  0.00000000000E+00 0. -1.
         21    1    1    2  506  505 -0.19141495630E+03 -0.21396567113E+01  0.12731273798E+04  0.12874383825E+04  0.00000000000E+00 0. -1.
<scales pt_clust_3="34.03076" pt_clust_4="32.10717" pt_clust_5="32.10717" pt_clust_6="244.47974"></scales>
<clustering>
<clus scale="   32.107">  4  5 -1 -1</clus>
<clus scale="   34.031">  3  6 -1 -1</clus>
<clus scale="  244.480">  1  3  2 -1</clus>
<clus scale="  244.480">  1  3  2 -1</clus>
</clustering>
</event>
<event>
 6    0  0.2036847E+002  0.1891155E+03  0.7546771E-02  0.1159261E+00
         21   -1    0    0  502  501  0.00000000000E+00  0.00000000000E+00  0.92820409543E+03  0.92820409543E+03  0.00000000000E+00 0. -1.
         21   -1    0    0  506  502 -0.00000000000E+00 -0.00000000000E+00 -0.12287160580E+03  0.12287160580E+03  0.00000000000E+00 0. -1.
         21    1    1    2  503  504 -0.53310124342E+02  0.40995908166E+02  0.36750512298E+03  0.37360761403E+03  0.00000000000E+00 0. -1.
         21    1    1    2  504  501 -0.48891045355E+02  0.10923349930E+03  0.47210380859E+03  0.48703623866E+03  0.00000000000E+00 0. -1.
         21    1    1    2  505  503  0.53455758894E+02 -0.11449843304E+03 -0.29794967680E+02  0.12982738319E+03  0.00000000000E+00 0. -1.
         21    1    1    2  506  505  0.48745410803E+02 -0.35730974433E+02 -0.44814742675E+01  0.60604465346E+02  0.00000000000E+00 0. -1.
<scales pt_clust_3="39.31594" pt_clust_4="39.31594" pt_clust_5="187.32169" pt_clust_6="31.50690"></scales>
<clustering>
<clus scale="   31.507">  5  6 -1 -1</clus>
<clus scale="   39.316">  3  4 -1 -1</clus>
<clus scale="  187.322">  2  5  1 -1</clus>
<clus scale="  189.116">  1  3  2 -1</clus>
</clustering>
</event>
<event>
 6    0  0.2036847E+002  0.8207751E+02  0.7546771E-02  0.1323257E+00
         21   -1    0    0  506  501  0.00000000000E+00  0.00000000000E+00  0.89643426912E+03  0.89643426912E+03  0.00000000000E+00 0.  1.
         21   -1    0    0  505  502 -0.00000000000E+00 -0.00000000000E+00 -0.48113127001E+03  0.48113127001E+03  0.00000000000E+00 0.  1.
         21    1    1    2  503  501  0.32220288692E+02  0.34301113118E+02  0.17824557614E+02  0.50323237362E+02  0.00000000000E+00 0.  1.
         21    1    1    2  504  502 -0.11908828043E+03 -0.15882175339E+02  0.79549732225E+03  0.80451864598E+03  0.00000000000E+00 0.  1.
         21    1    1    2  505  503  0.73688416827E+02  0.35806434745E+02 -0.44333245600E+03  0.45083894030E+03  0.00000000000E+00 0.  1.
         21    1    1    2  506  504  0.13179574906E+02 -0.54225372523E+02  0.45313575248E+02  0.71884715495E+02  0.00000000000E+00 0. -1.
<scales pt_clust_3="47.06074" pt_clust_4="14000.00000" pt_clust_5="82.07751" pt_clust_6="54.12255"></scales>
<clustering>
<clus scale="   47.061">  1  3  2 -1</clus>
<clus scale="   54.123">  1  6  2 -1</clus>
<clus scale="   82.078">  2  5  1 -1</clus>
<clus scale="   47.061">  1  3  2 -1</clus>
</clustering>
</event>
<event>
 6    0  0.2036847E+002  0.8159512E+02  0.7546771E-02  0.1324585E+00
         21   -1    0    0  506  501  0.00000000000E+00  0.00000000000E+00  0.21944629233E+02  0.21944629233E+02  0.00000000000E+00 0. -1.
         21   -1    0    0  504  502 -0.00000000000E+00 -0.00000000000E+00 -0.19456777832E+04  0.19456777832E+04  0.00000000000E+00 0.  1.
         21    1    1    2  503  502 -0.34321831214E+02  0.47052171390E+02 -0.11119629277E+04  0.11134870666E+04  0.00000000000E+00 0.  1.
         21    1    1    2  504  505 -0.32735993192E+02 -0.80682114946E+02 -0.10523663776E+03  0.13658696442E+03  0.00000000000E+00 0. -1.
         21    1    1    2  505  501  0.50710845270E+02 -0.20556404390E+02 -0.18415305766E+03  0.19211065623E+03  0.00000000000E+00 0. -1.
         21    1    1    2  506  503  0.16346979137E+02  0.54186347946E+02 -0.52238053081E+03  0.52543772514E+03  0.00000000000E+00 0. -1.
<scales pt_clust_3="56.28119" pt_clust_4="81.59512" pt_clust_5="54.71888" pt_clust_6="14000.00000"></scales>
<clustering>
<clus scale="   54.719">  1  5  2 -1</clus>
<clus scale="   56.281">  2  3  1 -1</clus>
<clus scale="   81.595">  1  4  2 -1</clus>
<clus scale="   54.719">  1  3  2 -1</clus>
</clustering>
</event>
<event>
 6    0  0.2036847E+002  0.1064724E+03  0.7546771E-02  0.1267245E+00
         21   -1    0    0  503  501  0.00000000000E+00  0.00000000000E+00  0.92226086898E+02  0.92226086898E+02  0.00000000000E+00 0.  1.
         21   -1    0    0  505  502 -0.00000000000E+00 -0.00000000000E+00 -0.12925716054E+04  0.12925716054E+04  0.00000000000E+00 0.  1.
         21    1    1    2  503  506  0.42223749281E+01 -0.80765622425E+02  0.45551627846E+02  0.92821683971E+02  0.00000000000E+00 0.  1.
         21    1    1    2  504  502 -0.92010737974E+02  0.56401707141E+02 -0.79802780861E+03  0.80529219031E+03  0.00000000000E+00 0.  1.
         21    1    1    2  505  501 -0.33579531220E+02  0.69446339885E+01 -0.16172749007E+02  0.37912671611E+02  0.00000000000E+00 0.  1.
         21    1    1    2  506  504  0.12136789427E+03  0.17419281295E+02 -0.43169658876E+03  0.44877114643E+03  0.00000000000E+00 0.  1.
<scales pt_clust_3="78.71558" pt_clust_4="14000.00000" pt_clust_5="34.29013" pt_clust_6="106.47240"></scales>
<clustering>
<clus scale="   34.290">  1  5  2 -1</clus>
<clus scale="   78.716">  1  3  2 -1</clus>
<clus scale="  106.472">  1  6  2 -1</clus>
<clus scale="   34.290">  1  3  2 -1</clus>
</clustering>
</event>
<event>
 6    0  0.2036847E+002  0.1043407E+03  0.7546771E-02  0.1271424E+00
         21   -1    0    0  504  501  0.00000000000E+00  0.00000000000E+00  0.37185929414E+03  0.37185929414E+03  0.00000000000E+00 0.  1.
         21   -1    0    0  506  502 -0.00000000000E+00 -0.00000000000E+00 -0.98009629469E+02  0.98009629469E+02  0.00000000000E+00 0.  1.
         21    1    1    2  503  505  0.36395900218E+02  0.39614686878E+02  0.13746564640E+03  0.14761703462E+03  0.00000000000E+00 0.  1.
         21    1    1    2  504  503 -0.38962557889E+01  0.46948293654E+02  0.14929906413E+03  0.15655520954E+03  0.00000000000E+00 0.  1.
         21    1    1    2  505  502 -0.40678840302E+02 -0.11808045579E+03 -0.30680234693E+02  0.12860419468E+03  0.00000000000E+00 0.  1.
         21    1    1    2  506  501  0.81791958726E+01  0.31517475261E+02  0.17765188842E+02  0.37092484772E+02  0.00000000000E+00 0. -1.
<scales pt_clust_3="38.93011" pt_clust_4="38.93011" pt_clust_5="95.65361" pt_clust_6="32.56149"></scales>
<clustering>
<clus scale="   32.561">  2  6  1 -1</clus>
<clus scale="   38.930">  3  4 -1 -1</clus>
<clus scale="   95.654">  2  5  1 -1</clus>
<clus scale="  104.341">  1  3  2 -1</clus>
</clustering>
</event>
<event>
 6    0  0.2036847E+002  0.6268582E+02  0.7546771E-02  0.1386894E+00
         21   -1    0    0  503  501  0.00000000000E+00  0.00000000000E+00  0.78709665436E+03  0.78709665436E+03  0.00000000000E+00 0. -1.
         21   -1    0    0  506  502 -0.00000000000E+00 -0.00000000000E+00 -0.17461371165E+03  0.17461371165E+03  0.00000000000E+00 0. -1.
         21    1    1    2  503  505  0.61056352305E+02 -0.18396293304E+02  0.48583103391E+03  0.48999805640E+03  0.00000000000E+00 0. -1.
         21    1    1    2  504  501 -0.29069602491E+01  0.41070471618E+02  0.25120747195E+03  0.25455928194E+03  0.00000000000E+00 0. -1.
         21    1    1    2  505  502 -0.10957521883E+03  0.83742562397E+01 -0.10968846091E+03  0.15526884815E+03  0.00000000000E+00 0. -1.
         21    1    1    2  506  504  0.51425826773E+02 -0.31048434554E+02 -0.14867102230E+02  0.61884179531E+02  0.00000000000E+00 0. -1.
<scales pt_clust_3="14000.00000" pt_clust_4="41.17322" pt_clust_5="62.68582" pt_clust_6="59.04673"></scales>
<clustering>
<clus scale="   41.173">  1  4  2 -1</clus>
<clus scale="   59.047">  2  6  1 -1</clus>
<clus scale="   62.686">  2  5  1 -1</clus>
<clus scale="   41.173">  1  3  2 -1</clus>
</clustering>
</event>
<event>
 6    0  0.2036847E+002  0.1651868E+03  0.7546771E-02  0.1182962E+00
         21   -1    0    0  503  501  0.00000000000E+00  0.00000000000E+00  0.40517526185E+03  0.40517526185E+03  0.00000000000E+00 0.  1.
         21   -1    0    0  505  502 -0.00000000000E+00 -0.00000000000E+00 -0.74237429012E+03  0.74237429012E+03  0.00000000000E+00 0.  1.
         21    1    1    2  503  504  0.10090205310E+03 -0.15281886014E+02  0.24689812910E+03  0.26715809273E+03  0.00000000000E+00 0.  1.
         21    1    1    2  504  506  0.42701139327E+02  0.46556799345E+02  0.12722600368E+03  0.14204710092E+03  0.00000000000E+00 0. -1.
         21    1    1    2  505  501 -0.28234511573E+02  0.46413769292E+02 -0.27757256955E+03  0.28283910088E+03  0.00000000000E+00 0. -1.
         21    1    1    2  506  502 -0.11536868085E+03 -0.77688682623E+02 -0.43375059150E+03  0.45550525744E+03  0.00000000000E+00 0.  1.
<scales pt_clust_3="60.67639" pt_clust_4="60.67639" pt_clust_5="54.32702" pt_clust_6="146.31018"></scales>
<clustering>
<clus scale="   54.327">  2  5  1 -1</clus>
<clus scale="   60.676">  3  4 -1 -1</clus>
<clus scale="  146.310">  2  6  1 -1</clus>
<clus scale="  165.187">  1  3  2 -1</clus>
</clustering>
</event>
<event>
 6    0  0.2036847E+002  0.1600641E+03  0.7546771E-02  0.1188624E+00
         21   -1    0    0  506  501  0.00000000000E+00  0.00000000000E+00  0.64885127991E+03  0.64885127991E+03  0.00000000000E+00 0. -1.
         21   -1    0    0  503  502 -0.00000000000E+00 -0.00000000000E+00 -0.93464015538E+02  0.93464015538E+02  0.00000000000E+00 0. -1.
         21    1    1    2  503  505 -0.48911023726E+02 -0.16575309759E+02  0.83786237971E+02  0.98423385478E+02  0.00000000000E+00 0. -1.
         21    1    1    2  504  502  0.47581485754E+02 -0.53817353769E+02  0.43929888946E+02  0.84202972015E+02  0.00000000000E+00 0. -1.
         21    1    1    2  505  501 -0.88195602038E+02 -0.45931474066E+02  0.39761088931E+03  0.40985678453E+03  0.00000000000E+00 0. -1.
         21    1    1    2  506  504  0.89525140010E+02  0.11632413759E+03  0.30060248145E+02  0.14983215342E+03  0.00000000000E+00 0. -1.
<scales pt_clust_3="45.00618" pt_clust_4="71.83527" pt_clust_5="45.00618" pt_clust_6="147.37806"></scales>
<clustering>
<clus scale="   45.006">  3  5 -1 -1</clus>
<clus scale="   71.835">  2  4  1 -1</clus>
<clus scale="  147.378">  2  6  1 -1</clus>
<clus scale="  160.064">  1  3  2 -1</clus>
</clustering>
</event>
<event>
 6    0  0.2396303E+002  0.9213768E+02  0.7546771E-02  0.1297756E+00
         21   -1    0    0  506  501  0.00000000000E+00  0.00000000000E+00  0.47810968406E+03  0.47810968406E+03  0.00000000000E+00 0. -1.
         21   -1    0    0  501  502 -0.00000000000E+00 -0.00000000000E+00 -0.52110002352E+03  0.52110002352E+03  0.00000000000E+00 0.  1.
         21    1    1    2  503  504 -0.36519933643E+02 -0.23818423330E+02  0.49216911873E+02  0.65752013334E+02  0.00000000000E+00 0. -1.
         21    1    1    2  504  505  0.15128400085E+02  0.78394433627E+02 -0.35012709081E+02  0.87180534008E+02  0.00000000000E+00 0. -1.
         21    1    1    2  505  502  0.14834422359E+02 -0.94145073842E+02 -0.44566487930E+03  0.45574174667E+03  0.00000000000E+00 0.  1.
         21    1    1    2  506  503  0.65571111988E+01  0.39569063545E+02  0.38847033704E+03  0.39053541358E+03  0.00000000000E+00 0. -1.
<scales pt_clust_3="32.31908" pt_clust_4="14000.00000" pt_clust_5="92.13768" pt_clust_6="40.10868"></scales>
<clustering>
<clus scale="   40.109">  1  6  2 -1</clus>
<clus scale="   32.319">  1  3  2 -1</clus>
<clus scale="   92.138">  2  5  1 -1</clus>
<clus scale="   40.109">  1  3  2 -1</clus>
</clustering>
</event>
<event>
 6    0  0.2036847E+002  0.1019591E+03  0.7546771E-02  0.1276229E+00
         21   -1    0    0  505  501  0.00000000000E+00  0.00000000000E+00  0.15227347425E+03  0.15227347425E+03  0.00000000000E+00 0. -1.
         21   -1    0    0  506  502 -0.00000000000E+00 -0.00000000000E+00 -0.13653426413E+04  0.13653426413E+04  0.00000000000E+00 0. -1.
         21    1    1    2  503  501 -0.26816634352E+02  0.19854636539E+02  0.27021840960E+02  0.42936212675E+02  0.00000000000E+00 0.  1.
         21    1    1    2  504  502 -0.96049492815E+02  0.56934629211E+02 -0.73717207677E+03  0.74558012838E+03  0.00000000000E+00 0. -1.
         21    1    1    2  505  504  0.34640462825E+02 -0.12143793125E+03  0.72252531248E+02  0.14549075944E+03  0.00000000000E+00 0. -1.
         21    1    1    2  506  503  0.88225664342E+02  0.44648665501E+02 -0.57517146252E+03  0.58360901508E+03  0.00000000000E+00 0. -1.
<scales pt_clust_3="33.36673" pt_clust_4="101.95912" pt_clust_5="14000.00000" pt_clust_6="98.34780"></scales>
<clustering>
<clus scale="   33.367">  1  3  2 -1</clus>
<clus scale="   98.348">  2  6  1 -1</clus>
<clus scale="  101.959">  2  4  1 -1</clus>
<clus scale="   33.367">  1  3  2 -1</clus>
</clustering>
</event>
<event>
 6    0  0.2036847E+002  0.1357572E+03  0.7546771E-02  0.1219155E+00
         21   -1    0    0  505  501  0.00000000000E+00  0.00000000000E+00  0.52674966510E+03  0.52674966510E+03  0.00000000000E+00 0.  1.
         21   -1    0    0  506  502 -0.00000000000E+00 -0.00000000000E+00 -0.14889444287E+04  0.14889444287E+04  0.00000000000E+00 0.  1.
         21    1    1    2  503  504  0.14744206947E+02 -0.72583260246E+02  0.23055376656E+03  0.24215854430E+03  0.00000000000E+00 0.  1.
         21    1    1    2  504  502  0.27796350723E+02  0.95625533411E+02 -0.11325088383E+04  0.11368786868E+04  0.00000000000E+00 0.  1.
         21    1    1    2  505  503  0.32412683710E+02 -0.49768938378E+02  0.28051513276E+03  0.28673379466E+03  0.00000000000E+00 0.  1.
         21    1    1    2  506  501 -0.74953241379E+02  0.26726665214E+02 -0.34075482467E+03  0.34992306806E+03  0.00000000000E+00 0.  1.
<scales pt_clust_3="32.80287" pt_clust_4="130.72171" pt_clust_5="32.80287" pt_clust_6="79.57577"></scales>
<clustering>
<clus scale="   32.803">  3  5 -1 -1</clus>
<clus scale="   79.576">  2  6  1 -1</clus>
<clus scale="  130.722">  2  4  1 -1</clus>
<clus scale="  135.757">  1  3  2 -1</clus>
</clustering>
</event>
<event>
 6    0  0.2036847E+002  0.1522370E+03  0.7546771E-02  0.1197751E+00
         21   -1    0    0  506  501  0.00000000000E+00  0.00000000000E+00  0.52202029597E+03  0.52202029597E+03  0.00000000000E+00 0.  1.
         21   -1    0    0  503  502 -0.00000000000E+00 -0.00000000000E+00 -0.97637073364E+02  0.97637073364E+02  0.00000000000E+00 0. -1.
         21    1    1    2  503  505 -0.44559985058E+02 -0.52468247165E+02  0.44333164942E+02  0.81877583884E+02  0.00000000000E+00 0.  1.
         21    1    1    2  504  502  0.13282865016E+03  0.11235523782E+03  0.41580893802E+02  0.17887459433E+03  0.00000000000E+00 0. -1.
         21    1    1    2  505  501 -0.19013658244E+02 -0.37184979850E+02  0.78564078042E+02  0.88975031806E+02  0.00000000000E+00 0.  1.
         21    1    1    2  506  504 -0.69255006856E+02 -0.22702010808E+02  0.25990508582E+03  0.26993015931E+03  0.00000000000E+00 0.  1.
<scales pt_clust_3="34.90013" pt_clust_4="145.49412" pt_clust_5="34.90013" pt_clust_6="72.88098"></scales>
<clustering>
<clus scale="   34.900">  3  5 -1 -1</clus>
<clus scale="   72.881">  1  6  2 -1</clus>
<clus scale="  145.494">  2  4  1 -1</clus>
<clus scale="   72.881">  1  3  2 -1</clus>
</clustering>
</event>
<event>
 6    0  0.2036847E+002  0.2071891E+03  0.7546771E-02  0.1143811E+00
         21   -1    0    0  505  501  0.00000000000E+00  0.00000000000E+00  0.68673977725E+03  0.68673977725E+03  0.00000000000E+00 0.  1.
         21   -1    0    0  506  502 -0.00000000000E+00 -0.00000000000E+00 -0.14634374702E+03  0.14634374702E+03  0.00000000000E+00 0.  1.
         21    1    1    2  503  501  0.40930564502E+02 -0.13400465586E+03  0.27033809147E+03  0.30449177756E+03  0.00000000000E+00 0.  1.
         21    1    1    2  504  503 -0.17777312701E+02 -0.73546432976E+02  0.17037258192E+03  0.18641868823E+03  0.00000000000E+00 0.  1.
         21    1    1    2  505  502  0.98957257330E+02  0.17379532265E+03  0.50505572947E+02  0.20627206755E+03  0.00000000000E+00 0.  1.
         21    1    1    2  506  504 -0.12211050913E+03  0.33755766185E+02  0.49179783882E+02  0.13590099092E+03  0.00000000000E+00 0.  1.
<scales pt_clust_3="41.26760" pt_clust_4="41.26760" pt_clust_5="199.43338" pt_clust_6="126.69028"></scales>
<clustering>
<clus scale="   41.268">  3  4 -1 -1</clus>
<clus scale="  126.690">  2  6  1 -1</clus>
<clus scale="  199.433">  2  5  1 -1</clus>
<clus scale="  207.189">  1  3  2 -1</clus>
</clustering>
</event>
<event>
 6    0  0.2036847E+002  0.7399646E+02  0.7546771E-02  0.1347007E+00
         21   -1    0    0  505  501  0.00000000000E+00  0.00000000000E+00  0.84926469694E+02  0.84926469694E+02  0.00000000000E+00 0. -1.
         21   -1    0    0  503  502 -0.00000000000E+00 -0.00000000000E+00 -0.44410122996E+03  0.44410122996E+03  0.00000000000E+00 0. -1.
         21    1    1    2  503  506 -0.60393809510E+02 -0.27033815049E+02 -0.24766484617E+03  0.25635154653E+03  0.00000000000E+00 0. -1.
         21    1    1    2  504  502  0.25708156916E+02  0.42348179901E+02 -0.10732481264E+03  0.11820699252E+03  0.00000000000E+00 0. -1.
         21    1    1    2  505  504  0.29431655413E+02  0.66014717529E+02  0.50191119989E+01  0.72452444789E+02  0.00000000000E+00 0. -1.
         21    1    1    2  506  501  0.52539971816E+01 -0.81329082380E+02 -0.92042134608E+01  0.82016715812E+02  0.00000000000E+00 0. -1.
<scales pt_clust_3="41.16724" pt_clust_4="49.54067" pt_clust_5="14000.00000" pt_clust_6="73.99646"></scales>
<clustering>
<clus scale="   49.541">  2  4  1 -1</clus>
<clus scale="   41.167">  2  3  1 -1</clus>
<clus scale="   73.996">  2  6  1 -1</clus>
<clus scale="   73.996">  1  3  2 -1</clus>
</clustering>
</event>
<event>
 6    0  0.2036847E+002  0.2574698E+03  0.7546771E-02  0.1108673E+00
         21   -1    0    0  505  501  0.00000000000E+00  0.00000000000E+00  0.12865050428E+03  0.12865050428E+03  0.00000000000E+00 0. -1.
         21   -1    0    0  501  502 -0.00000000000E+00 -0.00000000000E+00 -0.79661425368E+03  0.79661425368E+03  0.00000000000E+00 0. -1.
         21    1    1    2  503  504 -0.18834562012E+03  0.56507337327E+02 -0.13577143378E+02  0.19710781469E+03  0.00000000000E+00 0. -1.
         21    1    1    2  504  506  0.22434347485E+02 -0.35327290290E+02 -0.13331347496E+03  0.13972759209E+03  0.00000000000E+00 0. -1.
         21    1    1    2  505  503 -0.46221538858E+02  0.55234999819E+01 -0.37771936824E+02  0.59947134359E+02  0.00000000000E+00 0. -1.
         21    1    1    2  506  502  0.21213281149E+03 -0.26703547019E+02 -0.48330119424E+03  0.52848221682E+03  0.00000000000E+00 0. -1.
<scales pt_clust_3="251.87401" pt_clust_4="38.11229" pt_clust_5="32.89493" pt_clust_6="38.11229"></scales>
<clustering>
<clus scale="   32.895">  3  5 -1 -1</clus>
<clus scale="   38.112">  4  6 -1 -1</clus>
<clus scale="  251.874">  1  3  2 -1</clus>
<clus scale="  251.874">  1  3  2 -1</clus>
</clustering>
</event>
<event>
 6    0  0.2036847E+002  0.8234047E+02  0.7546771E-02  0.1322538E+00
         21   -1    0    0  506  501  0.00000000000E+00  0.00000000000E+00  0.97743830796E+02  0.97743830796E+02  0.00000000000E+00 0.  1.
         21   -1    0    0  503  502 -0.00000000000E+00 -0.00000000000E+00 -0.20500754631E+04  0.20500754631E+04  0.00000000000E+00 0.  1.
         21    1    1    2  503  505  0.95473630781E+02 -0.14152569443E+02 -0.18085081996E+04  0.18110818362E+04  0.00000000000E+00 0.  1.
         21    1    1    2  504  502 -0.15049331767E+02  0.28734947825E+02 -0.18386088184E+03  0.18670030392E+03  0.00000000000E+00 0.  1.
         21    1    1    2  505  501 -0.86311909390E+02 -0.46790262763E+02  0.56620437199E+02  0.11333555621E+03  0.00000000000E+00 0.  1.
         21    1    1    2  506  504  0.58876103753E+01  0.32207884381E+02 -0.16582988095E+02  0.36701597600E+02  0.00000000000E+00 0.  1.
<scales pt_clust_3="82.34047" pt_clust_4="32.43732" pt_clust_5="14000.00000" pt_clust_6="33.10800"></scales>
<clustering>
<clus scale="   32.437">  2  4  1 -1</clus>
<clus scale="   33.108">  1  6  2 -1</clus>
<clus scale="   82.340">  2  3  1 -1</clus>
<clus scale="   33.108">  1  3  2 -1</clus>
</clustering>
</event>
<event>
 6    0  0.2036847E+002  0.1570236E+03  0.7546771E-02  0.1192099E+00
         21   -1    0    0  506  501  0.00000000000E+00  0.00000000000E+00  0.12627845575E+03  0.12627845575E+03  0.00000000000E+00 0.  1.
         21   -1    0    0  505  502 -0.00000000000E+00 -0.00000000000E+00 -0.44909809415E+03  0.44909809415E+03  0.00000000000E+00 0.  1.
         21    1    1    2  503  502  0.46621619513E+02  0.82015447385E+02 -0.24375436040E+03  0.26137386485E+03  0.00000000000E+00 0.  1.
         21    1    1    2  504  501 -0.12561418915E+03 -0.72098282813E+02  0.48314722320E+02  0.15268071029E+03  0.00000000000E+00 0.  1.
         21    1    1    2  505  504  0.22196451037E+02 -0.27873997168E+02 -0.27426732841E+02  0.44965184655E+02  0.00000000000E+00 0. -1.
         21    1    1    2  506  503  0.56796118601E+02  0.17956832596E+02 -0.99953267475E+02  0.11635679011E+03  0.00000000000E+00 0.  1.
<scales pt_clust_3="52.58255" pt_clust_4="144.22408" pt_clust_5="35.63204" pt_clust_6="52.58255"></scales>
<clustering>
<clus scale="   35.632">  2  5  1 -1</clus>
<clus scale="   52.583">  3  6 -1 -1</clus>
<clus scale="  144.224">  1  4  2 -1</clus>
<clus scale="  144.224">  1  3  2 -1</clus>
</clustering>
</event>
<event>
 6    0  0.2036847E+002  0.8977852E+02  0.7546771E-02  0.1303389E+00
         21   -1    0    0  503  501  0.00000000000E+00  0.00000000000E+00  0.12674032333E+04  0.12674032333E+04  0.00000000000E+00 0. -1.
         21   -1    0    0  504  502 -0.00000000000E+00 -0.00000000000E+00 -0.82613689736E+02  0.82613689736E+02  0.00000000000E+00 0. -1.
         21    1    1    2  503  506 -0.85106080472E+02  0.60997383688E+02  0.89435654911E+02  0.13770425600E+03  0.00000000000E+00 0. -1.
         21    1    1    2  504  505  0.33480842499E+02  0.24244393855E+02  0.50918000478E+03  0.51085519936E+03  0.00000000000E+00 0. -1.
         21    1    1    2  505  501  0.44384935316E+02 -0.18669605539E+02  0.62311940398E+03  0.62497709419E+03  0.00000000000E+00 0. -1.
         21    1    1    2  506  502  0.72403026569E+01 -0.66572172004E+02 -0.36945520124E+02  0.76480373463E+02  0.00000000000E+00 0. -1.
<scales pt_clust_3="78.36640" pt_clust_4="40.58727" pt_clust_5="40.58727" pt_clust_6="66.96474"></scales>
<clustering>
<clus scale="   40.587">  4  5 -1 -1</clus>
<clus scale="   66.965">  2  6  1 -1</clus>
<clus scale="   78.366">  2  3  1 -1</clus>
<clus scale="   89.779">  1  3  2 -1</clus>
</clustering>
</event>
<event>
 6    0  0.2036847E+002  0.6825018E+02  0.7546771E-02  0.1366147E+00
         21   -1    0    0  504  501  0.00000000000E+00  0.00000000000E+00  0.10504896309E+04  0.10504896309E+04  0.00000000000E+00 0. -1.
         21   -1    0    0  503  502 -0.00000000000E+00 -0.00000000000E+00 -0.33248799226E+03  0.33248799226E+03  0.00000000000E+00 0. -1.
         21    1    1    2  503  501  0.40909691326E+02  0.33176336556E+02 -0.51269195503E+02  0.73503758809E+02  0.00000000000E+00 0.  1.
         21    1    1    2  504  506  0.98903554095E+01  0.28916154446E+02  0.64978659294E+03  0.65050486507E+03  0.00000000000E+00 0. -1.
         21    1    1    2  505  502 -0.10619186078E+03 -0.54347875593E+02 -0.25437069046E+03  0.28095346776E+03  0.00000000000E+00 0. -1.
         21    1    1    2  506  505  0.55391814046E+02 -0.77446154083E+01  0.37385493164E+03  0.37801553148E+03  0.00000000000E+00 0. -1.
<scales pt_clust_3="53.39236" pt_clust_4="30.56081" pt_clust_5="68.25018" pt_clust_6="14000.00000"></scales>
<clustering>
<clus scale="   30.561">  1  4  2 -1</clus>
<clus scale="   53.392">  2  3  1 -1</clus>
<clus scale="   68.250">  2  5  1 -1</clus>
<clus scale="   30.561">  1  3  2 -1</clus>
</clustering>
</event>
<event>
 6    0  0.2036847E+002  0.1810240E+03  0.7546771E-02  0.1166816E+00
         21   -1    0    0  505  501  0.00000000000E+00  0.00000000000E+00  0.10673813160E+04  0.10673813160E+04  0.00000000000E+00 0.  1.
         21   -1    0    0  503  502 -0.00000000000E+00 -0.00000000000E+00 -0.35524605777E+02  0.35524605777E+02  0.00000000000E+00 0.  1.
         21    1    1    2  503  504 -0.50663373380E+02 -0.42861067668E+02  0.21326287127E+03  0.22334927980E+03  0.00000000000E+00 0. -1.
         21    1    1    2  504  501 -0.11074098587E+03 -0.14021457981E+02  0.53189790829E+03  0.54348463831E+03  0.00000000000E+00 0.  1.
         21    1    1    2  505  506  0.10091824989E+03  0.22392354774E+02  0.14362831127E+03  0.17696045465E+03  0.00000000000E+00 0.  1.
         21    1    1    2  506  502  0.60486109363E+02  0.34490170874E+02  0.14306761942E+03  0.15911154905E+03  0.00000000000E+00 0.  1.
<scales pt_clust_3="45.50237" pt_clust_4="45.50237" pt_clust_5="175.35631" pt_clust_6="31.38992"></scales>
<clustering>
<clus scale="   31.390">  5  6 -1 -1</clus>
<clus scale="   45.502">  3  4 -1 -1</clus>
<clus scale="  175.356">  2  5  1 -1</clus>
<clus scale="  181.024">  1  3  2 -1</clus>
</clustering>
</event>
<event>
 6    0  0.2036847E+002  0.1538353E+03  0.7546771E-02  0.1195838E+00
         21   -1    0    0  503  501  0.00000000000E+00  0.00000000000E+00  0.10874538530E+04  0.10874538530E+04  0.00000000000E+00 0. -1.
         21   -1    0    0  505  502 -0.00000000000E+00 -0.00000000000E+00 -0.20166843262E+03  0.20166843262E+03  0.00000000000E+00 0.  1.
         21    1    1    2  503  504  0.56337905510E+01 -0.55308775859E+02  0.54731036906E+03  0.55012674936E+03  0.00000000000E+00 0. -1.
         21    1    1    2  504  506  0.55042279666E+02 -0.75179639630E+02  0.49774595767E+03  0.50639181386E+03  0.00000000000E+00 0. -1.
         21    1    1    2  505  501 -0.33467878887E+02  0.92600661316E+02 -0.15772143413E+03  0.18593287008E+03  0.00000000000E+00 0.  1.
         21    1    1    2  506  502 -0.27208191331E+02  0.37887754173E+02 -0.15494722316E+01  0.46670852317E+02  0.00000000000E+00 0. -1.
<scales pt_clust_3="44.90779" pt_clust_4="44.90779" pt_clust_5="142.42666" pt_clust_6="46.64512"></scales>
<clustering>
<clus scale="   44.908">  3  4 -1 -1</clus>
<clus scale="   46.645">  2  6  1 -1</clus>
<clus scale="  142.427">  2  5  1 -1</clus>
<clus scale="  153.835">  1  3  2 -1</clus>
</clustering>
</event>
<event>
 6    0  0.2036847E+002  0.6955942E+02  0.7546771E-02  0.1361598E+00
         21   -1    0    0  504  501  0.00000000000E+00  0.00000000000E+00  0.10633715166E+03  0.10633715166E+03  0.00000000000E+00 0. -1.
         21   -1    0    0  503  502 -0.00000000000E+00 -0.00000000000E+00 -0.41980619032E+03  0.41980619032E+03  0.00000000000E+00 0.  1.
         21    1    1    2  503  501 -0.66514575779E+02  0.23676866602E+01 -0.26178024201E+03  0.27010866302E+03  0.00000000000E+00 0.  1.
         21    1    1    2  504  505  0.61359242393E+02 -0.34137668208E+02  0.51958371797E+02  0.87349925114E+02  0.00000000000E+00 0. -1.
         21    1    1    2  505  506  0.66364475493E+02  0.25626213774E+02 -0.48812433800E+02  0.86276301111E+02  0.00000000000E+00 0. -1.
         21    1    1    2  506  502 -0.61209142107E+02  0.61437677736E+01 -0.54834734639E+02  0.82408452739E+02  0.00000000000E+00 0.  1.
<scales pt_clust_3="69.55942" pt_clust_4="14000.00000" pt_clust_5="60.81892" pt_clust_6="61.51670"></scales>
<clustering>
<clus scale="   61.517">  2  6  1 -1</clus>
<clus scale="   60.819">  2  5  1 -1</clus>
<clus scale="   69.559">  2  3  1 -1</clus>
<clus scale="   69.559">  1  3  2 -1</clus>
</clustering>
</event>
<event>
 6    0  0.2036847E+002  0.8451544E+02  0.7546771E-02  0.1316705E+00
         21   -1    0    0  504  501  0.00000000000E+00  0.00000000000E+00  0.88400710921E+03  0.88400710921E+03  0.00000000000E+00 0. -1.
         21   -1    0    0  505  502 -0.00000000000E+00 -0.00000000000E+00 -0.20140635214E+04  0.20140635214E+04  0.00000000000E+00 0. -1.
         21    1    1    2  503  501  0.35337329413E+02 -0.98642532138E+01  0.14520714877E+03  0.14977031213E+03  0.00000000000E+00 0. -1.
         21    1    1    2  504  506 -0.10311957528E+03  0.60052894853E+02  0.72925976277E+03  0.73895859058E+03  0.00000000000E+00 0. -1.
         21    1    1    2  505  503 -0.22325708043E+01  0.30884347621E+02 -0.35747488977E+03  0.35881349489E+03  0.00000000000E+00 0. -1.
         21    1    1    2  506  502  0.70014816676E+02 -0.81072989259E+02 -0.16470484340E+04  0.16505282330E+04  0.00000000000E+00 0. -1.
<scales pt_clust_3="36.67390" pt_clust_4="84.51544" pt_clust_5="30.96494" pt_clust_6="14000.00000"></scales>
<clustering>
<clus scale="   30.965">  2  5  1 -1</clus>
<clus scale="   36.674">  1  3  2 -1</clus>
<clus scale="   84.515">  1  4  2 -1</clus>
<clus scale="   36.674">  1  3  2 -1</clus>
</clustering>
</event>
<event>
 6    0  0.2036847E+002  0.1698843E+03  0.7546771E-02  0.1177969E+00
         21   -1    0    0  503  501  0.00000000000E+00  0.00000000000E+00  0.36240607715E+03  0.36240607715E+03  0.00000000000E+00 0.  1.
         21   -1    0    0  506  502 -0.00000000000E+00 -0.00000000000E+00 -0.16131026096E+03  0.16131026096E+03  0.00000000000E+00 0. -1.
         21    1    1    2  503  502 -0.18459208192E+02 -0.34120274413E+02  0.27307577847E+02  0.47440903248E+02  0.00000000000E+00 0. -1.
         21    1    1    2  504  501  0.37416767921E+02 -0.12608261198E+03  0.25231743901E+03  0.28453634143E+03  0.00000000000E+00 0.  1.
         21    1    1    2  505  504 -0.28078894119E+02  0.30452191381E+02 -0.34749252395E+01  0.41567239027E+02  0.00000000000E+00 0. -1.
         21    1    1    2  506  505  0.91213343895E+01  0.12975069501E+03 -0.75054275425E+02  0.15017185441E+03  0.00000000000E+00 0. -1.
<scales pt_clust_3="38.79350" pt_clust_4="155.84606" pt_clust_5="38.16014" pt_clust_6="38.16014"></scales>
<clustering>
<clus scale="   38.160">  5  6 -1 -1</clus>
<clus scale="   38.793">  1  3  2 -1</clus>
<clus scale="  155.846">  1  4  2 -1</clus>
<clus scale="   38.793">  1  3  2 -1</clus>
</clustering>
</event>
<event>
 6    0  0.2036847E+002  0.1535551E+03  0.7546771E-02  0.1196171E+00
         21   -1    0    0  505  501  0.00000000000E+00  0.00000000000E+00  0.31961030805E+03  0.31961030805E+03  0.00000000000E+00 0. -1.
         21   -1    0    0  506  502 -0.00000000000E+00 -0.00000000000E+00 -0.16756445938E+03  0.16756445938E+03  0.00000000000E+00 0. -1.
         21    1    1    2  503  502 -0.30193625773E+02 -0.12760717957E+03  0.46873244203E+02  0.13925641219E+03  0.00000000000E+00 0. -1.
         21    1    1    2  504  501  0.63111187169E+02  0.96180998908E+02  0.65203983249E+02  0.13223224239E+03  0.00000000000E+00 0. -1.
         21    1    1    2  505  503 -0.16905586068E+02 -0.73280586580E+02  0.72922243548E+02  0.10475445964E+03  0.00000000000E+00 0. -1.
         21    1    1    2  506  504 -0.16011975328E+02  0.10470676724E+03 -0.32953622330E+02  0.11093165321E+03  0.00000000000E+00 0. -1.
<scales pt_clust_3="38.73475" pt_clust_4="144.78626" pt_clust_5="38.73475" pt_clust_6="105.92398"></scales>
<clustering>
<clus scale="   38.735">  3  5 -1 -1</clus>
<clus scale="  105.924">  2  6  1 -1</clus>
<clus scale="  144.786">  1  4  2 -1</clus>
<clus scale="  144.786">  1  3  2 -1</clus>
</clustering>
</event>
<event>
 6    0  0.2036847E+002  0.1176127E+03  0.7546771E-02  0.1247088E+00
         21   -1    0    0  504  501  0.00000000000E+00  0.00000000000E+00  0.78782425731E+03  0.78782425731E+03  0.00000000000E+00 0.  1.
         21   -1    0    0  503  502 -0.00000000000E+00 -0.00000000000E+00 -0.21290334202E+03  0.21290334202E+03  0.00000000000E+00 0.  1.
         21    1    1    2  503  506  0.72317589701E+02  0.66540863071E+02 -0.13351855188E+03  0.16578517405E+03  0.00000000000E+00 0. -1.
         21    1    1    2  504  505 -0.60219346743E+02 -0.21129896299E+02  0.45019736802E+02  0.78100057244E+02  0.00000000000E+00 0.  1.
         21    1    1    2  505  502 -0.78581503215E+02 -0.63241766553E+02  0.11754184464E+02  0.10155163483E+03  0.00000000000E+00 0.  1.
         21    1    1    2  506  501  0.66483260257E+02  0.17830799782E+02  0.65166554590E+03  0.65529073321E+03  0.00000000000E+00 0.  1.
<scales pt_clust_3="105.66717" pt_clust_4="41.07930" pt_clust_5="41.07930" pt_clust_6="68.83285"></scales>
<clustering>
<clus scale="   41.079">  4  5 -1 -1</clus>
<clus scale="   68.833">  1  6  2 -1</clus>
<clus scale="  105.667">  2  3  1 -1</clus>
<clus scale="   68.833">  1  3  2 -1</clus>
</clustering>
</event>
<event>
 6    0  0.2036847E+002  0.1987217E+03  0.7546771E-02  0.1150822E+00
         21   -1    0    0  504  501  0.00000000000E+00  0.00000000000E+00  0.83931994782E+02  0.83931994782E+02  0.00000000000E+00 0. -1.
         21   -1    0    0  505  502 -0.00000000000E+00 -0.00000000000E+00 -0.56537131895E+03  0.56537131895E+03  0.00000000000E+00 0.  1.
         21    1    1    2  503  502  0.14664239197E+01 -0.40357019143E+02 -0.52652995635E+02  0.66356441606E+02  0.00000000000E+00 0. -1.
         21    1    1    2  504  506 -0.46325809074E+02 -0.39718868460E+01 -0.97856383936E+02  0.10834079725E+03  0.00000000000E+00 0. -1.
         21    1    1    2  505  501  0.15769931707E+03  0.12300514661E+03 -0.16658268324E+03  0.26028663249E+03  0.00000000000E+00 0. -1.
         21    1    1    2  506  503 -0.11283993191E+03 -0.78676240619E+02 -0.16434726135E+03  0.21431944239E+03  0.00000000000E+00 0.  1.
<scales pt_clust_3="40.38365" pt_clust_4="32.85922" pt_clust_5="190.51479" pt_clust_6="32.85922"></scales>
<clustering>
<clus scale="   32.859">  4  6 -1 -1</clus>
<clus scale="   40.384">  2  3  1 -1</clus>
<clus scale="  190.515">  1  5  2 -1</clus>
<clus scale="  190.515">  1  3  2 -1</clus>
</clustering>
</event>
<event>
 6    0  0.2036847E+002  0.2247286E+03  0.7546771E-02  0.1130406E+00
         21   -1    0    0  505  501  0.00000000000E+00  0.00000000000E+00  0.50602994723E+03  0.50602994723E+03  0.00000000000E+00 0.  1.
         21   -1    0    0  503  502 -0.00000000000E+00 -0.00000000000E+00 -0.95261039525E+03  0.95261039525E+03  0.00000000000E+00 0.  1.
         21    1    1    2  503  501  0.22745315232E+03  0.66820466651E+02 -0.84238121188E+03  0.87510343240E+03  0.00000000000E+00 0.  1.
         21    1    1    2  504  506 -0.14330897244E+03 -0.65226100429E+02  0.28574528853E+03  0.32625492437E+03  0.00000000000E+00 0.  1.
         21    1    1    2  505  504 -0.43220747580E+02 -0.48522114728E+02  0.16304785627E+03  0.17551932108E+03  0.00000000000E+00 0.  1.
         21    1    1    2  506  502 -0.40923432303E+02  0.46927748506E+02 -0.52992380925E+02  0.81762664630E+02  0.00000000000E+00 0. -1.
<scales pt_clust_3="218.79865" pt_clust_4="32.94582" pt_clust_5="32.94582" pt_clust_6="62.26509"></scales>
<clustering>
<clus scale="   32.946">  4  5 -1 -1</clus>
<clus scale="   62.265">  2  6  1 -1</clus>
<clus scale="  218.799">  2  3  1 -1</clus>
<clus scale="  224.729">  1  3  2 -1</clus>
</clustering>
</event>
<event>
 6    0  0.2036847E+002  0.1419456E+03  0.7546771E-02  0.1210735E+00
         21   -1    0    0  505  501  0.00000000000E+00  0.00000000000E+00  0.17417336192E+03  0.17417336192E+03  0.00000000000E+00 0.  1.
         21   -1    0    0  503  502 -0.00000000000E+00 -0.00000000000E+00 -0.35856833576E+03  0.35856833576E+03  0.00000000000E+00 0.  1.
         21    1    1    2  503  506 -0.41577537334E+02  0.98214943223E+01 -0.16752998577E+02  0.45889174353E+02  0.00000000000E+00 0.  1.
         21    1    1    2  504  502  0.73117850407E+02  0.19586030313E+02 -0.30026702872E+02  0.81433626451E+02  0.00000000000E+00 0. -1.
         21    1    1    2  505  504  0.10918841866E+03  0.18156048380E+02 -0.21209757650E+03  0.23924283651E+03  0.00000000000E+00 0.  1.
         21    1    1    2  506  501 -0.14072873174E+03 -0.47563573015E+02  0.74482304105E+02  0.16617606037E+03  0.00000000000E+00 0.  1.
<scales pt_clust_3="42.72181" pt_clust_4="69.37464" pt_clust_5="14000.00000" pt_clust_6="141.94563"></scales>
<clustering>
<clus scale="   42.722">  2  3  1 -1</clus>
<clus scale="   69.375">  2  4  1 -1</clus>
<clus scale="  141.946">  1  6  2 -1</clus>
<clus scale="  141.946">  1  3  2 -1</clus>
</clustering>
</event>
<event>
 6    0  0.2036847E+002  0.1176530E+03  0.7546771E-02  0.1247020E+00
         21   -1    0    0  505  501  0.00000000000E+00  0.00000000000E+00  0.39243092779E+03  0.39243092779E+03  0.00000000000E+00 0. -1.
         21   -1    0    0  506  502 -0.00000000000E+00 -0.00000000000E+00 -0.64078418680E+02  0.64078418680E+02  0.00000000000E+00 0. -1.
         21    1    1    2  503  504  0.30265718867E+02 -0.60080798373E+02  0.35579629402E+02  0.76102733854E+02  0.00000000000E+00 0. -1.
         21    1    1    2  504  501 -0.34690059945E+02 -0.53820726341E+01  0.66005049636E+02  0.74759839100E+02  0.00000000000E+00 0. -1.
         21    1    1    2  505  502 -0.76967692288E+01  0.10902859838E+03  0.23546609912E+03  0.25959730229E+03  0.00000000000E+00 0. -1.
         21    1    1    2  506  503  0.12121110306E+02 -0.43565727372E+02 -0.86982690411E+01  0.46049471233E+02  0.00000000000E+00 0. -1.
<scales pt_clust_3="33.39715" pt_clust_4="35.10508" pt_clust_5="110.37625" pt_clust_6="33.39715"></scales>
<clustering>
<clus scale="   33.397">  3  6 -1 -1</clus>
<clus scale="   35.105">  1  4  2 -1</clus>
<clus scale="  110.376">  1  5  2 -1</clus>
<clus scale="   35.105">  1  3  2 -1</clus>
</clustering>
</event>
<event>
 6    0  0.2036847E+002  0.1258086E+03  0.7546771E-02  0.1233811E+00
         21   -1    0    0  503  501  0.00000000000E+00  0.00000000000E+00  0.36968529295E+03  0.36968529295E+03  0.00000000000E+00 0. -1.
         21   -1    0    0  506  502 -0.00000000000E+00 -0.00000000000E+00 -0.39892681397E+03  0.39892681397E+03  0.00000000000E+00 0.  1.
         21    1    1    2  503  504  0.33119614838E+02 -0.22178471098E+01  0.36654467329E+02  0.49450760439E+02  0.00000000000E+00 0.  1.
         21    1    1    2  504  502  0.18342499181E+01 -0.92207600251E+02  0.49007644693E+01  0.92355960875E+02  0.00000000000E+00 0.  1.
         21    1    1    2  505  501 -0.27246869348E+02 -0.40241296004E+02  0.26265059520E+03  0.26710875865E+03  0.00000000000E+00 0. -1.
         21    1    1    2  506  505 -0.77069954080E+01  0.13466674336E+03 -0.33344734801E+03  0.35969662696E+03  0.00000000000E+00 0.  1.
<scales pt_clust_3="33.19379" pt_clust_4="14000.00000" pt_clust_5="42.04164" pt_clust_6="125.80862"></scales>
<clustering>
<clus scale="   33.194">  1  3  2 -1</clus>
<clus scale="   42.042">  1  5  2 -1</clus>
<clus scale="  125.809">  2  6  1 -1</clus>
<clus scale="   33.194">  1  3  2 -1</clus>
</clustering>
</event>
<event>
 6    0  0.2036847E+002  0.7969064E+02  0.7546771E-02  0.1329932E+00
         21   -1    0    0  504  501  0.00000000000E+00  0.00000000000E+00  0.88358491865E+03  0.88358491865E+03  0.00000000000E+00 0.  1.
         21   -1    0    0  506  502 -0.00000000000E+00 -0.00000000000E+00 -0.38023963893E+02  0.38023963893E+02  0.00000000000E+00 0.  1.
         21    1    1    2  503  505  0.40592182989E+02 -0.10882379639E+03  0.37581879833E+03  0.39335748773E+03  0.00000000000E+00 0.  1.
         21    1    1    2  504  502 -0.64356500850E+01  0.71389701888E+02  0.22854999895E+03  0.23952663557E+03  0.00000000000E+00 0.  1.
         21    1    1    2  505  501 -0.44029815919E+02 -0.36785663101E+02  0.18884107281E+03  0.19736453703E+03  0.00000000000E+00 0.  1.
         21    1    1    2  506  503  0.98732830157E+01  0.74219757598E+02  0.52351084679E+02  0.91360222211E+02  0.00000000000E+00 0.  1.
<scales pt_clust_3="79.69064" pt_clust_4="62.67329" pt_clust_5="57.37429" pt_clust_6="14000.00000"></scales>
<clustering>
<clus scale="   57.374">  1  5  2 -1</clus>
<clus scale="   62.673">  1  4  2 -1</clus>
<clus scale="   79.691">  1  3  2 -1</clus>
<clus scale="   57.374">  1  3  2 -1</clus>
</clustering>
</event>
<event>
 6    0  0.2036847E+002  0.6907438E+02  0.7546771E-02  0.1363269E+00
         21   -1    0    0  503  501  0.00000000000E+00  0.00000000000E+00  0.67796849001E+02  0.67796849001E+02  0.00000000000E+00 0. -1.
         21   -1    0    0  506  502 -0.00000000000E+00 -0.00000000000E+00 -0.50072097064E+03  0.50072097064E+03  0.00000000000E+00 0. -1.
         21    1    1    2  503  504  0.30525000815E+02  0.58466424636E+02  0.86917236865E+01  0.66525518000E+02  0.00000000000E+00 0. -1.
         21    1    1    2  504  502  0.75084342017E+01 -0.10679955496E+03 -0.21631388225E+03  0.24135910420E+03  0.00000000000E+00 0. -1.
         21    1    1    2  505  501 -0.71767812368E+02  0.26628110303E+01 -0.15017520459E+03  0.16646411484E+03  0.00000000000E+00 0. -1.
         21    1    1    2  506  505  0.33734377352E+02  0.45670319289E+02 -0.75126758485E+02  0.94169082611E+02  0.00000000000E+00 0. -1.
<scales pt_clust_3="69.07438" pt_clust_4="14000.00000" pt_clust_5="62.24599" pt_clust_6="56.77840"></scales>
<clustering>
<clus scale="   56.778">  2  6  1 -1</clus>
<clus scale="   62.246">  2  5  1 -1</clus>
<clus scale="   69.074">  1  3  2 -1</clus>
<clus scale="   69.074">  1  3  2 -1</clus>
</clustering>
</event>
<event>
 6    0  0.2036847E+002  0.2553059E+03  0.7546771E-02  0.1109997E+00
         21   -1    0    0  504  501  0.00000000000E+00  0.00000000000E+00  0.44954244880E+03  0.44954244880E+03  0.00000000000E+00 0.  1.
         21   -1    0    0  503  502 -0.00000000000E+00 -0.00000000000E+00 -0.38942453366E+03  0.38942453366E+03  0.00000000000E+00 0.  1.
         21    1    1    2  503  506 -0.14153508752E+03 -0.13867113114E+03  0.10420796766E+03  0.22387756506E+03  0.00000000000E+00 0.  1.
         21    1    1    2  504  505  0.13835973149E+03  0.76432235434E+02 -0.13299652818E+03  0.20657535772E+03  0.00000000000E+00 0.  1.
         21    1    1    2  505  502  0.82806489699E+02  0.80011091788E+02 -0.13073174386E+03  0.17421101687E+03  0.00000000000E+00 0.  1.
         21    1    1    2  506  501 -0.79631133667E+02 -0.17772196080E+02  0.21963821951E+03  0.23430304281E+03  0.00000000000E+00 0.  1.
<scales pt_clust_3="251.24584" pt_clust_4="38.70652" pt_clust_5="38.70652" pt_clust_6="81.59025"></scales>
<clustering>
<clus scale="   38.707">  4  5 -1 -1</clus>
<clus scale="   81.590">  1  6  2 -1</clus>
<clus scale="  251.246">  1  3  2 -1</clus>
<clus scale="   81.590">  1  3  2 -1</clus>
</clustering>
</event>
<event>
 6    0  0.2036847E+002  0.8661096E+02  0.7546771E-02  0.1311273E+00
         21   -1    0    0  504  501  0.00000000000E+00  0.00000000000E+00  0.34234920938E+03  0.34234920938E+03  0.00000000000E+00 0. -1.
         21   -1    0    0  506  502 -0.00000000000E+00 -0.00000000000E+00 -0.15819027385E+03  0.15819027385E+03  0.00000000000E+00 0. -1.
         21    1    1    2  503  501  0.47721725411E+02 -0.69130760235E+01  0.78019360535E+02  0.91717906183E+02  0.00000000000E+00 0. -1.
         21    1    1    2  504  502 -0.71361056342E+01 -0.67478167541E+02  0.18411638582E+03  0.19622199323E+03  0.00000000000E+00 0. -1.
         21    1    1    2  505  503 -0.41435614008E+02  0.12354984248E+03 -0.12774116429E+02  0.13093758718E+03  0.00000000000E+00 0. -1.
         21    1    1    2  506  505  0.84999423189E+00 -0.49158598919E+02 -0.65202694400E+02  0.81661996637E+02  0.00000000000E+00 0. -1.
<scales pt_clust_3="48.21985" pt_clust_4="86.61096" pt_clust_5="14000.00000" pt_clust_6="49.43665"></scales>
<clustering>
<clus scale="   48.220">  1  3  2 -1</clus>
<clus scale="   49.437">  2  6  1 -1</clus>
<clus scale="   86.611">  1  4  2 -1</clus>
<clus scale="   48.220">  1  3  2 -1</clus>
</clustering>
</event>
<event>
 6    0  0.2036847E+002  0.1751517E+03  0.7546771E-02  0.1172579E+00
         21   -1    0    0  506  501  0.00000000000E+00  0.00000000000E+00  0.13812709634E+03  0.13812709634E+03  0.00000000000E+00 0. -1.
         21   -1    0    0  504  502 -0.00000000000E+00 -0.00000000000E+00 -0.24457822124E+03  0.24457822124E+03  0.00000000000E+00 0. -1.
         21    1    1    2  503  501  0.23564690518E+02 -0.60897596155E+02  0.10820194747E+02  0.66188280466E+02  0.00000000000E+00 0. -1.
         21    1    1    2  504  503 -0.40497822947E+02 -0.10149750050E+03 -0.30126978250E+00  0.10927903292E+03  0.00000000000E+00 0. -1.
         21    1    1    2  505  502  0.71730040204E+01  0.11695930525E+03 -0.10909737834E+03  0.16010361967E+03  0.00000000000E+00 0. -1.
         21    1    1    2  506  505  0.97601284087E+01  0.45435791412E+02 -0.78726715124E+01  0.47134384525E+02  0.00000000000E+00 0.  1.
<scales pt_clust_3="49.00647" pt_clust_4="49.00647" pt_clust_5="171.07191" pt_clust_6="32.15270"></scales>
<clustering>
<clus scale="   32.153">  5  6 -1 -1</clus>
<clus scale="   49.006">  3  4 -1 -1</clus>
<clus scale="  171.072">  2  5  1 -1</clus>
<clus scale="  175.152">  1  3  2 -1</clus>
</clustering>
</event>
<event>
 6    0  0.2036847E+002  0.2363250E+03  0.7546771E-02  0.1122265E+00
         21   -1    0    0  505  501  0.00000000000E+00  0.00000000000E+00  0.16892404742E+04  0.16892404742E+04  0.00000000000E+00 0.  1.
         21   -1    0    0  503  502 -0.00000000000E+00 -0.00000000000E+00 -0.16338847588E+03  0.16338847588E+03  0.00000000000E+00 0.  1.
         21    1    1    2  503  506  0.12886217433E+02 -0.13168210283E+03 -0.69065874512E+02  0.14925255719E+03  0.00000000000E+00 0.  1.
         21    1    1    2  504  501  0.12096897735E+03  0.24794295835E+03  0.12011681017E+04  0.12324422959E+04  0.00000000000E+00 0.  1.
         21    1    1    2  505  502  0.47429852238E+02 -0.35860942101E+02  0.78152369126E+02  0.98200768081E+02  0.00000000000E+00 0.  1.
         21    1    1    2  506  504 -0.18128504702E+03 -0.80399913418E+02  0.31559740194E+03  0.37273332888E+03  0.00000000000E+00 0.  1.
<scales pt_clust_3="163.98077" pt_clust_4="236.32500" pt_clust_5="59.46090" pt_clust_6="14000.00000"></scales>
<clustering>
<clus scale="   59.461">  2  5  1 -1</clus>
<clus scale="  163.981">  2  3  1 -1</clus>
<clus scale="  236.325">  1  4  2 -1</clus>
<clus scale="  236.325">  1  3  2 -1</clus>
</clustering>
</event>
<event>
 6    0  0.2036847E+002  0.1994724E+03  0.7546771E-02  0.1150185E+00
         21   -1    0    0  506  501  0.00000000000E+00  0.00000000000E+00  0.57287279219E+02  0.57287279219E+02  0.00000000000E+00 0. -1.
         21   -1    0    0  504  502 -0.00000000000E+00 -0.00000000000E+00 -0.12138134316E+04  0.12138134316E+04  0.00000000000E+00 0.  1.
         21    1    1    2  503  501  0.13928035766E+03  0.37814418410E+02 -0.95653128834E+02  0.17314291590E+03  0.00000000000E+00 0. -1.
         21    1    1    2  504  503  0.44904863373E+02  0.25778741171E+02 -0.87304470925E+02  0.10150399447E+03  0.00000000000E+00 0. -1.
         21    1    1    2  505  502 -0.14756780301E+02 -0.37909579403E+02 -0.16719527632E+03  0.17207312167E+03  0.00000000000E+00 0. -1.
         21    1    1    2  506  505 -0.16942844073E+03 -0.25683580178E+02 -0.80637327632E+03  0.82438067880E+03  0.00000000000E+00 0.  1.
<scales pt_clust_3="37.83097" pt_clust_4="37.83097" pt_clust_5="40.68045" pt_clust_6="189.20913"></scales>
<clustering>
<clus scale="   37.831">  3  4 -1 -1</clus>
<clus scale="   40.680">  2  5  1 -1</clus>
<clus scale="  189.209">  2  6  1 -1</clus>
<clus scale="  199.472">  1  3  2 -1</clus>
</clustering>
</event>
<event>
 6    0  0.2036847E+002  0.1452446E+03  0.7546771E-02  0.1206441E+00
         21   -1    0    0  504  501  0.00000000000E+00  0.00000000000E+00  0.25293212351E+03  0.25293212351E+03  0.00000000000E+00 0. -1.
         21   -1    0    0  505  502 -0.00000000000E+00 -0.00000000000E+00 -0.72749380333E+03  0.72749380333E+03  0.00000000000E+00 0.  1.
         21    1    1    2  503  501 -0.92899202712E+01  0.39868048404E+02  0.19581102921E+02  0.45378227090E+02  0.00000000000E+00 0. -1.
         21    1    1    2  504  506 -0.12492357829E+03  0.14094445552E+02  0.18382755594E+03  0.22270411791E+03  0.00000000000E+00 0. -1.
         21    1    1    2  505  503 -0.27161720454E+02  0.23994443842E+02 -0.16602915202E+03  0.16993872930E+03  0.00000000000E+00 0.  1.
         21    1    1    2  506  502  0.16137521902E+03 -0.77956937798E+02 -0.51194118666E+03  0.54240485254E+03  0.00000000000E+00 0.  1.
<scales pt_clust_3="41.61973" pt_clust_4="145.24458" pt_clust_5="36.24214" pt_clust_6="14000.00000"></scales>
<clustering>
<clus scale="   36.242">  2  5  1 -1</clus>
<clus scale="   41.620">  1  3  2 -1</clus>
<clus scale="  145.245">  1  4  2 -1</clus>
<clus scale="   41.620">  1  3  2 -1</clus>
</clustering>
</event>
<event>
 6    0  0.2036847E+002  0.2271660E+03  0.7546771E-02  0.1128650E+00
         21   -1    0    0  505  501  0.00000000000E+00  0.00000000000E+00  0.78377007017E+03  0.78377007017E+03  0.00000000000E+00 0. -1.
         21   -1    0    0  506  502 -0.00000000000E+00 -0.00000000000E+00 -0.12074649121E+03  0.12074649121E+03  0.00000000000E+00 0. -1.
         21    1    1    2  503  504 -0.75772025201E+02 -0.10845696630E+03  0.28925940929E+03  0.31808068034E+03  0.00000000000E+00 0. -1.
         21    1    1    2  504  501 -0.86389366960E+02 -0.26548128436E+02  0.32693468578E+03  0.33919642482E+03  0.00000000000E+00 0. -1.
         21    1    1    2  505  502  0.17507846403E+03  0.10424521818E+03  0.20601732992E+02  0.20480225947E+03  0.00000000000E+00 0. -1.
         21    1    1    2  506  503 -0.12917071872E+02  0.30759876549E+02  0.26227750894E+02  0.42437196750E+02  0.00000000000E+00 0. -1.
<scales pt_clust_3="73.67587" pt_clust_4="73.67587" pt_clust_5="209.30618" pt_clust_6="33.36197"></scales>
<clustering>
<clus scale="   33.362">  2  6  1 -1</clus>
<clus scale="   73.676">  3  4 -1 -1</clus>
<clus scale="  209.306">  2  5  1 -1</clus>
<clus scale="  227.166">  1  3  2 -1</clus>
</clustering>
</event>
<event>
 6    0  0.2036847E+002  0.1907796E+03  0.7546771E-02  0.1157760E+00
         21   -1    0    0  504  501  0.00000000000E+00  0.00000000000E+00  0.50108230156E+02  0.50108230156E+02  0.00000000000E+00 0. -1.
         21   -1    0    0  503  502 -0.00000000000E+00 -0.00000000000E+00 -0.75158975714E+03  0.75158975714E+03  0.00000000000E+00 0. -1.
         21    1    1    2  503  506  0.35480301611E+02 -0.11192938587E+03 -0.26754344117E+03  0.29217551598E+03  0.00000000000E+00 0. -1.
         21    1    1    2  504  505  0.94704831599E+01  0.11625721031E+03 -0.19744873306E+03  0.22932821716E+03  0.00000000000E+00 0. -1.
         21    1    1    2  505  502 -0.28020999168E+02  0.64171505645E+02 -0.68358249126E+02  0.97857083314E+02  0.00000000000E+00 0. -1.
         21    1    1    2  506  501 -0.16929785603E+02 -0.68499330083E+02 -0.16813110364E+03  0.18233717085E+03  0.00000000000E+00 0. -1.
<scales pt_clust_3="188.01591" pt_clust_4="45.82631" pt_clust_5="45.82631" pt_clust_6="38.38084"></scales>
<clustering>
<clus scale="   38.381">  3  6 -1 -1</clus>
<clus scale="   45.826">  4  5 -1 -1</clus>
<clus scale="  188.016">  2  3  1 -1</clus>
<clus scale="  190.780">  1  3  2 -1</clus>
</clustering>
</event>
<event>
 6    0  0.2633997E+002  0.1087393E+03  0.7546771E-02  0.1262922E+00
         21   -1    0    0  505  501  0.00000000000E+00  0.00000000000E+00  0.13069781263E+04  0.13069781263E+04  0.00000000000E+00 0. -1.
         21   -1    0    0  504  502 -0.00000000000E+00 -0.00000000000E+00 -0.33650515742E+03  0.33650515742E+03  0.00000000000E+00 0. -1.
         21    1    1    2  503  501 -0.74512876512E+02  0.95340477777E+01  0.22744698336E+03  0.23953120272E+03  0.00000000000E+00 0. -1.
         21    1    1    2  504  503  0.20587115030E+02 -0.22368523394E+02  0.15468154745E+02  0.34109294266E+02  0.00000000000E+00 0. -1.
         21    1    1    2  505  506  0.13072794662E+03 -0.17969806698E+02  0.10391270671E+04  0.10474720863E+04  0.00000000000E+00 0. -1.
         21    1    1    2  506  502 -0.76802185142E+02  0.30804282314E+02 -0.31156923636E+03  0.32237070043E+03  0.00000000000E+00 0. -1.
<scales pt_clust_3="14000.00000" pt_clust_4="30.40033" pt_clust_5="108.73930" pt_clust_6="57.58681"></scales>
<clustering>
<clus scale="   30.400">  2  4  1 -1</clus>
<clus scale="   57.587">  2  6  1 -1</clus>
<clus scale="  108.739">  1  5  2 -1</clus>
<clus scale="  108.739">  1  3  2 -1</clus>
</clustering>
</event>
<event>
 6    0  0.2036847E+002  0.1794420E+03  0.7546771E-02  0.1168344E+00
         21   -1    0    0  503  501  0.00000000000E+00  0.00000000000E+00  0.23242211285E+04  0.23242211285E+04  0.00000000000E+00 0. -1.
         21   -1    0    0  506  502 -0.00000000000E+00 -0.00000000000E+00 -0.42356947912E+02  0.42356947912E+02  0.00000000000E+00 0.  1.
         21    1    1    2  503  504  0.49889488699E+02 -0.11650267359E+03  0.13720408454E+04  0.13778816769E+04  0.00000000000E+00 0. -1.
         21    1    1    2  504  502  0.41172536668E+02 -0.64422799727E+02  0.47783488216E+03  0.48391285322E+03  0.00000000000E+00 0.  1.
         21    1    1    2  505  501 -0.48232544386E+02  0.19418809018E+02  0.25941557532E+03  0.26457495951E+03  0.00000000000E+00 0.  1.
         21    1    1    2  506  505 -0.42829480981E+02  0.16150666429E+03  0.17257287770E+03  0.24020858680E+03  0.00000000000E+00 0.  1.
<scales pt_clust_3="44.02175" pt_clust_4="44.02175" pt_clust_5="51.99489" pt_clust_6="170.25599"></scales>
<clustering>
<clus scale="   44.022">  3  4 -1 -1</clus>
<clus scale="   51.995">  1  5  2 -1</clus>
<clus scale="  170.256">  2  6  1 -1</clus>
<clus scale="   51.995">  1  3  2 -1</clus>
</clustering>
</event>
<event>
 6    0  0.2036847E+002  0.1575082E+03  0.7546771E-02  0.1191539E+00
         21   -1    0    0  506  501  0.00000000000E+00  0.00000000000E+00  0.17522405936E+04  0.17522405936E+04  0.00000000000E+00 0.  1.
         21   -1    0    0  504  502 -0.00000000000E+00 -0.00000000000E+00 -0.10359926438E+03  0.10359926438E+03  0.00000000000E+00 0.  1.
         21    1    1    2  503  501  0.54242264685E+02  0.14691821585E+03  0.13525310504E+04  0.13615680033E+04  0.00000000000E+00 0.  1.
         21    1    1    2  504  503 -0.95150227919E+02  0.61978371022E+02  0.99956647346E+02  0.15128190803E+03  0.00000000000E+00 0.  1.
         21    1    1    2  505  502  0.84232718498E+02 -0.44850900870E+02  0.12912030200E+03  0.16055779820E+03  0.00000000000E+00 0.  1.
         21    1    1    2  506  505 -0.43324755263E+02 -0.16404568601E+03  0.67033329490E+02  0.18243214842E+03  0.00000000000E+00 0.  1.
<scales pt_clust_3="157.50821" pt_clust_4="85.83161" pt_clust_5="95.42932" pt_clust_6="14000.00000"></scales>
<clustering>
<clus scale="   95.429">  2  5  1 -1</clus>
<clus scale="   85.832">  2  4  1 -1</clus>
<clus scale="  157.508">  1  3  2 -1</clus>
<clus scale="  157.508">  1  3  2 -1</clus>
</clustering>
</event>
<event>
 6    0  0.2036847E+002  0.2117997E+03  0.7546771E-02  0.1140149E+00
         21   -1    0    0  503  501  0.00000000000E+00  0.00000000000E+00  0.75482914486E+03  0.75482914486E+03  0.00000000000E+00 0.  1.
         21   -1    0    0  505  502 -0.00000000000E+00 -0.00000000000E+00 -0.85695595256E+02  0.85695595256E+02  0.00000000000E+00 0.  1.
         21    1    1    2  503  506 -0.14047033221E+02 -0.39932347896E+02  0.54020972415E+02  0.68630729352E+02  0.00000000000E+00 0.  1.
         21    1    1    2  504  502  0.15553938823E+03  0.11224009355E+03  0.11315164349E+03  0.22269628267E+03  0.00000000000E+00 0.  1.
         21    1    1    2  505  501  0.12349020554E+02  0.33420437877E+02  0.67327702491E+02  0.76173771728E+02  0.00000000000E+00 0.  1.
         21    1    1    2  506  504 -0.15384137556E+03 -0.10572818353E+03  0.43463323120E+03  0.47302395636E+03  0.00000000000E+00 0.  1.
<scales pt_clust_3="34.35058" pt_clust_4="199.13748" pt_clust_5="35.62898" pt_clust_6="34.35058"></scales>
<clustering>
<clus scale="   34.351">  3  6 -1 -1</clus>
<clus scale="   35.629">  1  5  2 -1</clus>
<clus scale="  199.137">  2  4  1 -1</clus>
<clus scale="   35.629">  1  3  2 -1</clus>
</clustering>
</event>
<event>
 6    0  0.2036847E+002  0.1435857E+03  0.7546771E-02  0.1208584E+00
         21   -1    0    0  504  501  0.00000000000E+00  0.00000000000E+00  0.23986354608E+04  0.23986354608E+04  0.00000000000E+00 0.  1.
         21   -1    0    0  503  502 -0.00000000000E+00 -0.00000000000E+00 -0.35984361198E+02  0.35984361198E+02  0.00000000000E+00 0. -1.
         21    1    1    2  503  501  0.28621529641E+02 -0.33285752457E+02  0.30698870020E+03  0.31011158528E+03  0.00000000000E+00 0.  1.
         21    1    1    2  504  506 -0.10140485892E+02 -0.10549520790E+03  0.19263043856E+04  0.19292176275E+04  0.00000000000E+00 0.  1.
         21    1    1    2  505  502 -0.29288940426E+02  0.83004308256E+02  0.64847311507E+02  0.10932854627E+03  0.00000000000E+00 0. -1.
         21    1    1    2  506  505  0.10807896677E+02  0.55776652101E+02  0.64510702250E+02  0.85962062882E+02  0.00000000000E+00 0. -1.
<scales pt_clust_3="43.89913" pt_clust_4="137.16282" pt_clust_5="34.11628" pt_clust_6="34.11628"></scales>
<clustering>
<clus scale="   34.116">  5  6 -1 -1</clus>
<clus scale="   43.899">  1  3  2 -1</clus>
<clus scale="  137.163">  1  4  2 -1</clus>
<clus scale="   43.899">  1  3  2 -1</clus>
</clustering>
</event>
<event>
 6    0  0.2036847E+002  0.1496553E+03  0.7546771E-02  0.1200897E+00
         21   -1    0    0  505  501  0.00000000000E+00  0.00000000000E+00  0.20137997511E+03  0.20137997511E+03  0.00000000000E+00 0. -1.
         21   -1    0    0  504  502 -0.00000000000E+00 -0.00000000000E+00 -0.46643061493E+03  0.46643061493E+03  0.00000000000E+00 0.  1.
         21    1    1    2  503  501  0.17125782902E+02  0.10630578514E+03  0.15798872117E+03  0.19119269968E+03  0.00000000000E+00 0. -1.
         21    1    1    2  504  506  0.11072099736E+01 -0.10532896866E+03 -0.31262223484E+03  0.32989101120E+03  0.00000000000E+00 0.  1.
         21    1    1    2  505  502  0.12621528275E+02  0.32405040713E+02 -0.95094701000E+01  0.36053011819E+02  0.00000000000E+00 0.  1.
         21    1    1    2  506  503 -0.30854521151E+02 -0.33381857191E+02 -0.10090765605E+03  0.11067386735E+03  0.00000000000E+00 0.  1.
<scales pt_clust_3="139.39823" pt_clust_4="35.68970" pt_clust_5="34.77628" pt_clust_6="35.68970"></scales>
<clustering>
<clus scale="   34.776">  1  5  2 -1</clus>
<clus scale="   35.690">  4  6 -1 -1</clus>
<clus scale="  139.398">  1  3  2 -1</clus>
<clus scale="   34.776">  1  3  2 -1</clus>
</clustering>
</event>
<event>
 6    0  0.2036847E+002  0.1041347E+03  0.7546771E-02  0.1271834E+00
         21   -1    0    0  506  501  0.00000000000E+00  0.00000000000E+00  0.32151797828E+03  0.32151797828E+03  0.00000000000E+00 0.  1.
         21   -1    0    0  504  502 -0.00000000000E+00 -0.00000000000E+00 -0.23563825209E+03  0.23563825209E+03  0.00000000000E+00 0. -1.
         21    1    1    2  503  501  0.57852798512E+01  0.42265346049E+02  0.88179277505E+01  0.43561276260E+02  0.00000000000E+00 0.  1.
         21    1    1    2  504  503  0.21688911159E+02 -0.41907503080E+02 -0.77879238040E+02  0.91059449808E+02  0.00000000000E+00 0. -1.
         21    1    1    2  505  502  0.85067597646E+02  0.17648654725E+02 -0.10643486898E+03  0.13739123887E+03  0.00000000000E+00 0. -1.
         21    1    1    2  506  505 -0.11254178866E+03 -0.18006497693E+02  0.26137590546E+03  0.28514426543E+03  0.00000000000E+00 0.  1.
<scales pt_clust_3="42.65945" pt_clust_4="46.41234" pt_clust_5="104.13469" pt_clust_6="14000.00000"></scales>
<clustering>
<clus scale="   42.659">  1  3  2 -1</clus>
<clus scale="   46.412">  2  4  1 -1</clus>
<clus scale="  104.135">  2  5  1 -1</clus>
<clus scale="   42.659">  1  3  2 -1</clus>
</clustering>
</event>
<event>
 6    0  0.2036847E+002  0.1403557E+03  0.7546771E-02  0.1212851E+00
         21   -1    0    0  504  501  0.00000000000E+00  0.00000000000E+00  0.23735786798E+03  0.23735786798E+03  0.00000000000E+00 0. -1.
         21   -1    0    0  506  502 -0.00000000000E+00 -0.00000000000E+00 -0.19974579467E+03  0.19974579467E+03  0.00000000000E+00 0. -1.
         21    1    1    2  503  502 -0.39776954393E+02  0.31996448990E+02  0.46972139799E+02  0.69371181092E+02  0.00000000000E+00 0.  1.
         21    1    1    2  504  503 -0.63124387749E+02  0.40290268815E+02  0.14247880490E+03  0.16096025576E+03  0.00000000000E+00 0. -1.
         21    1    1    2  505  501  0.42557276986E+02 -0.34703643287E+01 -0.22327644152E+02  0.48183907546E+02  0.00000000000E+00 0. -1.
         21    1    1    2  506  505  0.60344065156E+02 -0.68816353476E+02 -0.12951122724E+03  0.15858831825E+03  0.00000000000E+00 0. -1.
<scales pt_clust_3="30.30060" pt_clust_4="130.99966" pt_clust_5="42.57604" pt_clust_6="42.57604"></scales>
<clustering>
<clus scale="   30.301">  3  4 -1 -1</clus>
<clus scale="   42.576">  5  6 -1 -1</clus>
<clus scale="  131.000">  1  3  2 -1</clus>
<clus scale="  131.000">  1  3  2 -1</clus>
</clustering>
</event>
<event>
 6    0  0.2036847E+002  0.7885631E+02  0.7546771E-02  0.1332329E+00
         21   -1    0    0  505  501  0.00000000000E+00  0.00000000000E+00  0.46046732192E+03  0.46046732192E+03  0.00000000000E+00 0.  1.
         21   -1    0    0  504  502 -0.00000000000E+00 -0.00000000000E+00 -0.72414962534E+02  0.72414962534E+02  0.00000000000E+00 0. -1.
         21    1    1    2  503  501  0.86959803353E+02 -0.35567400170E+02  0.29463945549E+03  0.30925629514E+03  0.00000000000E+00 0.  1.
         21    1    1    2  504  503  0.14854722835E+02  0.42669511442E+02 -0.71162516515E+01  0.45738288499E+02  0.00000000000E+00 0. -1.
         21    1    1    2  505  506 -0.34859509815E+02 -0.28851317028E+02  0.97424631330E+02  0.10742040173E+03  0.00000000000E+00 0.  1.
         21    1    1    2  506  502 -0.66955016373E+02  0.21749205755E+02  0.31045242155E+01  0.70467299077E+02  0.00000000000E+00 0. -1.
<scales pt_clust_3="78.85631" pt_clust_4="45.18130" pt_clust_5="41.12855" pt_clust_6="14000.00000"></scales>
<clustering>
<clus scale="   45.181">  2  4  1 -1</clus>
<clus scale="   41.129">  1  5  2 -1</clus>
<clus scale="   78.856">  1  3  2 -1</clus>
<clus scale="   41.129">  1  3  2 -1</clus>
</clustering>
</event>
<event>
 6    0  0.2036847E+002  0.1099424E+03  0.7546771E-02  0.1260677E+00
         21   -1    0    0  505  501  0.00000000000E+00  0.00000000000E+00  0.35854319081E+03  0.35854319081E+03  0.00000000000E+00 0. -1.
         21   -1    0    0  503  502 -0.00000000000E+00 -0.00000000000E+00 -0.72864564113E+03  0.72864564113E+03  0.00000000000E+00 0.  1.
         21    1    1    2  503  506  0.26851141855E+02 -0.23740913813E+02 -0.38454186861E+03  0.38620857515E+03  0.00000000000E+00 0.  1.
         21    1    1    2  504  501  0.47771221219E+02  0.48960377695E+01  0.48007471991E+02  0.67902710767E+02  0.00000000000E+00 0. -1.
         21    1    1    2  505  502 -0.10893820047E+03  0.75391950101E+02  0.28151288674E+03  0.31112856356E+03  0.00000000000E+00 0. -1.
         21    1    1    2  506  504  0.34315837398E+02 -0.56547074058E+02 -0.31508094044E+03  0.32194898246E+03  0.00000000000E+00 0.  1.
<scales pt_clust_3="31.46826" pt_clust_4="48.02146" pt_clust_5="101.29082" pt_clust_6="31.46826"></scales>
<clustering>
<clus scale="   31.468">  3  6 -1 -1</clus>
<clus scale="   48.021">  1  4  2 -1</clus>
<clus scale="  101.291">  1  5  2 -1</clus>
<clus scale="   48.021">  1  3  2 -1</clus>
</clustering>
</event>
<event>
 6    0  0.2036847E+002  0.6974073E+02  0.7546771E-02  0.1360977E+00
         21   -1    0    0  504  501  0.00000000000E+00  0.00000000000E+00  0.22259297734E+03  0.22259297734E+03  0.00000000000E+00 0.  1.
         21   -1    0    0  503  502 -0.00000000000E+00 -0.00000000000E+00 -0.29948864108E+03  0.29948864108E+03  0.00000000000E+00 0.  1.
         21    1    1    2  503  506 -0.14350552105E+02  0.34288566138E+02 -0.41276775908E+02  0.55546524130E+02  0.00000000000E+00 0.  1.
         21    1    1    2  504  505 -0.11277134025E+02  0.57502217168E+02  0.10006122628E+03  0.11595657694E+03  0.00000000000E+00 0.  1.
         21    1    1    2  505  502  0.84055030193E+02 -0.35765339444E+02 -0.21724180157E+03  0.23566588203E+03  0.00000000000E+00 0.  1.
         21    1    1    2  506  501 -0.58427344063E+02 -0.56025443862E+02  0.81561687457E+02  0.11491263531E+03  0.00000000000E+00 0.  1.
<scales pt_clust_3="37.17047" pt_clust_4="59.75058" pt_clust_5="69.74073" pt_clust_6="14000.00000"></scales>
<clustering>
<clus scale="   37.170">  2  3  1 -1</clus>
<clus scale="   59.751">  1  4  2 -1</clus>
<clus scale="   69.741">  2  5  1 -1</clus>
<clus scale="   59.751">  1  3  2 -1</clus>
</clustering>
</event>
<event>
 6    0  0.2036847E+002  0.9088714E+02  0.7546771E-02  0.1300717E+00
         21   -1    0    0  503  501  0.00000000000E+00  0.00000000000E+00  0.45038748413E+03  0.45038748413E+03  0.00000000000E+00 0.  1.
         21   -1    0    0  504  502 -0.00000000000E+00 -0.00000000000E+00 -0.89400980006E+03  0.89400980006E+03  0.00000000000E+00 0.  1.
         21    1    1    2  503  505 -0.14769659249E+02 -0.30418059825E+02  0.11592077696E+03  0.12075192640E+03  0.00000000000E+00 0. -1.
         21    1    1    2  504  506  0.47250859991E+02 -0.39014746150E+02 -0.73402976562E+03  0.73658298311E+03  0.00000000000E+00 0.  1.
         21    1    1    2  505  502 -0.31591051065E+02 -0.52750910624E+02 -0.13824838409E+03  0.15130521730E+03  0.00000000000E+00 0. -1.
         21    1    1    2  506  501 -0.89014967687E+00  0.12218371660E+03  0.31273505682E+03  0.33575715738E+03  0.00000000000E+00 0.  1.
<scales pt_clust_3="33.81422" pt_clust_4="61.30718" pt_clust_5="14000.00000" pt_clust_6="90.88714"></scales>
<clustering>
<clus scale="   33.814">  1  3  2 -1</clus>
<clus scale="   61.307">  2  4  1 -1</clus>
<clus scale="   90.887">  1  6  2 -1</clus>
<clus scale="   33.814">  1  3  2 -1</clus>
</clustering>
</event>
<event>
 6    0  0.2036847E+002  0.1026935E+03  0.7546771E-02  0.1274732E+00
         21   -1    0    0  506  501  0.00000000000E+00  0.00000000000E+00  0.66418072825E+03  0.66418072825E+03  0.00000000000E+00 0. -1.
         21   -1    0    0  504  502 -0.00000000000E+00 -0.00000000000E+00 -0.37365522625E+03  0.37365522625E+03  0.00000000000E+00 0. -1.
         21    1    1    2  503  501 -0.10018912753E+03  0.30148403080E+02  0.34313582169E+03  0.35873246244E+03  0.00000000000E+00 0. -1.
         21    1    1    2  504  503  0.81971315882E+01 -0.33081363073E+02 -0.33957755516E+03  0.34128358518E+03  0.00000000000E+00 0. -1.
         21    1    1    2  505  502 -0.14405272103E+02 -0.38730049330E+02  0.17028330435E+02  0.44693317429E+02  0.00000000000E+00 0.  1.
         21    1    1    2  506  505  0.10639726804E+03  0.41663009323E+02  0.26993890503E+03  0.29312658945E+03  0.00000000000E+00 0.  1.
<scales pt_clust_3="14000.00000" pt_clust_4="34.08181" pt_clust_5="53.64130" pt_clust_6="102.69351"></scales>
<clustering>
<clus scale="   34.082">  2  4  1 -1</clus>
<clus scale="   53.641">  2  5  1 -1</clus>
<clus scale="  102.694">  2  6  1 -1</clus>
<clus scale="  102.694">  1  3  2 -1</clus>
</clustering>
</event>
<event>
 6    0  0.2036847E+002  0.1589666E+03  0.7546771E-02  0.1189868E+00
         21   -1    0    0  505  501  0.00000000000E+00  0.00000000000E+00  0.43635072136E+03  0.43635072136E+03  0.00000000000E+00 0. -1.
         21   -1    0    0  503  502 -0.00000000000E+00 -0.00000000000E+00 -0.53872289937E+03  0.53872289937E+03  0.00000000000E+00 0. -1.
         21    1    1    2  503  506  0.51679793909E+02  0.85185711897E+02 -0.33152613874E+03  0.34617479296E+03  0.00000000000E+00 0. -1.
         21    1    1    2  504  501  0.53260466416E+02  0.31499654697E+02  0.59896627507E+02  0.86119170430E+02  0.00000000000E+00 0. -1.
         21    1    1    2  505  502 -0.16149205163E+03 -0.12110975794E+03  0.32188958814E+03  0.37994757949E+03  0.00000000000E+00 0. -1.
         21    1    1    2  506  504  0.56551791303E+02  0.44243913451E+01 -0.15263225491E+03  0.16283207785E+03  0.00000000000E+00 0. -1.
<scales pt_clust_3="53.00327" pt_clust_4="61.87815" pt_clust_5="142.60360" pt_clust_6="53.00327"></scales>
<clustering>
<clus scale="   53.003">  3  6 -1 -1</clus>
<clus scale="   61.878">  1  4  2 -1</clus>
<clus scale="  142.604">  1  5  2 -1</clus>
<clus scale="   61.878">  1  3  2 -1</clus>
</clustering>
</event>
<event>
 6    0  0.2036847E+002  0.1033786E+03  0.7546771E-02  0.1273347E+00
         21   -1    0    0  506  501  0.00000000000E+00  0.00000000000E+00  0.89797208114E+02  0.89797208114E+02  0.00000000000E+00 0.  1.
         21   -1    0    0  504  502 -0.00000000000E+00 -0.00000000000E+00 -0.38625135327E+03  0.38625135327E+03  0.00000000000E+00 0.  1.
         21    1    1    2  503  501  0.10118789613E+03  0.80187726013E+01 -0.45652289020E+02  0.11129879842E+03  0.00000000000E+00 0.  1.
         21    1    1    2  504  503 -0.39960288454E+02 -0.94144873393E+02 -0.22684797656E+03  0.24883746966E+03  0.00000000000E+00 0.  1.
         21    1    1    2  505  502 -0.83209514330E+01  0.43434428263E+02 -0.17726293215E+02  0.47644614201E+02  0.00000000000E+00 0.  1.
         21    1    1    2  506  505 -0.52906656243E+02  0.42691672530E+02 -0.62275863688E+01  0.68267679104E+02  0.00000000000E+00 0.  1.
<scales pt_clust_3="101.50513" pt_clust_4="94.82509" pt_clust_5="33.20927" pt_clust_6="33.20927"></scales>
<clustering>
<clus scale="   33.209">  5  6 -1 -1</clus>
<clus scale="  101.505">  1  3  2 -1</clus>
<clus scale="   94.825">  2  4  1 -1</clus>
<clus scale="  101.505">  1  3  2 -1</clus>
</clustering>
</event>
<event>
 6    0  0.2036847E+002  0.9500263E+02  0.7546771E-02  0.1291170E+00
         21   -1    0    0  504  501  0.00000000000E+00  0.00000000000E+00  0.10560076575E+04  0.10560076575E+04  0.00000000000E+00 0. -1.
         21   -1    0    0  503  502 -0.00000000000E+00 -0.00000000000E+00 -0.23792075119E+03  0.23792075119E+03  0.00000000000E+00 0. -1.
         21    1    1    2  503  506 -0.61846161414E+02 -0.30276794153E+02 -0.15973061835E+02  0.70687839479E+02  0.00000000000E+00 0. -1.
         21    1    1    2  504  505 -0.22880001170E+02  0.56200926206E+02  0.29059846061E+03  0.29686613796E+03  0.00000000000E+00 0. -1.
         21    1    1    2  505  502  0.44545412060E+02 -0.70727983555E+02 -0.18102581430E+03  0.19939179230E+03  0.00000000000E+00 0. -1.
         21    1    1    2  506  501  0.40180750523E+02  0.44803851502E+02  0.72448732184E+03  0.72698263895E+03  0.00000000000E+00 0. -1.
<scales pt_clust_3="64.26563" pt_clust_4="14000.00000" pt_clust_5="95.00263" pt_clust_6="60.18204"></scales>
<clustering>
<clus scale="   60.182">  1  6  2 -1</clus>
<clus scale="   64.266">  2  3  1 -1</clus>
<clus scale="   95.003">  2  5  1 -1</clus>
<clus scale="   60.182">  1  3  2 -1</clus>
</clustering>
</event>
<event>
 6    0  0.2036847E+002  0.1025796E+03  0.7546771E-02  0.1274963E+00
         21   -1    0    0  503  501  0.00000000000E+00  0.00000000000E+00  0.58041379806E+02  0.58041379806E+02  0.00000000000E+00 0. -1.
         21   -1    0    0  506  502 -0.00000000000E+00 -0.00000000000E+00 -0.41951473406E+03  0.41951473406E+03  0.00000000000E+00 0.  1.
         21    1    1    2  503  502 -0.89433544873E+01 -0.88718821424E+02 -0.18726968076E+03  0.20741491315E+03  0.00000000000E+00 0. -1.
         21    1    1    2  504  501  0.80894001194E+02 -0.14655199889E+01 -0.64604686361E+02  0.10353623848E+03  0.00000000000E+00 0. -1.
         21    1    1    2  505  504 -0.23483782123E+01  0.38316466775E+02 -0.38916350921E+02  0.54663963224E+02  0.00000000000E+00 0. -1.
         21    1    1    2  506  505 -0.69602268494E+02  0.51867874638E+02 -0.70682636211E+02  0.11194099902E+03  0.00000000000E+00 0.  1.
<scales pt_clust_3="89.93001" pt_clust_4="80.90728" pt_clust_5="32.81684" pt_clust_6="32.81684"></scales>
<clustering>
<clus scale="   32.817">  5  6 -1 -1</clus>
<clus scale="   80.907">  1  4  2 -1</clus>
<clus scale="   89.930">  2  3  1 -1</clus>
<clus scale="   80.907">  1  3  2 -1</clus>
</clustering>
</event>
<event>
 6    0  0.2036847E+002  0.9080765E+02  0.7546771E-02  0.1300908E+00
         21   -1    0    0  503  501  0.00000000000E+00  0.00000000000E+00  0.89470879003E+03  0.89470879003E+03  0.00000000000E+00 0.  1.
         21   -1    0    0  506  502 -0.00000000000E+00 -0.00000000000E+00 -0.63516004662E+02  0.63516004662E+02  0.00000000000E+00 0.  1.
         21    1    1    2  503  505 -0.24510339532E+02  0.50092273738E+02  0.45247923188E+03  0.45590289308E+03  0.00000000000E+00 0.  1.
         21    1    1    2  504  502  0.26734492873E+02 -0.30763798560E+02  0.44451389546E+01  0.40998825244E+02  0.00000000000E+00 0.  1.
         21    1    1    2  505  504  0.71788928400E+02  0.27049628262E+02 -0.28916387444E+00  0.76716466587E+02  0.00000000000E+00 0.  1.
         21    1    1    2  506  501 -0.74013081741E+02 -0.46378103440E+02  0.37455757840E+03  0.38460660978E+03  0.00000000000E+00 0.  1.
<scales pt_clust_3="54.27851" pt_clust_4="40.75714" pt_clust_5="90.80765" pt_clust_6="14000.00000"></scales>
<clustering>
<clus scale="   40.757">  2  4  1 -1</clus>
<clus scale="   54.279">  1  3  2 -1</clus>
<clus scale="   90.808">  2  5  1 -1</clus>
<clus scale="   54.279">  1  3  2 -1</clus>
</clustering>
</event>
<event>
 6    0  0.2036847E+002  0.2009887E+03  0.7546771E-02  0.1148908E+00
         21   -1    0    0  502  501  0.00000000000E+00  0.00000000000E+00  0.10903931502E+04  0.10903931502E+04  0.00000000000E+00 0. -1.
         21   -1    0    0  503  502 -0.00000000000E+00 -0.00000000000E+00 -0.12348247576E+03  0.12348247576E+03  0.00000000000E+00 0. -1.
         21    1    1    2  503  505 -0.96788197691E+02  0.37229219295E+02  0.25286411151E+02  0.10673974223E+03  0.00000000000E+00 0. -1.
         21    1    1    2  504  501  0.28048623523E+02 -0.10811494260E+03  0.36973347762E+03  0.38623621084E+03  0.00000000000E+00 0. -1.
         21    1    1    2  505  506  0.55274569880E+02  0.15675803569E+03  0.26128513002E+02  0.16825890473E+03  0.00000000000E+00 0. -1.
         21    1    1    2  506  504  0.13465004288E+02 -0.85872312379E+02  0.54576227270E+03  0.55264076820E+03  0.00000000000E+00 0. -1.
<scales pt_clust_3="103.70135" pt_clust_4="55.81433" pt_clust_5="190.77046" pt_clust_6="55.81433"></scales>
<clustering>
<clus scale="   55.814">  4  6 -1 -1</clus>
<clus scale="  103.701">  2  3  1 -1</clus>
<clus scale="  190.770">  2  5  1 -1</clus>
<clus scale="  200.989">  1  3  2 -1</clus>
</clustering>
</event>
<event>
 6    0  0.2036847E+002  0.1000279E+03  0.7546771E-02  0.1280237E+00
         21   -1    0    0  506  501  0.00000000000E+00  0.00000000000E+00  0.16948297556E+04  0.16948297556E+04  0.00000000000E+00 0. -1.
         21   -1    0    0  505  502 -0.00000000000E+00 -0.00000000000E+00 -0.28347332882E+03  0.28347332882E+03  0.00000000000E+00 0.  1.
         21    1    1    2  503  502  0.99428035010E+02  0.11027230929E+02 -0.78776165428E+02  0.12733113605E+03  0.00000000000E+00 0.  1.
         21    1    1    2  504  501  0.32889135855E+02  0.78561073277E+02  0.15443251079E+04  0.15466717739E+04  0.00000000000E+00 0. -1.
         21    1    1    2  505  504 -0.75022472477E+02 -0.10961120118E+03 -0.14400121026E+03  0.19590644542E+03  0.00000000000E+00 0.  1.
         21    1    1    2  506  503 -0.57294698388E+02  0.20022896971E+02  0.89808694582E+02  0.10839372901E+03  0.00000000000E+00 0.  1.
<scales pt_clust_3="99.20567" pt_clust_4="14000.00000" pt_clust_5="100.02788" pt_clust_6="60.69266"></scales>
<clustering>
<clus scale="   60.693">  1  6  2 -1</clus>
<clus scale="   99.206">  2  3  1 -1</clus>
<clus scale="  100.028">  2  5  1 -1</clus>
<clus scale="   60.693">  1  3  2 -1</clus>
</clustering>
</event>
<event>
 6    0  0.2036847E+002  0.1197392E+03  0.7546771E-02  0.1243528E+00
         21   -1    0    0  503  501  0.00000000000E+00  0.00000000000E+00  0.15313815413E+03  0.15313815413E+03  0.00000000000E+00 0.  1.
         21   -1    0    0  505  502 -0.00000000000E+00 -0.00000000000E+00 -0.17157778353E+03  0.17157778353E+03  0.00000000000E+00 0. -1.
         21    1    1    2  503  506 -0.45857849578E+02  0.24684986743E+02 -0.82575292505E+01  0.52730235423E+02  0.00000000000E+00 0.  1.
         21    1    1    2  504  501 -0.15959209254E+02 -0.59440707525E+02  0.17204274823E+02  0.63905251297E+02  0.00000000000E+00 0.  1.
         21    1    1    2  505  504  0.10629432740E+03 -0.13249110757E+02  0.39816758302E+02  0.11427771968E+03  0.00000000000E+00 0.  1.
         21    1    1    2  506  502 -0.44477268572E+02  0.48004831539E+02 -0.67203133274E+02  0.93802731264E+02  0.00000000000E+00 0. -1.
<scales pt_clust_3="43.09187" pt_clust_4="61.54587" pt_clust_5="109.56334" pt_clust_6="43.09187"></scales>
<clustering>
<clus scale="   43.092">  3  6 -1 -1</clus>
<clus scale="   61.546">  1  4  2 -1</clus>
<clus scale="  109.563">  1  5  2 -1</clus>
<clus scale="   61.546">  1  3  2 -1</clus>
</clustering>
</event>
<event>
 6    0  0.2036847E+002  0.1029695E+03  0.7546771E-02  0.1274173E+00
         21   -1    0    0  504  501  0.00000000000E+00  0.00000000000E+00  0.65308615115E+03  0.65308615115E+03  0.00000000000E+00 0. -1.
         21   -1    0    0  505  502 -0.00000000000E+00 -0.00000000000E+00 -0.52114820512E+03  0.52114820512E+03  0.00000000000E+00 0. -1.
         21    1    1    2  503  501 -0.71211254160E+02  0.70404032137E+02  0.39560621951E+03  0.40808338777E+03  0.00000000000E+00 0. -1.
         21    1    1    2  504  506  0.13326976690E+03  0.83170727380E+01  0.19856925431E+03  0.23929010265E+03  0.00000000000E+00 0. -1.
         21    1    1    2  505  503  0.63499984454E+02 -0.32699265562E+02 -0.33411058794E+03  0.34165973566E+03  0.00000000000E+00 0. -1.
         21    1    1    2  506  502 -0.12555849719E+03 -0.46021839313E+02 -0.12812693984E+03  0.18520113019E+03  0.00000000000E+00 0. -1.
<scales pt_clust_3="97.82166" pt_clust_4="14000.00000" pt_clust_5="71.42472" pt_clust_6="102.96946"></scales>
<clustering>
<clus scale="   71.425">  2  5  1 -1</clus>
<clus scale="   97.822">  1  3  2 -1</clus>
<clus scale="  102.969">  2  6  1 -1</clus>
<clus scale="   97.822">  1  3  2 -1</clus>
</clustering>
</event>
<event>
 6    0  0.2036847E+002  0.1202224E+03  0.7546771E-02  0.1242731E+00
         21   -1    0    0  503  501  0.00000000000E+00  0.00000000000E+00  0.50175298367E+03  0.50175298367E+03  0.00000000000E+00 0.  1.
         21   -1    0    0  505  502 -0.00000000000E+00 -0.00000000000E+00 -0.12605927639E+03  0.12605927639E+03  0.00000000000E+00 0.  1.
         21    1    1    2  503  502  0.22159646310E+02  0.25240864833E+02  0.18662024514E+03  0.18961874137E+03  0.00000000000E+00 0.  1.
         21    1    1    2  504  501 -0.97816662954E+02  0.59170124148E+02  0.26985507887E+03  0.29307160684E+03  0.00000000000E+00 0.  1.
         21    1    1    2  505  506  0.48946105927E+02 -0.34627086069E+02 -0.60279762088E+02  0.85020033477E+02  0.00000000000E+00 0.  1.
         21    1    1    2  506  504  0.26710910717E+02 -0.49783902912E+02 -0.20501854644E+02  0.60101878376E+02  0.00000000000E+00 0.  1.
<scales pt_clust_3="33.58796" pt_clust_4="112.99521" pt_clust_5="39.55218" pt_clust_6="39.55218"></scales>
<clustering>
<clus scale="   33.588">  1  3  2 -1</clus>
<clus scale="   39.552">  5  6 -1 -1</clus>
<clus scale="  112.995">  1  4  2 -1</clus>
<clus scale="   33.588">  1  3  2 -1</clus>
</clustering>
</event>
<event>
 6    0  0.2036847E+002  0.1462794E+03  0.7546771E-02  0.1205121E+00
         21   -1    0    0  505  501  0.00000000000E+00  0.00000000000E+00  0.57272390824E+03  0.57272390824E+03  0.00000000000E+00 0.  1.
         21   -1    0    0  504  502 -0.00000000000E+00 -0.00000000000E+00 -0.16736956740E+04  0.16736956740E+04  0.00000000000E+00 0.  1.
         21    1    1    2  503  506 -0.14048193557E+03 -0.18492916328E+03 -0.46934418284E+03  0.52365822023E+03  0.00000000000E+00 0.  1.
         21    1    1    2  504  503  0.27070262452E+02  0.94646145751E+02 -0.11563348679E+04  0.11605175650E+04  0.00000000000E+00 0.  1.
         21    1    1    2  505  502  0.58623286024E+02  0.85464292317E+02  0.48086911403E+03  0.49191049974E+03  0.00000000000E+00 0.  1.
         21    1    1    2  506  501  0.54788387096E+02  0.48187252097E+01  0.43838170924E+02  0.70333297258E+02  0.00000000000E+00 0. -1.
<scales pt_clust_3="146.27943" pt_clust_4="98.52143" pt_clust_5="14000.00000" pt_clust_6="54.99989"></scales>
<clustering>
<clus scale="   55.000">  1  6  2 -1</clus>
<clus scale="   98.521">  2  4  1 -1</clus>
<clus scale="  146.279">  2  3  1 -1</clus>
<clus scale="   55.000">  1  3  2 -1</clus>
</clustering>
</event>
<event>
 6    0  0.2036847E+002  0.9431934E+02  0.7546771E-02  0.1292716E+00
         21   -1    0    0  503  501  0.00000000000E+00  0.00000000000E+00  0.77643515741E+03  0.77643515741E+03  0.00000000000E+00 0.  1.
         21   -1    0    0  505  502 -0.00000000000E+00 -0.00000000000E+00 -0.71461296808E+03  0.71461296808E+03  0.00000000000E+00 0. -1.
         21    1    1    2  503  504 -0.24578022425E+02 -0.54758252480E+02  0.11266331569E+03  0.12765409553E+03  0.00000000000E+00 0.  1.
         21    1    1    2  504  502 -0.57810090127E+02 -0.34159929263E+02 -0.66122002418E+02  0.94239198276E+02  0.00000000000E+00 0. -1.
         21    1    1    2  505  506  0.12540871814E+03  0.10673458832E+03 -0.61524931341E+03  0.63690763583E+03  0.00000000000E+00 0. -1.
         21    1    1    2  506  501 -0.43020605587E+02 -0.17816406576E+02  0.63053018946E+03  0.63224719586E+03  0.00000000000E+00 0.  1.
<scales pt_clust_3="14000.00000" pt_clust_4="71.61957" pt_clust_5="94.31934" pt_clust_6="46.56390"></scales>
<clustering>
<clus scale="   46.564">  1  6  2 -1</clus>
<clus scale="   71.620">  2  4  1 -1</clus>
<clus scale="   94.319">  2  5  1 -1</clus>
<clus scale="   46.564">  1  3  2 -1</clus>
</clustering>
</event>
<event>
 6    0  0.2036847E+002  0.1941026E+03  0.7546771E-02  0.1154812E+00
         21   -1    0    0  504  501  0.00000000000E+00  0.00000000000E+00  0.29047897360E+03  0.29047897360E+03  0.00000000000E+00 0.  1.
         21   -1    0    0  506  502 -0.00000000000E+00 -0.00000000000E+00 -0.65207473296E+03  0.65207473296E+03  0.00000000000E+00 0. -1.
         21    1    1    2  503  505  0.29375037568E+02 -0.50275850222E+02 -0.19935122123E+03  0.20768115792E+03  0.00000000000E+00 0. -1.
         21    1    1    2  504  503 -0.83802921438E+02  0.12446133641E+02  0.42071749943E+02  0.94593171146E+02  0.00000000000E+00 0.  1.
         21    1    1    2  505  502  0.12168818681E+03 -0.69795412227E+02 -0.39051174102E+03  0.41494437489E+03  0.00000000000E+00 0. -1.
         21    1    1    2  506  501 -0.67260302937E+02  0.10762512881E+03  0.18619545295E+03  0.22533500261E+03  0.00000000000E+00 0.  1.
<scales pt_clust_3="32.12961" pt_clust_4="84.72211" pt_clust_5="32.12961" pt_clust_6="187.58674"></scales>
<clustering>
<clus scale="   32.130">  3  5 -1 -1</clus>
<clus scale="   84.722">  1  4  2 -1</clus>
<clus scale="  187.587">  1  6  2 -1</clus>
<clus scale="   84.722">  1  3  2 -1</clus>
</clustering>
</event>
<event>
 6    0  0.2036847E+002  0.1100100E+03  0.7546771E-02  0.1260551E+00
         21   -1    0    0  505  501  0.00000000000E+00  0.00000000000E+00  0.63881253836E+03  0.63881253836E+03  0.00000000000E+00 0. -1.
         21   -1    0    0  506  502 -0.00000000000E+00 -0.00000000000E+00 -0.16992029061E+03  0.16992029061E+03  0.00000000000E+00 0. -1.
         21    1    1    2  503  501 -0.92855571247E+02 -0.62715458306E+02  0.37775994390E+03  0.39402786836E+03  0.00000000000E+00 0. -1.
         21    1    1    2  504  502  0.42029349609E+02 -0.10269316342E+03 -0.65395854802E+02  0.12879817494E+03  0.00000000000E+00 0. -1.
         21    1    1    2  505  504  0.65969590062E+02  0.55918561574E+02  0.15248407950E+03  0.17530050440E+03  0.00000000000E+00 0. -1.
         21    1    1    2  506  503 -0.15143368424E+02  0.10949006016E+03  0.40440791467E+01  0.11060628127E+03  0.00000000000E+00 0. -1.
<scales pt_clust_3="42.88722" pt_clust_4="110.01001" pt_clust_5="86.48047" pt_clust_6="14000.00000"></scales>
<clustering>
<clus scale="   86.480">  1  5  2 -1</clus>
<clus scale="   42.887">  1  3  2 -1</clus>
<clus scale="  110.010">  2  4  1 -1</clus>
<clus scale="   86.480">  1  3  2 -1</clus>
</clustering>
</event>
<event>
 6    0  0.2036847E+002  0.5850130E+02  0.7546771E-02  0.1404231E+00
         21   -1    0    0  503  501  0.00000000000E+00  0.00000000000E+00  0.12271754859E+04  0.12271754859E+04  0.00000000000E+00 0. -1.
         21   -1    0    0  504  502 -0.00000000000E+00 -0.00000000000E+00 -0.43152071748E+02  0.43152071748E+02  0.00000000000E+00 0.  1.
         21    1    1    2  503  505 -0.37800911148E+02 -0.28482012573E+02  0.20844090981E+03  0.21374692233E+03  0.00000000000E+00 0.  1.
         21    1    1    2  504  506 -0.16599245022E+02  0.71215908386E+02  0.20323110479E+02  0.75896438402E+02  0.00000000000E+00 0.  1.
         21    1    1    2  505  502 -0.32570569271E+02 -0.41556883512E+02  0.55032846769E+02  0.76265528081E+02  0.00000000000E+00 0.  1.
         21    1    1    2  506  501  0.86970725441E+02 -0.11770123005E+01  0.90022654707E+03  0.90441866881E+03  0.00000000000E+00 0. -1.
<scales pt_clust_3="47.33005" pt_clust_4="14000.00000" pt_clust_5="55.76031" pt_clust_6="58.50130"></scales>
<clustering>
<clus scale="   47.330">  1  3  2 -1</clus>
<clus scale="   55.760">  2  5  1 -1</clus>
<clus scale="   58.501">  1  6  2 -1</clus>
<clus scale="   47.330">  1  3  2 -1</clus>
</clustering>
</event>
<event>
 6    0  0.2036847E+002  0.9450844E+02  0.7546771E-02  0.1292287E+00
         21   -1    0    0  505  501  0.00000000000E+00  0.00000000000E+00  0.11230238379E+03  0.11230238379E+03  0.00000000000E+00 0.  1.
         21   -1    0    0  506  502 -0.00000000000E+00 -0.00000000000E+00 -0.61650451926E+03  0.61650451926E+03  0.00000000000E+00 0.  1.
         21    1    1    2  503  504  0.39703066350E+02  0.14274396865E+02 -0.43176798485E+02  0.60368268244E+02  0.00000000000E+00 0.  1.
         21    1    1    2  504  502 -0.35378658268E+02  0.74170305325E+01 -0.13106523073E+03  0.13595865735E+03  0.00000000000E+00 0. -1.
         21    1    1    2  505  503 -0.90245692984E+02 -0.29982853402E+02  0.73310932287E+02  0.12007393303E+03  0.00000000000E+00 0.  1.
         21    1    1    2  506  501  0.85921284903E+02  0.82914260042E+01 -0.40327103855E+03  0.41240604442E+03  0.00000000000E+00 0.  1.
<scales pt_clust_3="38.94448" pt_clust_4="36.14778" pt_clust_5="94.50844" pt_clust_6="14000.00000"></scales>
<clustering>
<clus scale="   36.148">  2  4  1 -1</clus>
<clus scale="   38.944">  2  3  1 -1</clus>
<clus scale="   94.508">  1  5  2 -1</clus>
<clus scale="   94.508">  1  3  2 -1</clus>
</clustering>
</event>
<event>
 6    0  0.2036847E+002  0.1509070E+03  0.7546771E-02  0.1199363E+00
         21   -1    0    0  502  501  0.00000000000E+00  0.00000000000E+00  0.51681607304E+03  0.51681607304E+03  0.00000000000E+00 0. -1.
         21   -1    0    0  504  502 -0.00000000000E+00 -0.00000000000E+00 -0.79337572205E+03  0.79337572205E+03  0.00000000000E+00 0. -1.
         21    1    1    2  503  506  0.50792265816E+02  0.72328269903E+01  0.12314633085E+03  0.13340609752E+03  0.00000000000E+00 0.  1.
         21    1    1    2  504  505 -0.73263907510E+02  0.27550918002E+02 -0.53017242252E+03  0.53591925775E+03  0.00000000000E+00 0. -1.
         21    1    1    2  505  503 -0.63172532937E+02  0.85587555591E+01 -0.24508606365E+03  0.25324138645E+03  0.00000000000E+00 0. -1.
         21    1    1    2  506  501  0.85644174631E+02 -0.43342500551E+02  0.37555250632E+03  0.38762505338E+03  0.00000000000E+00 0. -1.
<scales pt_clust_3="39.05785" pt_clust_4="147.47475" pt_clust_5="38.60625" pt_clust_6="39.05785"></scales>
<clustering>
<clus scale="   38.606">  4  5 -1 -1</clus>
<clus scale="   39.058">  3  6 -1 -1</clus>
<clus scale="  147.475">  2  4  1 -1</clus>
<clus scale="  150.907">  1  3  2 -1</clus>
</clustering>
</event>
<event>
 6    0  0.2036847E+002  0.1140592E+03  0.7546771E-02  0.1253232E+00
         21   -1    0    0  506  501  0.00000000000E+00  0.00000000000E+00  0.23216687894E+03  0.23216687894E+03  0.00000000000E+00 0.  1.
         21   -1    0    0  505  502 -0.00000000000E+00 -0.00000000000E+00 -0.23750785760E+03  0.23750785760E+03  0.00000000000E+00 0.  1.
         21    1    1    2  503  501 -0.27717057289E+02 -0.53151687079E+02  0.96194979991E+02  0.11334377477E+03  0.00000000000E+00 0.  1.
         21    1    1    2  504  503 -0.48067902960E+02 -0.13973886190E+02  0.43133906410E+02  0.66078186056E+02  0.00000000000E+00 0.  1.
         21    1    1    2  505  504  0.47902139867E+02 -0.51068641480E+02 -0.15327402487E+03  0.16850978561E+03  0.00000000000E+00 0.  1.
         21    1    1    2  506  502  0.27882820382E+02  0.11819421475E+03  0.86041598045E+01  0.12174299010E+03  0.00000000000E+00 0.  1.
<scales pt_clust_3="45.96898" pt_clust_4="45.96898" pt_clust_5="70.01872" pt_clust_6="102.36699"></scales>
<clustering>
<clus scale="   45.969">  3  4 -1 -1</clus>
<clus scale="   70.019">  2  5  1 -1</clus>
<clus scale="  102.367">  2  6  1 -1</clus>
<clus scale="  114.059">  1  3  2 -1</clus>
</clustering>
</event>
<event>
 6    0  0.2036847E+002  0.9788613E+02  0.7546771E-02  0.1284805E+00
         21   -1    0    0  503  501  0.00000000000E+00  0.00000000000E+00  0.13002553788E+03  0.13002553788E+03  0.00000000000E+00 0.  1.
         21   -1    0    0  506  502 -0.00000000000E+00 -0.00000000000E+00 -0.49212076067E+03  0.49212076067E+03  0.00000000000E+00 0.  1.
         21    1    1    2  503  502 -0.43269325998E+02  0.66791780793E+01 -0.29152199750E+01  0.43878747699E+02  0.00000000000E+00 0.  1.
         21    1    1    2  504  505  0.11066680221E+03 -0.30441517607E+02 -0.35332645160E+03  0.37150155922E+03  0.00000000000E+00 0.  1.
         21    1    1    2  505  501 -0.40067177808E+02  0.51280523470E+02  0.85541570945E+02  0.10748223660E+03  0.00000000000E+00 0.  1.
         21    1    1    2  506  504 -0.27330298400E+02 -0.27518183942E+02 -0.91395122160E+02  0.99283755029E+02  0.00000000000E+00 0. -1.
<scales pt_clust_3="45.16486" pt_clust_4="14000.00000" pt_clust_5="97.88613" pt_clust_6="38.78396"></scales>
<clustering>
<clus scale="   38.784">  2  6  1 -1</clus>
<clus scale="   45.165">  1  3  2 -1</clus>
<clus scale="   97.886">  1  5  2 -1</clus>
<clus scale="   45.165">  1  3  2 -1</clus>
</clustering>
</event>
<event>
 6    0  0.2036847E+002  0.1159091E+03  0.7546771E-02  0.1250003E+00
         21   -1    0    0  503  501  0.00000000000E+00  0.00000000000E+00  0.12797953519E+04  0.12797953519E+04  0.00000000000E+00 0. -1.
         21   -1    0    0  504  502 -0.00000000000E+00 -0.00000000000E+00 -0.27079573446E+02  0.27079573446E+02  0.00000000000E+00 0. -1.
         21    1    1    2  503  506  0.35108191549E+02 -0.30228389971E+01  0.53874132255E+03  0.53989252198E+03  0.00000000000E+00 0. -1.
         21    1    1    2  504  501 -0.48607463599E+02  0.10193522729E+03  0.58002243462E+03  0.59091412298E+03  0.00000000000E+00 0. -1.
         21    1    1    2  505  502 -0.19673579732E+02 -0.54536581231E+02  0.57534863455E+02  0.81679550345E+02  0.00000000000E+00 0. -1.
         21    1    1    2  506  505  0.33172851782E+02 -0.44375807061E+02  0.76417157855E+02  0.94388730060E+02  0.00000000000E+00 0.  1.
<scales pt_clust_3="35.23809" pt_clust_4="101.70503" pt_clust_5="55.12969" pt_clust_6="55.12969"></scales>
<clustering>
<clus scale="   35.238">  1  3  2 -1</clus>
<clus scale="   55.130">  5  6 -1 -1</clus>
<clus scale="  101.705">  1  4  2 -1</clus>
<clus scale="   35.238">  1  3  2 -1</clus>
</clustering>
</event>
<event>
 6    0  0.2036847E+002  0.1420985E+03  0.7546771E-02  0.1210533E+00
         21   -1    0    0  506  501  0.00000000000E+00  0.00000000000E+00  0.22128764688E+03  0.22128764688E+03  0.00000000000E+00 0.  1.
         21   -1    0    0  504  502 -0.00000000000E+00 -0.00000000000E+00 -0.47128465791E+03  0.47128465791E+03  0.00000000000E+00 0.  1.
         21    1    1    2  503  501  0.17681026605E+02  0.36371576088E+02  0.18070085232E+02  0.44294900714E+02  0.00000000000E+00 0.  1.
         21    1    1    2  504  505  0.13229620533E+03 -0.11521554820E+03 -0.12703782981E+03  0.21659990465E+03  0.00000000000E+00 0.  1.
         21    1    1    2  505  503 -0.49944655928E+02 -0.54216788081E+01  0.12528278070E+03  0.13498014075E+03  0.00000000000E+00 0.  1.
         21    1    1    2  506  502 -0.10003257600E+03  0.84265650916E+02 -0.26631204715E+03  0.29669735867E+03  0.00000000000E+00 0.  1.
<scales pt_clust_3="40.44144" pt_clust_4="14000.00000" pt_clust_5="42.55915" pt_clust_6="142.09845"></scales>
<clustering>
<clus scale="   40.441">  1  3  2 -1</clus>
<clus scale="   42.559">  1  5  2 -1</clus>
<clus scale="  142.098">  2  6  1 -1</clus>
<clus scale="   40.441">  1  3  2 -1</clus>
</clustering>
</event>
<event>
 6    0  0.2036847E+002  0.1271859E+03  0.7546771E-02  0.1231692E+00
         21   -1    0    0  504  501  0.00000000000E+00  0.00000000000E+00  0.94679241111E+02  0.94679241111E+02  0.00000000000E+00 0. -1.
         21   -1    0    0  503  502 -0.00000000000E+00 -0.00000000000E+00 -0.14894394183E+04  0.14894394183E+04  0.00000000000E+00 0. -1.
         21    1    1    2  503  501 -0.19913246172E+02 -0.69963749473E+02 -0.46450861833E+02  0.86308436311E+02  0.00000000000E+00 0. -1.
         21    1    1    2  504  506 -0.64729014881E+02 -0.31735138626E+02  0.48730292618E+02  0.87014974629E+02  0.00000000000E+00 0. -1.
         21    1    1    2  505  502 -0.38767865314E+02  0.25717024515E+02 -0.21985769007E+03  0.22472586993E+03  0.00000000000E+00 0.  1.
         21    1    1    2  506  505  0.12341012637E+03  0.75981863584E+02 -0.11771819179E+04  0.11860693785E+04  0.00000000000E+00 0. -1.
<scales pt_clust_3="72.04010" pt_clust_4="14000.00000" pt_clust_5="46.52217" pt_clust_6="127.18592"></scales>
<clustering>
<clus scale="   46.522">  2  5  1 -1</clus>
<clus scale="   72.040">  1  3  2 -1</clus>
<clus scale="  127.186">  2  6  1 -1</clus>
<clus scale="   72.040">  1  3  2 -1</clus>
</clustering>
</event>
<event>
 6    0  0.2036847E+002  0.1376202E+03  0.7546771E-02  0.1216568E+00
         21   -1    0    0  502  501  0.00000000000E+00  0.00000000000E+00  0.20475784997E+04  0.20475784997E+04  0.00000000000E+00 0.  1.
         21   -1    0    0  503  502 -0.00000000000E+00 -0.00000000000E+00 -0.28116723083E+03  0.28116723083E+03  0.00000000000E+00 0.  1.
         21    1    1    2  503  506 -0.37794567608E+02 -0.57296677209E+02 -0.11098278449E+03  0.13049336003E+03  0.00000000000E+00 0.  1.
         21    1    1    2  504  501  0.72887140349E+02  0.11975351116E+02  0.87806810460E+03  0.88116941650E+03  0.00000000000E+00 0.  1.
         21    1    1    2  505  504  0.29050543149E+02  0.69799616623E+02  0.11494873480E+04  0.11519709561E+04  0.00000000000E+00 0.  1.
         21    1    1    2  506  505 -0.64143115889E+02 -0.24478290530E+02 -0.15016139924E+03  0.16511199788E+03  0.00000000000E+00 0.  1.
<scales pt_clust_3="45.90552" pt_clust_4="73.86436" pt_clust_5="129.73629" pt_clust_6="45.90552"></scales>
<clustering>
<clus scale="   45.906">  3  6 -1 -1</clus>
<clus scale="   73.864">  1  4  2 -1</clus>
<clus scale="  129.736">  1  5  2 -1</clus>
<clus scale="   73.864">  1  3  2 -1</clus>
</clustering>
</event>
<event>
 6    0  0.2036847E+002  0.9500660E+02  0.7546771E-02  0.1291161E+00
         21   -1    0    0  505  501  0.00000000000E+00  0.00000000000E+00  0.49124278663E+03  0.49124278663E+03  0.00000000000E+00 0.  1.
         21   -1    0    0  504  502 -0.00000000000E+00 -0.00000000000E+00 -0.65089856395E+03  0.65089856395E+03  0.00000000000E+00 0.  1.
         21    1    1    2  503  501  0.78647586487E+02 -0.20528662767E+02  0.18736303273E+03  0.20423460747E+03  0.00000000000E+00 0. -1.
         21    1    1    2  504  503  0.75876130724E+02  0.58810076825E+02 -0.50449274327E+03  0.51354526613E+03  0.00000000000E+00 0.  1.
         21    1    1    2  505  506 -0.12161660402E+03 -0.32407299499E+02  0.27486152031E+03  0.30230727213E+03  0.00000000000E+00 0.  1.
         21    1    1    2  506  502 -0.32907113187E+02 -0.58741145591E+01 -0.11738758709E+03  0.12205420485E+03  0.00000000000E+00 0.  1.
<scales pt_clust_3="14000.00000" pt_clust_4="69.24170" pt_clust_5="95.00660" pt_clust_6="33.42728"></scales>
<clustering>
<clus scale="   33.427">  2  6  1 -1</clus>
<clus scale="   69.242">  2  4  1 -1</clus>
<clus scale="   95.007">  2  5  1 -1</clus>
<clus scale="   95.007">  1  3  2 -1</clus>
</clustering>
</event>
<event>
 6    0  0.2036847E+002  0.1898070E+03  0.7546771E-02  0.1158635E+00
         21   -1    0    0  506  501  0.00000000000E+00  0.00000000000E+00  0.31025278344E+03  0.31025278344E+03  0.00000000000E+00 0.  1.
         21   -1    0    0  504  502 -0.00000000000E+00 -0.00000000000E+00 -0.47535440256E+03  0.47535440256E+03  0.00000000000E+00 0. -1.
         21    1    1    2  503  502  0.18112917885E+03  0.36855458460E+02 -0.33823272068E+03  0.38544451947E+03  0.00000000000E+00 0. -1.
         21    1    1    2  504  501 -0.56478521455E+02  0.98532134159E+02 -0.32764347999E+02  0.11820282293E+03  0.00000000000E+00 0.  1.
         21    1    1    2  505  503 -0.37659151911E+02 -0.26870129155E+02  0.88888728426E+02  0.10020689400E+03  0.00000000000E+00 0.  1.
         21    1    1    2  506  505 -0.86991505487E+02 -0.10851746346E+03  0.11700672113E+03  0.18175294962E+03  0.00000000000E+00 0.  1.
<scales pt_clust_3="181.06871" pt_clust_4="113.57114" pt_clust_5="32.83284" pt_clust_6="32.83284"></scales>
<clustering>
<clus scale="   32.833">  5  6 -1 -1</clus>
<clus scale="  113.571">  2  4  1 -1</clus>
<clus scale="  181.069">  2  3  1 -1</clus>
<clus scale="  189.807">  1  3  2 -1</clus>
</clustering>
</event>
<event>
 6    0  0.2036847E+002  0.7266475E+02  0.7546771E-02  0.1351259E+00
         21   -1    0    0  503  501  0.00000000000E+00  0.00000000000E+00  0.35709938701E+03  0.35709938701E+03  0.00000000000E+00 0. -1.
         21   -1    0    0  505  502 -0.00000000000E+00 -0.00000000000E+00 -0.58762828289E+03  0.58762828289E+03  0.00000000000E+00 0. -1.
         21    1    1    2  503  504  0.43347008421E+02 -0.35246776617E+02  0.25007286705E+03  0.25623765773E+03  0.00000000000E+00 0. -1.
         21    1    1    2  504  502  0.16812798567E+02  0.42470901702E+02 -0.65844766124E+02  0.80137262949E+02  0.00000000000E+00 0. -1.
         21    1    1    2  505  506 -0.58065547781E+02 -0.98870560367E+02 -0.48149703885E+03  0.49496100247E+03  0.00000000000E+00 0. -1.
         21    1    1    2  506  501 -0.20942592065E+01  0.91646435282E+02  0.66740042039E+02  0.11339174676E+03  0.00000000000E+00 0. -1.
<scales pt_clust_3="55.78684" pt_clust_4="45.67765" pt_clust_5="72.66475" pt_clust_6="14000.00000"></scales>
<clustering>
<clus scale="   45.678">  2  4  1 -1</clus>
<clus scale="   55.787">  1  3  2 -1</clus>
<clus scale="   72.665">  2  5  1 -1</clus>
<clus scale="   55.787">  1  3  2 -1</clus>
</clustering>
</event>
<event>
 6    0  0.2036847E+002  0.1651229E+03  0.7546771E-02  0.1183031E+00
         21   -1    0    0  503  501  0.00000000000E+00  0.00000000000E+00  0.20498350690E+03  0.20498350690E+03  0.00000000000E+00 0. -1.
         21   -1    0    0  505  502 -0.00000000000E+00 -0.00000000000E+00 -0.19914008347E+03  0.19914008347E+03  0.00000000000E+00 0. -1.
         21    1    1    2  503  506 -0.84497443148E+02 -0.13334910664E+02 -0.95442959578E+02  0.12816784415E+03  0.00000000000E+00 0. -1.
         21    1    1    2  504  501  0.10956418925E+03 -0.83150364731E+01  0.79796141422E+02  0.13579718548E+03  0.00000000000E+00 0. -1.
         21    1    1    2  505  504  0.37460337820E+02  0.40499066538E+02  0.44540668262E+02  0.70903613654E+02  0.00000000000E+00 0. -1.
         21    1    1    2  506  502 -0.62527083926E+02 -0.18849119400E+02 -0.23050426671E+02  0.69254947088E+02  0.00000000000E+00 0. -1.
<scales pt_clust_3="157.90844" pt_clust_4="48.12842" pt_clust_5="48.12842" pt_clust_6="41.74871"></scales>
<clustering>
<clus scale="   41.749">  3  6 -1 -1</clus>
<clus scale="   48.128">  4  5 -1 -1</clus>
<clus scale="  157.908">  2  3  1 -1</clus>
<clus scale="  165.123">  1  3  2 -1</clus>
</clustering>
</event>
<event>
 6    0  0.2036847E+002  0.2042117E+03  0.7546771E-02  0.1146233E+00
         21   -1    0    0  504  501  0.00000000000E+00  0.00000000000E+00  0.10633480209E+03  0.10633480209E+03  0.00000000000E+00 0. -1.
         21   -1    0    0  501  502 -0.00000000000E+00 -0.00000000000E+00 -0.17919850782E+04  0.17919850782E+04  0.00000000000E+00 0. -1.
         21    1    1    2  503  502 -0.55659194363E+02 -0.28669823467E+02 -0.73695475582E+03  0.73960950292E+03  0.00000000000E+00 0. -1.
         21    1    1    2  504  505  0.43064826309E+02  0.25490116422E+02  0.35466167437E+02  0.61336566035E+02  0.00000000000E+00 0. -1.
         21    1    1    2  505  506  0.15082207126E+03  0.22722908874E+02 -0.61900215627E+02  0.16460639253E+03  0.00000000000E+00 0. -1.
         21    1    1    2  506  503 -0.13822770320E+03 -0.19543201829E+02 -0.92226147209E+03  0.93276741879E+03  0.00000000000E+00 0. -1.
<scales pt_clust_3="41.97961" pt_clust_4="50.04323" pt_clust_5="194.35266" pt_clust_6="41.97961"></scales>
<clustering>
<clus scale="   41.980">  3  6 -1 -1</clus>
<clus scale="   50.043">  1  4  2 -1</clus>
<clus scale="  194.353">  1  5  2 -1</clus>
<clus scale="   50.043">  1  3  2 -1</clus>
</clustering>
</event>
<event>
 6    0  0.2036847E+002  0.1105234E+03  0.7546771E-02  0.1259604E+00
         21   -1    0    0  505  501  0.00000000000E+00  0.00000000000E+00  0.50890767013E+03  0.50890767013E+03  0.00000000000E+00 0.  1.
         21   -1    0    0  506  502 -0.00000000000E+00 -0.00000000000E+00 -0.12544714080E+04  0.12544714080E+04  0.00000000000E+00 0.  1.
         21    1    1    2  503  501 -0.39939423429E+02 -0.50008417685E+02  0.37322312110E+03  0.37867069798E+03  0.00000000000E+00 0.  1.
         21    1    1    2  504  502  0.12377201358E+03  0.78887660534E+02 -0.11833024619E+04  0.11923705341E+04  0.00000000000E+00 0.  1.
         21    1    1    2  505  504 -0.54656016575E+02 -0.87428171587E+01  0.11675185827E+03  0.12920802378E+03  0.00000000000E+00 0.  1.
         21    1    1    2  506  503 -0.29176573577E+02 -0.20136425690E+02 -0.52236255425E+02  0.63129822319E+02  0.00000000000E+00 0. -1.
<scales pt_clust_3="14000.00000" pt_clust_4="110.52339" pt_clust_5="55.51739" pt_clust_6="35.45064"></scales>
<clustering>
<clus scale="   35.451">  2  6  1 -1</clus>
<clus scale="   55.517">  1  5  2 -1</clus>
<clus scale="  110.523">  2  4  1 -1</clus>
<clus scale="   55.517">  1  3  2 -1</clus>
</clustering>
</event>
<event>
 6    0  0.2036847E+002  0.1959999E+03  0.7546771E-02  0.1153158E+00
         21   -1    0    0  505  501  0.00000000000E+00  0.00000000000E+00  0.10659410560E+03  0.10659410560E+03  0.00000000000E+00 0. -1.
         21   -1    0    0  503  502 -0.00000000000E+00 -0.00000000000E+00 -0.17363141682E+04  0.17363141682E+04  0.00000000000E+00 0. -1.
         21    1    1    2  503  506  0.58303472791E+01  0.10430121546E+03 -0.20600736662E+03  0.23098002424E+03  0.00000000000E+00 0.  1.
         21    1    1    2  504  502 -0.84072944946E+01 -0.13321280895E+03 -0.70339575664E+03  0.71594827015E+03  0.00000000000E+00 0. -1.
         21    1    1    2  505  504 -0.35558058079E+02 -0.15259433806E+03 -0.69059337313E+03  0.70814448703E+03  0.00000000000E+00 0. -1.
         21    1    1    2  506  501  0.38135005294E+02  0.18150593155E+03 -0.29723566235E+02  0.18783549240E+03  0.00000000000E+00 0. -1.
<scales pt_clust_3="104.46404" pt_clust_4="32.18304" pt_clust_5="32.18304" pt_clust_6="192.87340"></scales>
<clustering>
<clus scale="   32.183">  4  5 -1 -1</clus>
<clus scale="  104.464">  2  3  1 -1</clus>
<clus scale="  192.873">  1  6  2 -1</clus>
<clus scale="  192.873">  1  3  2 -1</clus>
</clustering>
</event>
<event>
 6    0  0.2036847E+002  0.6360834E+02  0.7546771E-02  0.1383284E+00
         21   -1    0    0  506  501  0.00000000000E+00  0.00000000000E+00  0.19485800882E+04  0.19485800882E+04  0.00000000000E+00 0. -1.
         21   -1    0    0  505  502 -0.00000000000E+00 -0.00000000000E+00 -0.15620178557E+03  0.15620178557E+03  0.00000000000E+00 0.  1.
         21    1    1    2  503  502  0.18605650813E+02 -0.28062495751E+02 -0.10751381392E+02  0.35344958789E+02  0.00000000000E+00 0. -1.
         21    1    1    2  504  501 -0.10664615481E+02 -0.79034238182E+02  0.17208339038E+04  0.17226808959E+04  0.00000000000E+00 0. -1.
         21    1    1    2  505  504 -0.57235601849E+02  0.77069741146E+02 -0.10999156774E+03  0.14599247958E+03  0.00000000000E+00 0.  1.
         21    1    1    2  506  503  0.49294566517E+02  0.30026992787E+02  0.19228734805E+03  0.20076353953E+03  0.00000000000E+00 0. -1.
<scales pt_clust_3="33.67007" pt_clust_4="14000.00000" pt_clust_5="63.60834" pt_clust_6="57.77082"></scales>
<clustering>
<clus scale="   33.670">  2  3  1 -1</clus>
<clus scale="   57.771">  1  6  2 -1</clus>
<clus scale="   63.608">  2  5  1 -1</clus>
<clus scale="   57.771">  1  3  2 -1</clus>
</clustering>
</event>
<event>
 6    0  0.2036847E+002  0.1282219E+03  0.7546771E-02  0.1230118E+00
         21   -1    0    0  505  501  0.00000000000E+00  0.00000000000E+00  0.58601177607E+02  0.58601177607E+02  0.00000000000E+00 0.  1.
         21   -1    0    0  506  502 -0.00000000000E+00 -0.00000000000E+00 -0.10448904714E+04  0.10448904714E+04  0.00000000000E+00 0. -1.
         21    1    1    2  503  502  0.22816862045E+02  0.23482580644E+02 -0.24419225413E+03  0.24637755126E+03  0.00000000000E+00 0. -1.
         21    1    1    2  504  501  0.30559813245E+02 -0.35280104240E+02  0.98317332763E+01  0.47699590354E+02  0.00000000000E+00 0.  1.
         21    1    1    2  505  503 -0.87114794795E+02  0.79580573694E+02 -0.71591055758E+03  0.72556872978E+03  0.00000000000E+00 0. -1.
         21    1    1    2  506  504  0.33738119505E+02 -0.67783050099E+02 -0.36018215385E+02  0.83845777639E+02  0.00000000000E+00 0.  1.
<scales pt_clust_3="32.74203" pt_clust_4="34.03527" pt_clust_5="120.74210" pt_clust_6="34.03527"></scales>
<clustering>
<clus scale="   32.742">  2  3  1 -1</clus>
<clus scale="   34.035">  4  6 -1 -1</clus>
<clus scale="  120.742">  2  5  1 -1</clus>
<clus scale="  128.222">  1  3  2 -1</clus>
</clustering>
</event>
<event>
 6    0  0.2036847E+002  0.2655253E+03  0.7546771E-02  0.1103868E+00
         21   -1    0    0  504  501  0.00000000000E+00  0.00000000000E+00  0.62713291920E+03  0.62713291920E+03  0.00000000000E+00 0.  1.
         21   -1    0    0  505  502 -0.00000000000E+00 -0.00000000000E+00 -0.11474668005E+04  0.11474668005E+04  0.00000000000E+00 0.  1.
         21    1    1    2  503  501  0.78893333580E+02  0.20917817423E+03  0.55877312355E+03  0.60183641487E+03  0.00000000000E+00 0.  1.
         21    1    1    2  504  502  0.19826620598E+02  0.30344756265E+02  0.20289045419E+02  0.41539673580E+02  0.00000000000E+00 0.  1.
         21    1    1    2  505  506 -0.36210505950E+02 -0.37230900371E+02 -0.28873203673E+03  0.29336586325E+03  0.00000000000E+00 0.  1.
         21    1    1    2  506  503 -0.62509448227E+02 -0.20229203013E+03 -0.81066401352E+03  0.83785776799E+03  0.00000000000E+00 0.  1.
<scales pt_clust_3="258.11881" pt_clust_4="36.24775" pt_clust_5="30.84376" pt_clust_6="30.84376"></scales>
<clustering>
<clus scale="   30.844">  5  6 -1 -1</clus>
<clus scale="   36.248">  1  4  2 -1</clus>
<clus scale="  258.119">  1  3  2 -1</clus>
<clus scale="   36.248">  1  3  2 -1</clus>
</clustering>
</event>
<event>
 6    0  0.2036847E+002  0.1684259E+03  0.7546771E-02  0.1179499E+00
         21   -1    0    0  503  501  0.00000000000E+00  0.00000000000E+00  0.10693196733E+04  0.10693196733E+04  0.00000000000E+00 0. -1.
         21   -1    0    0  504  502 -0.00000000000E+00 -0.00000000000E+00 -0.10430941538E+03  0.10430941538E+03  0.00000000000E+00 0.  1.
         21    1    1    2  503  505 -0.37642418221E+02  0.27864998130E+02  0.10802294157E+03  0.11773854796E+03  0.00000000000E+00 0. -1.
         21    1    1    2  504  501 -0.12562670105E+02  0.13117798933E+03  0.87378223214E+03  0.88366332659E+03  0.00000000000E+00 0. -1.
         21    1    1    2  505  506  0.28923731563E+02 -0.78459217419E+02  0.11060547979E+02  0.84349076860E+02  0.00000000000E+00 0.  1.
         21    1    1    2  506  502  0.21281356764E+02 -0.80583770042E+02 -0.27855463807E+02  0.87878137234E+02  0.00000000000E+00 0.  1.
<scales pt_clust_3="46.83385" pt_clust_4="163.71431" pt_clust_5="39.49416" pt_clust_6="39.49416"></scales>
<clustering>
<clus scale="   39.494">  5  6 -1 -1</clus>
<clus scale="   46.834">  1  3  2 -1</clus>
<clus scale="  163.714">  1  4  2 -1</clus>
<clus scale="   46.834">  1  3  2 -1</clus>
</clustering>
</event>
<event>
 6    0  0.2036847E+002  0.1095459E+03  0.7546771E-02  0.1261413E+00
         21   -1    0    0  506  501  0.00000000000E+00  0.00000000000E+00  0.28020704806E+02  0.28020704806E+02  0.00000000000E+00 0.  1.
         21   -1    0    0  505  502 -0.00000000000E+00 -0.00000000000E+00 -0.17737175705E+04  0.17737175705E+04  0.00000000000E+00 0.  1.
         21    1    1    2  503  504 -0.39719926141E+02  0.27313740943E+02 -0.60193631234E+02  0.77116705181E+02  0.00000000000E+00 0.  1.
         21    1    1    2  504  501 -0.59553357191E+02 -0.17313156298E+02 -0.49293582221E+02  0.79222503002E+02  0.00000000000E+00 0.  1.
         21    1    1    2  505  503  0.22434482140E+02 -0.51881865043E+02 -0.24483842317E+03  0.25127850559E+03  0.00000000000E+00 0.  1.
         21    1    1    2  506  502  0.76838801192E+02  0.41881280399E+02 -0.13913712291E+04  0.13941205616E+04  0.00000000000E+00 0.  1.
<scales pt_clust_3="44.07505" pt_clust_4="44.07505" pt_clust_5="56.52463" pt_clust_6="97.47303"></scales>
<clustering>
<clus scale="   44.075">  3  4 -1 -1</clus>
<clus scale="   56.525">  2  5  1 -1</clus>
<clus scale="   97.473">  2  6  1 -1</clus>
<clus scale="  109.546">  1  3  2 -1</clus>
</clustering>
</event>
<event>
 6    0  0.2036847E+002  0.1046751E+03  0.7546771E-02  0.1270761E+00
         21   -1    0    0  506  501  0.00000000000E+00  0.00000000000E+00  0.60485343626E+02  0.60485343626E+02  0.00000000000E+00 0.  1.
         21   -1    0    0  505  502 -0.00000000000E+00 -0.00000000000E+00 -0.78705707332E+03  0.78705707332E+03  0.00000000000E+00 0.  1.
         21    1    1    2  503  504 -0.90494939140E+01 -0.94920398905E+02 -0.47900219822E+03  0.48840032900E+03  0.00000000000E+00 0.  1.
         21    1    1    2  504  502  0.42891663950E+02 -0.13617228502E+02 -0.21208540362E+03  0.21680715435E+03  0.00000000000E+00 0.  1.
         21    1    1    2  505  501 -0.11872456442E+02  0.33001142953E+02 -0.51252539660E+02  0.62103570588E+02  0.00000000000E+00 0.  1.
         21    1    1    2  506  503 -0.21969713594E+02  0.75536484455E+02  0.15768411807E+02  0.80231363008E+02  0.00000000000E+00 0.  1.
<scales pt_clust_3="14000.00000" pt_clust_4="44.10417" pt_clust_5="35.07179" pt_clust_6="104.67511"></scales>
<clustering>
<clus scale="   35.072">  1  5  2 -1</clus>
<clus scale="   44.104">  2  4  1 -1</clus>
<clus scale="  104.675">  1  6  2 -1</clus>
<clus scale="   35.072">  1  3  2 -1</clus>
</clustering>
</event>
<event>
 6    0  0.2036847E+002  0.2976717E+03  0.7546771E-02  0.1086410E+00
         21   -1    0    0  504  501  0.00000000000E+00  0.00000000000E+00  0.18741076540E+04  0.18741076540E+04  0.00000000000E+00 0. -1.
         21   -1    0    0  503  502 -0.00000000000E+00 -0.00000000000E+00 -0.12094520487E+03  0.12094520487E+03  0.00000000000E+00 0. -1.
         21    1    1    2  503  501  0.39723264991E+02 -0.33782513130E+03  0.21021487986E+03  0.39986754411E+03  0.00000000000E+00 0. -1.
         21    1    1    2  504  505  0.17094200482E+02  0.27800673569E+02  0.34853186669E+03  0.35005649721E+03  0.00000000000E+00 0. -1.
         21    1    1    2  505  506 -0.72523495963E+02  0.26292603423E+03  0.11368543702E+04  0.11691140303E+04  0.00000000000E+00 0. -1.
         21    1    1    2  506  502  0.15706030490E+02  0.47098423497E+02  0.57561332443E+02  0.76014787261E+02  0.00000000000E+00 0. -1.
<scales pt_clust_3="14000.00000" pt_clust_4="32.63570" pt_clust_5="297.67173" pt_clust_6="51.04122"></scales>
<clustering>
<clus scale="   32.636">  1  4  2 -1</clus>
<clus scale="   51.041">  2  6  1 -1</clus>
<clus scale="  297.672">  1  5  2 -1</clus>
<clus scale="   32.636">  1  3  2 -1</clus>
</clustering>
</event>
<event>
 6    0  0.2036847E+002  0.1029936E+03  0.7546771E-02  0.1274124E+00
         21   -1    0    0  504  501  0.00000000000E+00  0.00000000000E+00  0.30572202633E+03  0.30572202633E+03  0.00000000000E+00 0. -1.
         21   -1    0    0  505  502 -0.00000000000E+00 -0.00000000000E+00 -0.10168805211E+03  0.10168805211E+03  0.00000000000E+00 0. -1.
         21    1    1    2  503  506  0.84074720506E+02 -0.82105575942E+02  0.13648555780E+03  0.18010605686E+03  0.00000000000E+00 0. -1.
         21    1    1    2  504  503 -0.24377010132E+02 -0.27863022583E+02  0.64228879137E+02  0.74134577396E+02  0.00000000000E+00 0. -1.
         21    1    1    2  505  501 -0.70217463455E+02  0.37415555060E+02 -0.27111632821E+01  0.79610089441E+02  0.00000000000E+00 0. -1.
         21    1    1    2  506  502  0.10519753081E+02  0.72553043466E+02  0.60307005566E+01  0.73559354743E+02  0.00000000000E+00 0. -1.
<scales pt_clust_3="14000.00000" pt_clust_4="37.02144" pt_clust_5="102.99356" pt_clust_6="68.16829"></scales>
<clustering>
<clus scale="   37.021">  1  4  2 -1</clus>
<clus scale="   68.168">  2  6  1 -1</clus>
<clus scale="  102.994">  2  5  1 -1</clus>
<clus scale="   37.021">  1  3  2 -1</clus>
</clustering>
</event>
<event>
 6    0  0.2036847E+002  0.9776081E+02  0.7546771E-02  0.1285076E+00
         21   -1    0    0  506  501  0.00000000000E+00  0.00000000000E+00  0.16187082196E+03  0.16187082196E+03  0.00000000000E+00 0.  1.
         21   -1    0    0  503  502 -0.00000000000E+00 -0.00000000000E+00 -0.14879510451E+03  0.14879510451E+03  0.00000000000E+00 0.  1.
         21    1    1    2  503  501  0.18230530987E+02  0.10710799046E+03  0.42339128297E+02  0.11660649924E+03  0.00000000000E+00 0.  1.
         21    1    1    2  504  505 -0.64977862190E+01 -0.85081272652E+02 -0.17780465559E+01  0.85347557853E+02  0.00000000000E+00 0.  1.
         21    1    1    2  505  502  0.29562130334E+02 -0.29957495837E+02 -0.46364890320E+02  0.62618480987E+02  0.00000000000E+00 0. -1.
         21    1    1    2  506  504 -0.41294875102E+02  0.79307780297E+01  0.18879526026E+02  0.46093388385E+02  0.00000000000E+00 0. -1.
<scales pt_clust_3="97.76081" pt_clust_4="14000.00000" pt_clust_5="39.93927" pt_clust_6="42.04954"></scales>
<clustering>
<clus scale="   42.050">  1  6  2 -1</clus>
<clus scale="   39.939">  2  5  1 -1</clus>
<clus scale="   97.761">  1  3  2 -1</clus>
<clus scale="   42.050">  1  3  2 -1</clus>
</clustering>
</event>
<event>
 6    0  0.2036847E+002  0.1148866E+03  0.7546771E-02  0.1251779E+00
         21   -1    0    0  504  501  0.00000000000E+00  0.00000000000E+00  0.19286103508E+03  0.19286103508E+03  0.00000000000E+00 0. -1.
         21   -1    0    0  506  502 -0.00000000000E+00 -0.00000000000E+00 -0.15128084961E+04  0.15128084961E+04  0.00000000000E+00 0. -1.
         21    1    1    2  503  502  0.22314594089E+02 -0.34652649659E+02 -0.94277112946E+03  0.94367163239E+03  0.00000000000E+00 0. -1.
         21    1    1    2  504  505 -0.11879978807E+03  0.39128871752E+02  0.10975435774E+03  0.16640455911E+03  0.00000000000E+00 0. -1.
         21    1    1    2  505  503  0.93675427246E+02  0.29935638520E+02 -0.53076254877E+03  0.53979636095E+03  0.00000000000E+00 0. -1.
         21    1    1    2  506  501  0.28097667338E+01 -0.34411860613E+02  0.43831859421E+02  0.55796978774E+02  0.00000000000E+00 0. -1.
<scales pt_clust_3="41.31175" pt_clust_4="114.88659" pt_clust_5="14000.00000" pt_clust_6="34.52638"></scales>
<clustering>
<clus scale="   34.526">  1  6  2 -1</clus>
<clus scale="   41.312">  2  3  1 -1</clus>
<clus scale="  114.887">  1  4  2 -1</clus>
<clus scale="   34.526">  1  3  2 -1</clus>
</clustering>
</event>
<event>
 6    0  0.2036847E+002  0.1982665E+03  0.7546771E-02  0.1151210E+00
         21   -1    0    0  504  501  0.00000000000E+00  0.00000000000E+00  0.12626038885E+03  0.12626038885E+03  0.00000000000E+00 0. -1.
         21   -1    0    0  501  502 -0.00000000000E+00 -0.00000000000E+00 -0.12301922738E+04  0.12301922738E+04  0.00000000000E+00 0.  1.
         21    1    1    2  503  505  0.41555196426E+02  0.23526585608E+00 -0.13070419808E+03  0.13715129272E+03  0.00000000000E+00 0.  1.
         21    1    1    2  504  506  0.25668301296E+02  0.36989104171E+02 -0.45192865464E+01  0.45249082528E+02  0.00000000000E+00 0. -1.
         21    1    1    2  505  502  0.13311711015E+03 -0.63385783661E+02 -0.96059917960E+03  0.97184808815E+03  0.00000000000E+00 0.  1.
         21    1    1    2  506  503 -0.20034060787E+03  0.26161413635E+02 -0.81092206952E+01  0.20220419923E+03  0.00000000000E+00 0. -1.
<scales pt_clust_3="35.36822" pt_clust_4="45.02283" pt_clust_5="35.36822" pt_clust_6="186.73898"></scales>
<clustering>
<clus scale="   35.368">  3  5 -1 -1</clus>
<clus scale="   45.023">  1  4  2 -1</clus>
<clus scale="  186.739">  1  6  2 -1</clus>
<clus scale="   45.023">  1  3  2 -1</clus>
</clustering>
</event>
<event>
 6    0  0.2036847E+002  0.1086542E+03  0.7546771E-02  0.1263083E+00
         21   -1    0    0  502  501  0.00000000000E+00  0.00000000000E+00  0.14745326442E+04  0.14745326442E+04  0.00000000000E+00 0. -1.
         21   -1    0    0  503  502 -0.00000000000E+00 -0.00000000000E+00 -0.43428241788E+02  0.43428241788E+02  0.00000000000E+00 0. -1.
         21    1    1    2  503  505  0.29475276376E+02  0.16579832030E+02  0.19012025119E+02  0.38796131852E+02  0.00000000000E+00 0. -1.
         21    1    1    2  504  506  0.55144963755E+02  0.59455404384E+01  0.58761136432E+03  0.59022320520E+03  0.00000000000E+00 0. -1.
         21    1    1    2  505  504 -0.12936305903E+03  0.57694139158E+00  0.10208392121E+03  0.16479156797E+03  0.00000000000E+00 0. -1.
         21    1    1    2  506  501  0.44742818902E+02 -0.23102313860E+02  0.72239709180E+03  0.72414998100E+03  0.00000000000E+00 0. -1.
<scales pt_clust_3="33.81838" pt_clust_4="32.76940" pt_clust_5="103.06762" pt_clust_6="32.76940"></scales>
<clustering>
<clus scale="   32.769">  4  6 -1 -1</clus>
<clus scale="   33.818">  2  3  1 -1</clus>
<clus scale="  103.068">  2  5  1 -1</clus>
<clus scale="  108.654">  1  3  2 -1</clus>
</clustering>
</event>
<event>
 6    0  0.2036847E+002  0.1310287E+03  0.7546771E-02  0.1225937E+00
         21   -1    0    0  503  501  0.00000000000E+00  0.00000000000E+00  0.56833107490E+03  0.56833107490E+03  0.00000000000E+00 0.  1.
         21   -1    0    0  506  502 -0.00000000000E+00 -0.00000000000E+00 -0.11515361132E+03  0.11515361132E+03  0.00000000000E+00 0.  1.
         21    1    1    2  503  504 -0.11064438256E+03  0.53425534411E+02  0.31979356380E+03  0.34258486623E+03  0.00000000000E+00 0.  1.
         21    1    1    2  504  502 -0.83357221856E+02 -0.32407221324E+02  0.45340492238E+02  0.10027170421E+03  0.00000000000E+00 0.  1.
         21    1    1    2  505  501  0.15837807718E+03 -0.50126717092E+02  0.98937936368E+02  0.19335205804E+03  0.00000000000E+00 0.  1.
         21    1    1    2  506  505  0.35623527240E+02  0.29108404005E+02 -0.10894528827E+02  0.47276057737E+02  0.00000000000E+00 0.  1.
<scales pt_clust_3="131.02870" pt_clust_4="75.61025" pt_clust_5="14000.00000" pt_clust_6="46.00364"></scales>
<clustering>
<clus scale="   46.004">  2  6  1 -1</clus>
<clus scale="   75.610">  2  4  1 -1</clus>
<clus scale="  131.029">  1  3  2 -1</clus>
<clus scale="  131.029">  1  3  2 -1</clus>
</clustering>
</event>
<event>
 6    0  0.2036847E+002  0.1507632E+03  0.7546771E-02  0.1199538E+00
         21   -1    0    0  503  501  0.00000000000E+00  0.00000000000E+00  0.15855360520E+04  0.15855360520E+04  0.00000000000E+00 0. -1.
         21   -1    0    0  504  502 -0.00000000000E+00 -0.00000000000E+00 -0.22582906138E+02  0.22582906138E+02  0.00000000000E+00 0. -1.
         21    1    1    2  503  505  0.51108536946E+02 -0.17438901893E+02  0.38070188465E+03  0.38451283831E+03  0.00000000000E+00 0. -1.
         21    1    1    2  504  506 -0.97417190672E+02 -0.36567284165E+02  0.17650589345E+03  0.20489413298E+03  0.00000000000E+00 0. -1.
         21    1    1    2  505  502  0.84018764318E+02  0.77728288126E+02  0.80397778957E+03  0.81208443259E+03  0.00000000000E+00 0. -1.
         21    1    1    2  506  501 -0.37710110592E+02 -0.23722102068E+02  0.20176757824E+03  0.20662755430E+03  0.00000000000E+00 0. -1.
<scales pt_clust_3="54.00183" pt_clust_4="43.23098" pt_clust_5="135.51552" pt_clust_6="43.23098"></scales>
<clustering>
<clus scale="   43.231">  4  6 -1 -1</clus>
<clus scale="   54.002">  1  3  2 -1</clus>
<clus scale="  135.516">  1  5  2 -1</clus>
<clus scale="   54.002">  1  3  2 -1</clus>
</clustering>
</event>
<event>
 6    0  0.2036847E+002  0.8562066E+02  0.7546771E-02  0.1313817E+00
         21   -1    0    0  505  501  0.00000000000E+00  0.00000000000E+00  0.14070132257E+03  0.14070132257E+03  0.00000000000E+00 0. -1.
         21   -1    0    0  506  502 -0.00000000000E+00 -0.00000000000E+00 -0.29968662764E+03  0.29968662764E+03  0.00000000000E+00 0. -1.
         21    1    1    2  503  501  0.10637422536E+02  0.40951456566E+02  0.39962925957E+02  0.58199759485E+02  0.00000000000E+00 0. -1.
         21    1    1    2  504  502 -0.63562897352E+02 -0.58243349186E+02 -0.23056534826E+03  0.24615627041E+03  0.00000000000E+00 0. -1.
         21    1    1    2  505  504 -0.34970913301E+02 -0.39589096599E+01 -0.98530638630E+01  0.36547511684E+02  0.00000000000E+00 0. -1.
         21    1    1    2  506  503  0.87896388117E+02  0.21250802280E+02  0.41470181089E+02  0.99484408633E+02  0.00000000000E+00 0.  1.
<scales pt_clust_3="39.52789" pt_clust_4="85.62066" pt_clust_5="35.19429" pt_clust_6="14000.00000"></scales>
<clustering>
<clus scale="   35.194">  1  5  2 -1</clus>
<clus scale="   39.528">  1  3  2 -1</clus>
<clus scale="   85.621">  2  4  1 -1</clus>
<clus scale="   35.194">  1  3  2 -1</clus>
</clustering>
</event>
<event>
 6    0  0.2036847E+002  0.1132025E+03  0.7546771E-02  0.1254752E+00
         21   -1    0    0  505  501  0.00000000000E+00  0.00000000000E+00  0.30936053691E+03  0.30936053691E+03  0.00000000000E+00 0. -1.
         21   -1    0    0  506  502 -0.00000000000E+00 -0.00000000000E+00 -0.10251223397E+04  0.10251223397E+04  0.00000000000E+00 0. -1.
         21    1    1    2  503  501  0.31634889005E+02  0.13972544175E+02  0.50670861094E+02  0.61347651602E+02  0.00000000000E+00 0. -1.
         21    1    1    2  504  503  0.46412425999E+02  0.12059011205E+02  0.23595837932E+03  0.24078183031E+03  0.00000000000E+00 0. -1.
         21    1    1    2  505  502  0.54820458564E+02 -0.63167025243E+02 -0.18014727033E+03  0.19861619965E+03  0.00000000000E+00 0.  1.
         21    1    1    2  506  504 -0.13286777357E+03  0.37135469863E+02 -0.82224377289E+03  0.83373719506E+03  0.00000000000E+00 0. -1.
<scales pt_clust_3="34.58321" pt_clust_4="80.23837" pt_clust_5="14000.00000" pt_clust_6="113.20252"></scales>
<clustering>
<clus scale="   34.583">  1  3  2 -1</clus>
<clus scale="   80.238">  1  4  2 -1</clus>
<clus scale="  113.203">  2  6  1 -1</clus>
<clus scale="   34.583">  1  3  2 -1</clus>
</clustering>
</event>
<event>
 6    0  0.2036847E+002  0.7028105E+02  0.7546771E-02  0.1359140E+00
         21   -1    0    0  503  501  0.00000000000E+00  0.00000000000E+00  0.84777085405E+03  0.84777085405E+03  0.00000000000E+00 0. -1.
         21   -1    0    0  504  502 -0.00000000000E+00 -0.00000000000E+00 -0.92186311024E+02  0.92186311024E+02  0.00000000000E+00 0. -1.
         21    1    1    2  503  505 -0.51205925297E+02  0.53769790512E+02  0.28975602681E+03  0.29911835823E+03  0.00000000000E+00 0. -1.
         21    1    1    2  504  506 -0.59628947536E+02 -0.29890070057E+02  0.37113862212E+02  0.76331293979E+02  0.00000000000E+00 0. -1.
         21    1    1    2  505  502  0.71605877021E+02  0.10699832981E+02 -0.46745489248E+02  0.86180211271E+02  0.00000000000E+00 0. -1.
         21    1    1    2  506  501  0.39228995812E+02 -0.34579553436E+02  0.47546014325E+03  0.47832730159E+03  0.00000000000E+00 0. -1.
<scales pt_clust_3="33.09220" pt_clust_4="14000.00000" pt_clust_5="70.28105" pt_clust_6="52.29397"></scales>
<clustering>
<clus scale="   52.294">  1  6  2 -1</clus>
<clus scale="   33.092">  1  3  2 -1</clus>
<clus scale="   70.281">  2  5  1 -1</clus>
<clus scale="   52.294">  1  3  2 -1</clus>
</clustering>
</event>
<event>
 6    0  0.2036847E+002  0.1190855E+03  0.7546771E-02  0.1244613E+00
         21   -1    0    0  505  501  0.00000000000E+00  0.00000000000E+00  0.82512088411E+02  0.82512088411E+02  0.00000000000E+00 0.  1.
         21   -1    0    0  503  502 -0.00000000000E+00 -0.00000000000E+00 -0.32525536903E+03  0.32525536903E+03  0.00000000000E+00 0.  1.
         21    1    1    2  503  506 -0.44240022427E+02  0.11503696452E+02 -0.13340552038E+03  0.14101967055E+03  0.00000000000E+00 0.  1.
         21    1    1    2  504  501  0.90344992582E+02 -0.52887175155E-02  0.15499771204E+02  0.91664936699E+02  0.00000000000E+00 0.  1.
         21    1    1    2  505  502  0.24418552208E+02 -0.34809241616E+02 -0.21023052186E+02  0.47433297556E+02  0.00000000000E+00 0.  1.
         21    1    1    2  506  504 -0.70523522364E+02  0.23310833882E+02 -0.10381447926E+03  0.12764955263E+03  0.00000000000E+00 0.  1.
<scales pt_clust_3="30.65633" pt_clust_4="112.49118" pt_clust_5="42.51998" pt_clust_6="30.65633"></scales>
<clustering>
<clus scale="   30.656">  3  6 -1 -1</clus>
<clus scale="   42.520">  1  5  2 -1</clus>
<clus scale="  112.491">  1  4  2 -1</clus>
<clus scale="   42.520">  1  3  2 -1</clus>
</clustering>
</event>
<event>
 6    0  0.2036847E+002  0.2482581E+03  0.7546771E-02  0.1114411E+00
         21   -1    0    0  506  501  0.00000000000E+00  0.00000000000E+00  0.75207040289E+03  0.75207040289E+03  0.00000000000E+00 0.  1.
         21   -1    0    0  505  502 -0.00000000000E+00 -0.00000000000E+00 -0.16325934867E+03  0.16325934867E+03  0.00000000000E+00 0.  1.
         21    1    1    2  503  502 -0.13126366317E+03 -0.24177246096E+02  0.36640749671E+02  0.13840965658E+03  0.00000000000E+00 0.  1.
         21    1    1    2  504  501  0.73863375057E+02  0.71762998032E+02  0.33636728802E+03  0.35177930370E+03  0.00000000000E+00 0.  1.
         21    1    1    2  505  504  0.18149753918E+03  0.43949063857E+02  0.19422141357E+03  0.26943428592E+03  0.00000000000E+00 0.  1.
         21    1    1    2  506  503 -0.12409725107E+03 -0.91534815793E+02  0.21581602963E+02  0.15570650536E+03  0.00000000000E+00 0.  1.
<scales pt_clust_3="62.52074" pt_clust_4="102.98411" pt_clust_5="238.98973" pt_clust_6="62.52074"></scales>
<clustering>
<clus scale="   62.521">  3  6 -1 -1</clus>
<clus scale="  102.984">  1  4  2 -1</clus>
<clus scale="  238.990">  1  5  2 -1</clus>
<clus scale="  102.984">  1  3  2 -1</clus>
</clustering>
</event>
<event>
 6    0  0.2036847E+002  0.7876470E+02  0.7546771E-02  0.1332594E+00
         21   -1    0    0  506  501  0.00000000000E+00  0.00000000000E+00  0.18925234738E+03  0.18925234738E+03  0.00000000000E+00 0. -1.
         21   -1    0    0  505  502 -0.00000000000E+00 -0.00000000000E+00 -0.31376268263E+03  0.31376268263E+03  0.00000000000E+00 0. -1.
         21    1    1    2  503  502 -0.23401438186E+01  0.14081704892E+03 -0.19679171130E+03  0.24199565115E+03  0.00000000000E+00 0. -1.
         21    1    1    2  504  503  0.12308819638E+01 -0.51778623628E+02  0.36501908142E+02  0.63363477124E+02  0.00000000000E+00 0.  1.
         21    1    1    2  505  501  0.82280191832E+01 -0.57468991508E+02 -0.67729547083E+02  0.89205811653E+02  0.00000000000E+00 0.  1.
         21    1    1    2  506  504 -0.71187573284E+01 -0.31569433788E+02  0.10350901499E+03  0.10845009009E+03  0.00000000000E+00 0. -1.
<scales pt_clust_3="78.76470" pt_clust_4="14000.00000" pt_clust_5="61.97255" pt_clust_6="32.36211"></scales>
<clustering>
<clus scale="   32.362">  1  6  2 -1</clus>
<clus scale="   61.973">  2  5  1 -1</clus>
<clus scale="   78.765">  2  3  1 -1</clus>
<clus scale="   32.362">  1  3  2 -1</clus>
</clustering>
</event>
<event>
 6    0  0.2036847E+002  0.1574362E+03  0.7546771E-02  0.1191622E+00
         21   -1    0    0  504  501  0.00000000000E+00  0.00000000000E+00  0.42806562655E+03  0.42806562655E+03  0.00000000000E+00 0. -1.
         21   -1    0    0  503  502 -0.00000000000E+00 -0.00000000000E+00 -0.11793872046E+03  0.11793872046E+03  0.00000000000E+00 0. -1.
         21    1    1    2  503  505 -0.28674951085E+02  0.22649746276E+02  0.38906359335E+00  0.36543333135E+02  0.00000000000E+00 0. -1.
         21    1    1    2  504  502 -0.32790046303E+01 -0.61382980243E+02  0.22186299931E+03  0.23022122534E+03  0.00000000000E+00 0. -1.
         21    1    1    2  505  506  0.19130768520E+02  0.14777204581E+03  0.20458360697E+02  0.15040315272E+03  0.00000000000E+00 0. -1.
         21    1    1    2  506  501  0.12823187196E+02 -0.10903881184E+03  0.67416482482E+02  0.12883663581E+03  0.00000000000E+00 0.  1.
<scales pt_clust_3="36.32200" pt_clust_4="61.47050" pt_clust_5="36.32200" pt_clust_6="139.30708"></scales>
<clustering>
<clus scale="   36.322">  3  5 -1 -1</clus>
<clus scale="   61.470">  1  4  2 -1</clus>
<clus scale="  139.307">  1  6  2 -1</clus>
<clus scale="   61.470">  1  3  2 -1</clus>
</clustering>
</event>
<event>
 6    0  0.2036847E+002  0.7659079E+02  0.7546771E-02  0.1339014E+00
         21   -1    0    0  505  501  0.00000000000E+00  0.00000000000E+00  0.18255875765E+03  0.18255875765E+03  0.00000000000E+00 0. -1.
         21   -1    0    0  506  502 -0.00000000000E+00 -0.00000000000E+00 -0.23938129586E+03  0.23938129586E+03  0.00000000000E+00 0. -1.
         21    1    1    2  503  502 -0.44978821482E+02  0.57920520462E+02 -0.14017937836E+03  0.15820284192E+03  0.00000000000E+00 0. -1.
         21    1    1    2  504  501 -0.45776973297E+02  0.13683954112E+01  0.50236723351E+02  0.67978909695E+02  0.00000000000E+00 0. -1.
         21    1    1    2  505  503  0.52749623391E+02 -0.78272234240E+02  0.86161961955E+02  0.12780042687E+03  0.00000000000E+00 0. -1.
         21    1    1    2  506  504  0.38006171388E+02  0.18983318367E+02 -0.53041845152E+02  0.67957875018E+02  0.00000000000E+00 0. -1.
<scales pt_clust_3="76.59079" pt_clust_4="43.95290" pt_clust_5="14000.00000" pt_clust_6="42.48335"></scales>
<clustering>
<clus scale="   42.483">  2  6  1 -1</clus>
<clus scale="   43.953">  1  4  2 -1</clus>
<clus scale="   76.591">  2  3  1 -1</clus>
<clus scale="   43.953">  1  3  2 -1</clus>
</clustering>
</event>
<event>
 6    0  0.2036847E+002  0.1895319E+03  0.7546771E-02  0.1158884E+00
         21   -1    0    0  503  501  0.00000000000E+00  0.00000000000E+00  0.29712487309E+03  0.29712487309E+03  0.00000000000E+00 0.  1.
         21   -1    0    0  504  502 -0.00000000000E+00 -0.00000000000E+00 -0.78796114953E+03  0.78796114953E+03  0.00000000000E+00 0. -1.
         21    1    1    2  503  506 -0.10396424955E+02  0.82270143586E+02  0.96445615901E+01  0.83483410003E+02  0.00000000000E+00 0. -1.
         21    1    1    2  504  501 -0.28848811767E+02  0.98828896770E+02  0.22676872342E+03  0.24904509371E+03  0.00000000000E+00 0.  1.
         21    1    1    2  505  502  0.44633563176E+02 -0.77500318406E+02 -0.35933744734E+03  0.37029968320E+03  0.00000000000E+00 0. -1.
         21    1    1    2  506  505 -0.53883264538E+01 -0.10359872195E+03 -0.36791211411E+03  0.38225783571E+03  0.00000000000E+00 0. -1.
<scales pt_clust_3="82.92444" pt_clust_4="181.13116" pt_clust_5="51.81189" pt_clust_6="51.81189"></scales>
<clustering>
<clus scale="   51.812">  5  6 -1 -1</clus>
<clus scale="   82.924">  1  3  2 -1</clus>
<clus scale="  181.131">  1  4  2 -1</clus>
<clus scale="   82.924">  1  3  2 -1</clus>
</clustering>
</event>
<event>
 6    0  0.2036847E+002  0.1438914E+03  0.7546771E-02  0.1208187E+00
         21   -1    0    0  503  501  0.00000000000E+00  0.00000000000E+00  0.19521472440E+04  0.19521472440E+04  0.00000000000E+00 0. -1.
         21   -1    0    0  505  502 -0.00000000000E+00 -0.00000000000E+00 -0.19807198645E+03  0.19807198645E+03  0.00000000000E+00 0.  1.
         21    1    1    2  503  502  0.12921474079E+03  0.49149412477E+02 -0.94714937961E+02  0.16757993154E+03  0.00000000000E+00 0.  1.
         21    1    1    2  504  506 -0.29155521394E+02 -0.66350611084E+02 -0.25554444899E+02  0.76847105821E+02  0.00000000000E+00 0.  1.
         21    1    1    2  505  504  0.25259196445E+02 -0.56006347820E+02  0.60758223358E+02  0.86407752585E+02  0.00000000000E+00 0.  1.
         21    1    1    2  506  501 -0.12531841584E+03  0.73207546427E+02  0.18135864170E+04  0.18193844405E+04  0.00000000000E+00 0. -1.
<scales pt_clust_3="143.89140" pt_clust_4="84.78141" pt_clust_5="61.43890" pt_clust_6="14000.00000"></scales>
<clustering>
<clus scale="   61.439">  2  5  1 -1</clus>
<clus scale="   84.781">  2  4  1 -1</clus>
<clus scale="  143.891">  2  3  1 -1</clus>
<clus scale="  143.891">  1  3  2 -1</clus>
</clustering>
</event>
<event>
 6    0  0.2036847E+002  0.1183920E+03  0.7546771E-02  0.1245774E+00
         21   -1    0    0  506  501  0.00000000000E+00  0.00000000000E+00  0.18306911038E+04  0.18306911038E+04  0.00000000000E+00 0.  1.
         21   -1    0    0  503  502 -0.00000000000E+00 -0.00000000000E+00 -0.13652226215E+03  0.13652226215E+03  0.00000000000E+00 0. -1.
         21    1    1    2  503  504  0.25579447233E+02  0.22722123957E+02  0.43996815548E+03  0.44129647730E+03  0.00000000000E+00 0.  1.
         21    1    1    2  504  501  0.85644263924E+02 -0.19694001986E+02  0.12258548787E+04  0.12290008045E+04  0.00000000000E+00 0.  1.
         21    1    1    2  505  502 -0.28571162590E+02  0.28961329648E+02 -0.11856050614E+03  0.12534617491E+03  0.00000000000E+00 0. -1.
         21    1    1    2  506  505 -0.82652548567E+02 -0.31989451618E+02  0.14690631358E+03  0.17156990928E+03  0.00000000000E+00 0. -1.
<scales pt_clust_3="31.48847" pt_clust_4="31.48847" pt_clust_5="40.68255" pt_clust_6="107.09768"></scales>
<clustering>
<clus scale="   31.488">  3  4 -1 -1</clus>
<clus scale="   40.683">  2  5  1 -1</clus>
<clus scale="  107.098">  2  6  1 -1</clus>
<clus scale="  118.392">  1  3  2 -1</clus>
</clustering>
</event>
<event>
 6    0  0.2036847E+002  0.1182226E+03  0.7546771E-02  0.1246058E+00
         21   -1    0    0  503  501  0.00000000000E+00  0.00000000000E+00  0.23857894172E+03  0.23857894172E+03  0.00000000000E+00 0.  1.
         21   -1    0    0  506  502 -0.00000000000E+00 -0.00000000000E+00 -0.90973269700E+02  0.90973269700E+02  0.00000000000E+00 0.  1.
         21    1    1    2  503  502  0.76021373018E+02  0.48424088276E+02  0.57552184067E+02  0.10694108365E+03  0.00000000000E+00 0.  1.
         21    1    1    2  504  501 -0.29637963270E+01  0.43143835809E+02  0.81055036696E+02  0.91869982207E+02  0.00000000000E+00 0.  1.
         21    1    1    2  505  504 -0.24807180357E+01 -0.37980875326E+02 -0.11548034812E+02  0.39775092212E+02  0.00000000000E+00 0.  1.
         21    1    1    2  506  505 -0.70576858655E+02 -0.53587048760E+02  0.20546486068E+02  0.90966053350E+02  0.00000000000E+00 0.  1.
<scales pt_clust_3="103.37507" pt_clust_4="43.24552" pt_clust_5="37.59242" pt_clust_6="37.59242"></scales>
<clustering>
<clus scale="   37.592">  5  6 -1 -1</clus>
<clus scale="   43.246">  1  4  2 -1</clus>
<clus scale="  103.375">  1  3  2 -1</clus>
<clus scale="   43.246">  1  3  2 -1</clus>
</clustering>
</event>
<event>
 6    0  0.2036847E+002  0.2263607E+03  0.7546771E-02  0.1129228E+00
         21   -1    0    0  506  501  0.00000000000E+00  0.00000000000E+00  0.36166109260E+03  0.36166109260E+03  0.00000000000E+00 0.  1.
         21   -1    0    0  503  502 -0.00000000000E+00 -0.00000000000E+00 -0.33175660549E+03  0.33175660549E+03  0.00000000000E+00 0.  1.
         21    1    1    2  503  504  0.20787334890E+03 -0.24104349198E+02 -0.15834107332E+03  0.26241997701E+03  0.00000000000E+00 0.  1.
         21    1    1    2  504  501  0.37145630981E+02 -0.90758776072E+02  0.46997517459E+01  0.98178617843E+02  0.00000000000E+00 0.  1.
         21    1    1    2  505  502 -0.83632230345E+02  0.41626848778E+02  0.10013280694E+03  0.13694423506E+03  0.00000000000E+00 0.  1.
         21    1    1    2  506  505 -0.16138674953E+03  0.73236276492E+02  0.83413001756E+02  0.19587486817E+03  0.00000000000E+00 0.  1.
<scales pt_clust_3="217.68672" pt_clust_4="98.06607" pt_clust_5="45.05856" pt_clust_6="45.05856"></scales>
<clustering>
<clus scale="   45.059">  5  6 -1 -1</clus>
<clus scale="   98.066">  1  4  2 -1</clus>
<clus scale="  217.687">  2  3  1 -1</clus>
<clus scale="   98.066">  1  3  2 -1</clus>
</clustering>
</event>
<event>
 6    0  0.2036847E+002  0.1478808E+03  0.7546771E-02  0.1203101E+00
         21   -1    0    0  505  501  0.00000000000E+00  0.00000000000E+00  0.54807374443E+02  0.54807374443E+02  0.00000000000E+00 0.  1.
         21   -1    0    0  504  502 -0.00000000000E+00 -0.00000000000E+00 -0.16485666297E+04  0.16485666297E+04  0.00000000000E+00 0.  1.
         21    1    1    2  503  501 -0.37360149939E+02 -0.55139322394E+02 -0.93465583565E+02  0.11476907680E+03  0.00000000000E+00 0.  1.
         21    1    1    2  504  503  0.55856621766E+02  0.23289046224E+02 -0.75923327135E+03  0.76164132122E+03  0.00000000000E+00 0.  1.
         21    1    1    2  505  506  0.26018126173E+02 -0.11000776643E+03 -0.56372532947E+02  0.12631909609E+03  0.00000000000E+00 0.  1.
         21    1    1    2  506  502 -0.44514598000E+02  0.14185804260E+03 -0.68468786738E+03  0.70064451002E+03  0.00000000000E+00 0.  1.
<scales pt_clust_3="60.79548" pt_clust_4="60.51729" pt_clust_5="147.88084" pt_clust_6="14000.00000"></scales>
<clustering>
<clus scale="   60.517">  2  4  1 -1</clus>
<clus scale="   60.795">  1  3  2 -1</clus>
<clus scale="  147.881">  1  5  2 -1</clus>
<clus scale="   60.795">  1  3  2 -1</clus>
</clustering>
</event>
<event>
 6    0  0.2036847E+002  0.1170974E+03  0.7546771E-02  0.1247964E+00
         21   -1    0    0  503  501  0.00000000000E+00  0.00000000000E+00  0.39277114584E+02  0.39277114584E+02  0.00000000000E+00 0.  1.
         21   -1    0    0  504  502 -0.00000000000E+00 -0.00000000000E+00 -0.53486659817E+03  0.53486659817E+03  0.00000000000E+00 0.  1.
         21    1    1    2  503  505  0.59243686642E+02  0.20450288767E+02 -0.82589968043E+02  0.10367801859E+03  0.00000000000E+00 0.  1.
         21    1    1    2  504  501 -0.46608154670E+02 -0.30226498602E+02 -0.13908161230E+03  0.14976533704E+03  0.00000000000E+00 0.  1.
         21    1    1    2  505  506  0.67008847597E+02 -0.29664203130E+02 -0.87153890873E+02  0.11386813118E+03  0.00000000000E+00 0.  1.
         21    1    1    2  506  502 -0.79644379570E+02  0.39440412965E+02 -0.18676401237E+03  0.20683222594E+03  0.00000000000E+00 0.  1.
<scales pt_clust_3="46.13577" pt_clust_4="55.55143" pt_clust_5="46.13577" pt_clust_6="105.93893"></scales>
<clustering>
<clus scale="   46.136">  3  5 -1 -1</clus>
<clus scale="   55.551">  2  4  1 -1</clus>
<clus scale="  105.939">  2  6  1 -1</clus>
<clus scale="  117.097">  1  3  2 -1</clus>
</clustering>
</event>
<event>
 6    0  0.2036847E+002  0.2271292E+03  0.7546771E-02  0.1128677E+00
         21   -1    0    0  503  501  0.00000000000E+00  0.00000000000E+00  0.12180873481E+04  0.12180873481E+04  0.00000000000E+00 0. -1.
         21   -1    0    0  505  502 -0.00000000000E+00 -0.00000000000E+00 -0.95286539945E+02  0.95286539945E+02  0.00000000000E+00 0.  1.
         21    1    1    2  503  504 -0.33023709645E+02 -0.25102529112E+01  0.75393948283E+02  0.82347520947E+02  0.00000000000E+00 0.  1.
         21    1    1    2  504  506  0.12879177076E+03 -0.10333815485E+03  0.66511315711E+02  0.17801643065E+03  0.00000000000E+00 0.  1.
         21    1    1    2  505  501 -0.12303068013E+03  0.16420325218E+03  0.96513033000E+03  0.98669945281E+03  0.00000000000E+00 0. -1.
         21    1    1    2  506  502  0.27262619017E+02 -0.58354844417E+02  0.15765214159E+02  0.66310483637E+02  0.00000000000E+00 0.  1.
<scales pt_clust_3="33.11898" pt_clust_4="30.77850" pt_clust_5="221.71838" pt_clust_6="30.77850"></scales>
<clustering>
<clus scale="   30.778">  4  6 -1 -1</clus>
<clus scale="   33.119">  1  3  2 -1</clus>
<clus scale="  221.718">  1  5  2 -1</clus>
<clus scale="   33.119">  1  3  2 -1</clus>
</clustering>
</event>
<event>
 6    0  0.2036847E+002  0.1074971E+03  0.7546771E-02  0.1265276E+00
         21   -1    0    0  504  501  0.00000000000E+00  0.00000000000E+00  0.45443916238E+03  0.45443916238E+03  0.00000000000E+00 0. -1.
         21   -1    0    0  503  502 -0.00000000000E+00 -0.00000000000E+00 -0.48555451091E+03  0.48555451091E+03  0.00000000000E+00 0. -1.
         21    1    1    2  503  506  0.28507705993E+02 -0.22277424395E+02 -0.45187868355E+02  0.57887100334E+02  0.00000000000E+00 0. -1.
         21    1    1    2  504  502 -0.75011802057E+02  0.31159439299E+02 -0.38956956419E+03  0.39794739156E+03  0.00000000000E+00 0. -1.
         21    1    1    2  505  501  0.11635141240E+03  0.12682544727E+02  0.39328204153E+03  0.41032823727E+03  0.00000000000E+00 0. -1.
         21    1    1    2  506  505 -0.69847316332E+02 -0.21564559631E+02  0.10360042488E+02  0.73830944131E+02  0.00000000000E+00 0. -1.
<scales pt_clust_3="36.17973" pt_clust_4="50.35310" pt_clust_5="107.49709" pt_clust_6="14000.00000"></scales>
<clustering>
<clus scale="   36.180">  2  3  1 -1</clus>
<clus scale="   50.353">  2  4  1 -1</clus>
<clus scale="  107.497">  1  5  2 -1</clus>
<clus scale="  107.497">  1  3  2 -1</clus>
</clustering>
</event>
<event>
 6    0  0.2036847E+002  0.4653202E+03  0.7546771E-02  0.1023249E+00
         21   -1    0    0  502  501  0.00000000000E+00  0.00000000000E+00  0.17158822549E+03  0.17158822549E+03  0.00000000000E+00 0. -1.
         21   -1    0    0  505  502 -0.00000000000E+00 -0.00000000000E+00 -0.12651858356E+04  0.12651858356E+04  0.00000000000E+00 0. -1.
         21    1    1    2  503  506 -0.38246814840E+03 -0.21911927620E+02 -0.54015959250E+03  0.66221930090E+03  0.00000000000E+00 0. -1.
         21    1    1    2  504  501  0.10394060030E+03 -0.24436309999E+02 -0.10365532146E+03  0.14881265841E+03  0.00000000000E+00 0. -1.
         21    1    1    2  505  503 -0.71833008845E+02 -0.23518710760E+02 -0.56150696970E+02  0.94159501304E+02  0.00000000000E+00 0.  1.
         21    1    1    2  506  504  0.35036055694E+03  0.69866948378E+02 -0.39363199919E+03  0.53158260047E+03  0.00000000000E+00 0. -1.
<scales pt_clust_3="39.90126" pt_clust_4="46.35460" pt_clust_5="39.90126" pt_clust_6="464.37380"></scales>
<clustering>
<clus scale="   39.901">  3  5 -1 -1</clus>
<clus scale="   46.355">  4  6 -1 -1</clus>
<clus scale="  464.374">  1  4  2 -1</clus>
<clus scale="  464.374">  1  3  2 -1</clus>
</clustering>
</event>
<event>
 6    0  0.2036847E+002  0.1629016E+03  0.7546771E-02  0.1185459E+00
         21   -1    0    0  506  501  0.00000000000E+00  0.00000000000E+00  0.12882470175E+03  0.12882470175E+03  0.00000000000E+00 0.  1.
         21   -1    0    0  505  502 -0.00000000000E+00 -0.00000000000E+00 -0.23037788078E+03  0.23037788078E+03  0.00000000000E+00 0. -1.
         21    1    1    2  503  502 -0.78963978730E+02  0.21854523266E+02 -0.74549813397E+02  0.11077276200E+03  0.00000000000E+00 0. -1.
         21    1    1    2  504  501  0.40674514575E+02 -0.39223974529E+02 -0.21982784430E+02  0.60631502745E+02  0.00000000000E+00 0.  1.
         21    1    1    2  505  504  0.88666056472E+02 -0.39871375379E+02  0.32904758010E+02  0.10263585750E+03  0.00000000000E+00 0.  1.
         21    1    1    2  506  503 -0.50376592317E+02  0.57240826642E+02 -0.37925339209E+02  0.85162460287E+02  0.00000000000E+00 0. -1.
<scales pt_clust_3="160.43675" pt_clust_4="45.43630" pt_clust_5="45.43630" pt_clust_6="50.63479"></scales>
<clustering>
<clus scale="   45.436">  4  5 -1 -1</clus>
<clus scale="   50.635">  3  6 -1 -1</clus>
<clus scale="  160.437">  2  3  1 -1</clus>
<clus scale="  162.902">  1  3  2 -1</clus>
</clustering>
</event>
<event>
 6    0  0.2036847E+002  0.9457790E+02  0.7546771E-02  0.1292130E+00
         21   -1    0    0  506  501  0.00000000000E+00  0.00000000000E+00  0.58177733347E+02  0.58177733347E+02  0.00000000000E+00 0.  1.
         21   -1    0    0  504  502 -0.00000000000E+00 -0.00000000000E+00 -0.13232960575E+04  0.13232960575E+04  0.00000000000E+00 0. -1.
         21    1    1    2  503  501  0.13194892636E+02  0.74078720167E+02 -0.20146631384E+02  0.77895113643E+02  0.00000000000E+00 0.  1.
         21    1    1    2  504  505 -0.51839345545E+02  0.15259139269E+02 -0.31236006543E+03  0.31699995198E+03  0.00000000000E+00 0. -1.
         21    1    1    2  505  503  0.99272767306E+01 -0.10479982030E+03 -0.94562273923E+03  0.95146409186E+03  0.00000000000E+00 0. -1.
         21    1    1    2  506  502  0.28717176179E+02  0.15461960865E+02  0.13011111913E+02  0.35114633341E+02  0.00000000000E+00 0.  1.
<scales pt_clust_3="14000.00000" pt_clust_4="52.48519" pt_clust_5="94.57790" pt_clust_6="32.61516"></scales>
<clustering>
<clus scale="   32.615">  1  6  2 -1</clus>
<clus scale="   52.485">  2  4  1 -1</clus>
<clus scale="   94.578">  2  5  1 -1</clus>
<clus scale="   32.615">  1  3  2 -1</clus>
</clustering>
</event>
<event>
 6    0  0.2036847E+002  0.7659754E+02  0.7546771E-02  0.1338994E+00
         21   -1    0    0  505  501  0.00000000000E+00  0.00000000000E+00  0.10868276749E+04  0.10868276749E+04  0.00000000000E+00 0. -1.
         21   -1    0    0  506  502 -0.00000000000E+00 -0.00000000000E+00 -0.82445049060E+02  0.82445049060E+02  0.00000000000E+00 0. -1.
         21    1    1    2  503  502 -0.44935759873E+02  0.69764459129E+02 -0.43882513647E+02  0.93872132590E+02  0.00000000000E+00 0. -1.
         21    1    1    2  504  503  0.51224016832E+02 -0.29262630521E+02  0.81279373526E+02  0.10043175796E+03  0.00000000000E+00 0. -1.
         21    1    1    2  505  504  0.16073423574E+02  0.35341628903E+02  0.48386111406E+03  0.48541627844E+03  0.00000000000E+00 0. -1.
         21    1    1    2  506  501 -0.22361680533E+02 -0.75843457511E+02  0.48312465192E+03  0.48955255499E+03  0.00000000000E+00 0. -1.
<scales pt_clust_3="76.59754" pt_clust_4="14000.00000" pt_clust_5="38.82507" pt_clust_6="48.22210"></scales>
<clustering>
<clus scale="   38.825">  1  5  2 -1</clus>
<clus scale="   48.222">  1  6  2 -1</clus>
<clus scale="   76.598">  2  3  1 -1</clus>
<clus scale="   38.825">  1  3  2 -1</clus>
</clustering>
</event>
<event>
 6    0  0.2036847E+002  0.2400096E+03  0.7546771E-02  0.1119786E+00
         21   -1    0    0  505  501  0.00000000000E+00  0.00000000000E+00  0.10913177262E+04  0.10913177262E+04  0.00000000000E+00 0.  1.
         21   -1    0    0  506  502 -0.00000000000E+00 -0.00000000000E+00 -0.92050802813E+02  0.92050802813E+02  0.00000000000E+00 0.  1.
         21    1    1    2  503  504  0.20726288650E+02  0.59028373122E+02  0.18650976917E+03  0.19672270299E+03  0.00000000000E+00 0.  1.
         21    1    1    2  504  501  0.55260412269E+02  0.52369440313E+02  0.43232178356E+03  0.43897425436E+03  0.00000000000E+00 0.  1.
         21    1    1    2  505  502 -0.87389224104E+02 -0.24174752541E+03  0.20487287207E+03  0.32871208716E+03  0.00000000000E+00 0.  1.
         21    1    1    2  506  503  0.11402523185E+02  0.13034971198E+03  0.17556249856E+03  0.21895948449E+03  0.00000000000E+00 0.  1.
<scales pt_clust_3="47.90132" pt_clust_4="76.13325" pt_clust_5="229.79461" pt_clust_6="47.90132"></scales>
<clustering>
<clus scale="   47.901">  3  6 -1 -1</clus>
<clus scale="   76.133">  1  4  2 -1</clus>
<clus scale="  229.795">  2  5  1 -1</clus>
<clus scale="   76.133">  1  3  2 -1</clus>
</clustering>
</event>
<event>
 6    0  0.2036847E+002  0.1156037E+03  0.7546771E-02  0.1250531E+00
         21   -1    0    0  506  501  0.00000000000E+00  0.00000000000E+00  0.10066878895E+03  0.10066878895E+03  0.00000000000E+00 0.  1.
         21   -1    0    0  503  502 -0.00000000000E+00 -0.00000000000E+00 -0.29483109895E+03  0.29483109895E+03  0.00000000000E+00 0.  1.
         21    1    1    2  503  504 -0.65872775995E+02 -0.47189394834E+02 -0.15650558966E+02  0.82528792540E+02  0.00000000000E+00 0.  1.
         21    1    1    2  504  501 -0.21436766115E+02 -0.45790792742E+02  0.35302926031E+02  0.61665454087E+02  0.00000000000E+00 0.  1.
         21    1    1    2  505  502  0.34864067334E+02  0.60559714266E+02 -0.12462038622E+03  0.14287485029E+03  0.00000000000E+00 0.  1.
         21    1    1    2  506  505  0.52445474776E+02  0.32420473310E+02 -0.89194290848E+02  0.10843079099E+03  0.00000000000E+00 0.  1.
<scales pt_clust_3="110.42952" pt_clust_4="50.56018" pt_clust_5="32.12387" pt_clust_6="32.12387"></scales>
<clustering>
<clus scale="   32.124">  5  6 -1 -1</clus>
<clus scale="   50.560">  1  4  2 -1</clus>
<clus scale="  110.430">  1  3  2 -1</clus>
<clus scale="   50.560">  1  3  2 -1</clus>
</clustering>
</event>
<event>
 6    0  0.2036847E+002  0.1707987E+03  0.7546771E-02  0.1177017E+00
         21   -1    0    0  506  501  0.00000000000E+00  0.00000000000E+00  0.13693707888E+03  0.13693707888E+03  0.00000000000E+00 0.  1.
         21   -1    0    0  505  502 -0.00000000000E+00 -0.00000000000E+00 -0.80255166837E+03  0.80255166837E+03  0.00000000000E+00 0.  1.
         21    1    1    2  503  504 -0.65912576662E+02  0.12053222121E+02 -0.21238219297E+03  0.22270146793E+03  0.00000000000E+00 0.  1.
         21    1    1    2  504  502 -0.91921996964E+02  0.33663054020E+02 -0.48013444997E+03  0.49001218840E+03  0.00000000000E+00 0.  1.
         21    1    1    2  505  501  0.18849438172E+03 -0.36346421361E+02  0.14905449658E+02  0.19254445387E+03  0.00000000000E+00 0.  1.
         21    1    1    2  506  503 -0.30659808097E+02 -0.93698547801E+01  0.11996603793E+02  0.34230637062E+02  0.00000000000E+00 0.  1.
<scales pt_clust_3="30.73109" pt_clust_4="30.73109" pt_clust_5="166.71078" pt_clust_6="32.05960"></scales>
<clustering>
<clus scale="   30.731">  3  4 -1 -1</clus>
<clus scale="   32.060">  1  6  2 -1</clus>
<clus scale="  166.711">  1  5  2 -1</clus>
<clus scale="   32.060">  1  3  2 -1</clus>
</clustering>
</event>
<event>
 6    0  0.2036847E+002  0.1306007E+03  0.7546771E-02  0.1226567E+00
         21   -1    0    0  505  501  0.00000000000E+00  0.00000000000E+00  0.12537019051E+03  0.12537019051E+03  0.00000000000E+00 0.  1.
         21   -1    0    0  503  502 -0.00000000000E+00 -0.00000000000E+00 -0.25522762247E+03  0.25522762247E+03  0.00000000000E+00 0.  1.
         21    1    1    2  503  504 -0.32439395663E+02  0.17990935923E+02 -0.11213087634E+02  0.38752051567E+02  0.00000000000E+00 0. -1.
         21    1    1    2  504  506 -0.64479656762E+02 -0.95226185249E+02 -0.12394585924E+03  0.16908053855E+03  0.00000000000E+00 0.  1.
         21    1    1    2  505  502  0.11217958004E+02 -0.29768559964E+02 -0.13175663006E+02  0.34432656589E+02  0.00000000000E+00 0.  1.
         21    1    1    2  506  501  0.85701094420E+02  0.10700380929E+03  0.18477177928E+02  0.13833256627E+03  0.00000000000E+00 0.  1.
<scales pt_clust_3="34.54828" pt_clust_4="14000.00000" pt_clust_5="31.81210" pt_clust_6="130.60075"></scales>
<clustering>
<clus scale="   31.812">  2  5  1 -1</clus>
<clus scale="   34.548">  2  3  1 -1</clus>
<clus scale="  130.601">  1  6  2 -1</clus>
<clus scale="  130.601">  1  3  2 -1</clus>
</clustering>
</event>
<event>
 6    0  0.2036847E+002  0.1771318E+03  0.7546771E-02  0.1170608E+00
         21   -1    0    0  503  501  0.00000000000E+00  0.00000000000E+00  0.98701077341E+02  0.98701077341E+02  0.00000000000E+00 0. -1.
         21   -1    0    0  504  502 -0.00000000000E+00 -0.00000000000E+00 -0.37345893619E+03  0.37345893619E+03  0.00000000000E+00 0. -1.
         21    1    1    2  503  505  0.59710209967E+02 -0.83331947626E+02 -0.25463863871E+02  0.10563110826E+03  0.00000000000E+00 0. -1.
         21    1    1    2  504  506 -0.23144087582E+02  0.44108896426E+02 -0.49628682979E+02  0.70315358977E+02  0.00000000000E+00 0. -1.
         21    1    1    2  505  502  0.74515834042E+02 -0.11525585421E+01 -0.13558882764E+02  0.75748143317E+02  0.00000000000E+00 0. -1.
         21    1    1    2  506  501 -0.11108195643E+03  0.40375609742E+02 -0.18610642924E+03  0.22046540298E+03  0.00000000000E+00 0. -1.
<scales pt_clust_3="67.25095" pt_clust_4="40.16680" pt_clust_5="67.25095" pt_clust_6="170.24221"></scales>
<clustering>
<clus scale="   40.167">  4  6 -1 -1</clus>
<clus scale="   67.251">  3  5 -1 -1</clus>
<clus scale="  170.242">  2  4  1 -1</clus>
<clus scale="  177.132">  1  3  2 -1</clus>
</clustering>
</event>
<event>
 6    0  0.2036847E+002  0.2609539E+03  0.7546771E-02  0.1106571E+00
         21   -1    0    0  504  501  0.00000000000E+00  0.00000000000E+00  0.11721632077E+04  0.11721632077E+04  0.00000000000E+00 0. -1.
         21   -1    0    0  503  502 -0.00000000000E+00 -0.00000000000E+00 -0.66486342302E+02  0.66486342302E+02  0.00000000000E+00 0. -1.
         21    1    1    2  503  505  0.86042370096E+02  0.27763589893E+02  0.10312722672E+03  0.13714711542E+03  0.00000000000E+00 0. -1.
         21    1    1    2  504  502 -0.19072373310E+02  0.29314008532E+02  0.39034522877E+02  0.52409545850E+02  0.00000000000E+00 0.  1.
         21    1    1    2  505  506  0.15258272790E+03 -0.99694617590E+02  0.32609405729E+03  0.37357441003E+03  0.00000000000E+00 0. -1.
         21    1    1    2  506  501 -0.21955272469E+03  0.42617019165E+02  0.63742105846E+03  0.67551847866E+03  0.00000000000E+00 0. -1.
<scales pt_clust_3="86.85699" pt_clust_4="34.97237" pt_clust_5="86.85699" pt_clust_6="231.53267"></scales>
<clustering>
<clus scale="   34.972">  2  4  1 -1</clus>
<clus scale="   86.857">  3  5 -1 -1</clus>
<clus scale="  231.533">  1  6  2 -1</clus>
<clus scale="  231.533">  1  3  2 -1</clus>
</clustering>
</event>
<event>
 6    0  0.2036847E+002  0.1311792E+03  0.7546771E-02  0.1225716E+00
         21   -1    0    0  503  501  0.00000000000E+00  0.00000000000E+00  0.37132350450E+03  0.37132350450E+03  0.00000000000E+00 0. -1.
         21   -1    0    0  505  502 -0.00000000000E+00 -0.00000000000E+00 -0.13016869582E+04  0.13016869582E+04  0.00000000000E+00 0. -1.
         21    1    1    2  503  506 -0.39666316516E+02 -0.22950642411E+02  0.23244764845E+03  0.23692205031E+03  0.00000000000E+00 0. -1.
         21    1    1    2  504  502  0.47504912382E+02  0.10817580972E+03 -0.10585384893E+04  0.10651114757E+04  0.00000000000E+00 0. -1.
         21    1    1    2  505  501  0.54244863460E+02 -0.20291547897E+02 -0.21827691880E+03  0.22582972658E+03  0.00000000000E+00 0. -1.
         21    1    1    2  506  504 -0.62083459326E+02 -0.64933619408E+02  0.11400430586E+03  0.14514721012E+03  0.00000000000E+00 0. -1.
<scales pt_clust_3="45.82738" pt_clust_4="131.17924" pt_clust_5="57.11972" pt_clust_6="14000.00000"></scales>
<clustering>
<clus scale="   45.827">  1  3  2 -1</clus>
<clus scale="   57.120">  2  5  1 -1</clus>
<clus scale="  131.179">  2  4  1 -1</clus>
<clus scale="   45.827">  1  3  2 -1</clus>
</clustering>
</event>
<event>
 6    0  0.2036847E+002  0.9317071E+02  0.7546771E-02  0.1295350E+00
         21   -1    0    0  505  501  0.00000000000E+00  0.00000000000E+00  0.34693924879E+03  0.34693924879E+03  0.00000000000E+00 0.  1.
         21   -1    0    0  503  502 -0.00000000000E+00 -0.00000000000E+00 -0.26170206476E+03  0.26170206476E+03  0.00000000000E+00 0. -1.
         21    1    1    2  503  506  0.25636122908E+02  0.48122085528E+02  0.69269836807E+02  0.88154728771E+02  0.00000000000E+00 0.  1.
         21    1    1    2  504  502 -0.23382810479E+02 -0.95803447814E+02 -0.21753593559E+03  0.23884501190E+03  0.00000000000E+00 0. -1.
         21    1    1    2  505  504  0.39969987861E+02 -0.16150485994E+02  0.84485419539E+01  0.43929670937E+02  0.00000000000E+00 0. -1.
         21    1    1    2  506  501 -0.42223300290E+02  0.63831848280E+02  0.22505474086E+03  0.23771190194E+03  0.00000000000E+00 0.  1.
<scales pt_clust_3="93.17071" pt_clust_4="14000.00000" pt_clust_5="43.10961" pt_clust_6="53.87169"></scales>
<clustering>
<clus scale="   43.110">  1  5  2 -1</clus>
<clus scale="   53.872">  1  6  2 -1</clus>
<clus scale="   93.171">  1  3  2 -1</clus>
<clus scale="   43.110">  1  3  2 -1</clus>
</clustering>
</event>
<event>
 6    0  0.2036847E+002  0.8179360E+02  0.7546771E-02  0.1324037E+00
         21   -1    0    0  506  501  0.00000000000E+00  0.00000000000E+00  0.69833135723E+02  0.69833135723E+02  0.00000000000E+00 0.  1.
         21   -1    0    0  504  502 -0.00000000000E+00 -0.00000000000E+00 -0.57229867303E+03  0.57229867303E+03  0.00000000000E+00 0.  1.
         21    1    1    2  503  501  0.57070599179E+02 -0.91714093233E+02 -0.63626484119E+02  0.12536689224E+03  0.00000000000E+00 0.  1.
         21    1    1    2  504  503  0.29474197663E+02  0.99482567666E+01 -0.52679935768E+02  0.61179014156E+02  0.00000000000E+00 0. -1.
         21    1    1    2  505  502 -0.60398838873E+02  0.57829754428E+02 -0.40630012029E+03  0.41481572774E+03  0.00000000000E+00 0.  1.
         21    1    1    2  506  505 -0.26145957970E+02  0.23936082038E+02  0.20141002872E+02  0.40770174616E+02  0.00000000000E+00 0.  1.
<scales pt_clust_3="14000.00000" pt_clust_4="31.10781" pt_clust_5="81.79360" pt_clust_6="35.15138"></scales>
<clustering>
<clus scale="   31.108">  2  4  1 -1</clus>
<clus scale="   35.151">  1  6  2 -1</clus>
<clus scale="   81.794">  2  5  1 -1</clus>
<clus scale="   35.151">  1  3  2 -1</clus>
</clustering>
</event>
<event>
 6    0  0.2036847E+002  0.9981056E+02  0.7546771E-02  0.1280695E+00
         21   -1    0    0  504  501  0.00000000000E+00  0.00000000000E+00  0.12110244350E+04  0.12110244350E+04  0.00000000000E+00 0.  1.
         21   -1    0    0  506  502 -0.00000000000E+00 -0.00000000000E+00 -0.58409886282E+02  0.58409886282E+02  0.00000000000E+00 0.  1.
         21    1    1    2  503  501 -0.21823150706E+01  0.42327593153E+02  0.53546856901E+03  0.53714334776E+03  0.00000000000E+00 0.  1.
         21    1    1    2  504  505  0.78417117467E+02  0.26612011997E+02  0.54609262025E+03  0.55233558041E+03  0.00000000000E+00 0.  1.
         21    1    1    2  505  502 -0.67645642596E+02 -0.10228455529E+03  0.29760003472E+02  0.12618922703E+03  0.00000000000E+00 0.  1.
         21    1    1    2  506  503 -0.85891597999E+01  0.33344950136E+02  0.41293355936E+02  0.53766166035E+02  0.00000000000E+00 0.  1.
<scales pt_clust_3="42.92553" pt_clust_4="14000.00000" pt_clust_5="99.81056" pt_clust_6="34.43340"></scales>
<clustering>
<clus scale="   34.433">  2  6  1 -1</clus>
<clus scale="   42.926">  1  3  2 -1</clus>
<clus scale="   99.811">  2  5  1 -1</clus>
<clus scale="   42.926">  1  3  2 -1</clus>
</clustering>
</event>
<event>
 6    0  0.2036847E+002  0.2010828E+03  0.7546771E-02  0.1148829E+00
         21   -1    0    0  503  501  0.00000000000E+00  0.00000000000E+00  0.55775273116E+03  0.55775273116E+03  0.00000000000E+00 0. -1.
         21   -1    0    0  506  502 -0.00000000000E+00 -0.00000000000E+00 -0.19737789550E+03  0.19737789550E+03  0.00000000000E+00 0.  1.
         21    1    1    2  503  504 -0.44740693326E+02  0.69003233634E+02  0.73616559609E+02  0.11037469701E+03  0.00000000000E+00 0. -1.
         21    1    1    2  504  502 -0.13612250809E+03  0.56240904825E+02  0.34648303245E+03  0.37648754077E+03  0.00000000000E+00 0. -1.
         21    1    1    2  505  501  0.14643166501E+03 -0.15439451178E+03 -0.65835309505E+02  0.22274242021E+03  0.00000000000E+00 0.  1.
         21    1    1    2  506  505  0.34431536408E+02  0.29150373320E+02  0.61105531103E+01  0.45525968671E+02  0.00000000000E+00 0.  1.
<scales pt_clust_3="82.96021" pt_clust_4="201.08277" pt_clust_5="14000.00000" pt_clust_6="45.11402"></scales>
<clustering>
<clus scale="   45.114">  2  6  1 -1</clus>
<clus scale="   82.960">  1  3  2 -1</clus>
<clus scale="  201.083">  1  4  2 -1</clus>
<clus scale="   82.960">  1  3  2 -1</clus>
</clustering>
</event>
<event>
 6    0  0.2036847E+002  0.7458733E+02  0.7546771E-02  0.1345154E+00
         21   -1    0    0  505  501  0.00000000000E+00  0.00000000000E+00  0.32263560110E+03  0.32263560110E+03  0.00000000000E+00 0.  1.
         21   -1    0    0  504  502 -0.00000000000E+00 -0.00000000000E+00 -0.99567564826E+02  0.99567564826E+02  0.00000000000E+00 0. -1.
         21    1    1    2  503  502 -0.40753277560E+02 -0.67701141291E+01 -0.28683008684E+02  0.50292932549E+02  0.00000000000E+00 0. -1.
         21    1    1    2  504  506  0.42817890439E+02 -0.37544122965E+02 -0.53561712088E+01  0.57198089836E+02  0.00000000000E+00 0. -1.
         21    1    1    2  505  503  0.51435783216E+02  0.86378118222E+02  0.92589141293E+02  0.13667321679E+03  0.00000000000E+00 0. -1.
         21    1    1    2  506  501 -0.53500396095E+02 -0.42063881127E+02  0.16451807487E+03  0.17803892675E+03  0.00000000000E+00 0.  1.
<scales pt_clust_3="41.31179" pt_clust_4="46.40339" pt_clust_5="14000.00000" pt_clust_6="74.58733"></scales>
<clustering>
<clus scale="   41.312">  2  3  1 -1</clus>
<clus scale="   46.403">  2  4  1 -1</clus>
<clus scale="   74.587">  1  6  2 -1</clus>
<clus scale="   74.587">  1  3  2 -1</clus>
</clustering>
</event>
<event>
 6    0  0.2036847E+002  0.9963628E+02  0.7546771E-02  0.1281063E+00
         21   -1    0    0  503  501  0.00000000000E+00  0.00000000000E+00  0.11609718783E+03  0.11609718783E+03  0.00000000000E+00 0.  1.
         21   -1    0    0  506  502 -0.00000000000E+00 -0.00000000000E+00 -0.57242343422E+03  0.57242343422E+03  0.00000000000E+00 0.  1.
         21    1    1    2  503  505  0.53756654211E+02 -0.85292762591E+02  0.28576371729E+02  0.10479142257E+03  0.00000000000E+00 0.  1.
         21    1    1    2  504  502 -0.61887358809E+02  0.13156551600E+02 -0.12876461703E+03  0.14346939266E+03  0.00000000000E+00 0.  1.
         21    1    1    2  505  504 -0.51807807629E+02 -0.46607856356E+02 -0.27667740046E+03  0.28531863789E+03  0.00000000000E+00 0.  1.
         21    1    1    2  506  501  0.59938512227E+02  0.11874406735E+03 -0.79460600625E+02  0.15494116893E+03  0.00000000000E+00 0.  1.
<scales pt_clust_3="97.04641" pt_clust_4="63.27037" pt_clust_5="14000.00000" pt_clust_6="99.63628"></scales>
<clustering>
<clus scale="   63.270">  2  4  1 -1</clus>
<clus scale="   97.046">  1  3  2 -1</clus>
<clus scale="   99.636">  1  6  2 -1</clus>
<clus scale="   97.046">  1  3  2 -1</clus>
</clustering>
</event>
<event>
 6    0  0.2036847E+002  0.1135958E+03  0.7546771E-02  0.1254052E+00
         21   -1    0    0  504  501  0.00000000000E+00  0.00000000000E+00  0.83172153584E+03  0.83172153584E+03  0.00000000000E+00 0. -1.
         21   -1    0    0  505  502 -0.00000000000E+00 -0.00000000000E+00 -0.18516125664E+03  0.18516125664E+03  0.00000000000E+00 0.  1.
         21    1    1    2  503  501  0.86651126793E+02  0.56608617308E+02  0.46979578182E+03  0.48106239714E+03  0.00000000000E+00 0. -1.
         21    1    1    2  504  502  0.22856327545E+02 -0.26853982594E+02  0.29001706176E+03  0.29215311773E+03  0.00000000000E+00 0. -1.
         21    1    1    2  505  506  0.57739466259E+01  0.49442948183E+02 -0.88629406174E+02  0.10165193172E+03  0.00000000000E+00 0.  1.
         21    1    1    2  506  503 -0.11528140096E+03 -0.79197582897E+02 -0.24623158212E+02  0.14201534588E+03  0.00000000000E+00 0.  1.
<scales pt_clust_3="14000.00000" pt_clust_4="35.26398" pt_clust_5="49.49062" pt_clust_6="113.59581"></scales>
<clustering>
<clus scale="   35.264">  1  4  2 -1</clus>
<clus scale="   49.491">  2  5  1 -1</clus>
<clus scale="  113.596">  2  6  1 -1</clus>
<clus scale="   35.264">  1  3  2 -1</clus>
</clustering>
</event>
<event>
 6    0  0.2036847E+002  0.1870626E+03  0.7546771E-02  0.1161138E+00
         21   -1    0    0  504  501  0.00000000000E+00  0.00000000000E+00  0.12491318071E+04  0.12491318071E+04  0.00000000000E+00 0.  1.
         21   -1    0    0  501  502 -0.00000000000E+00 -0.00000000000E+00 -0.31786505404E+02  0.31786505404E+02  0.00000000000E+00 0.  1.
         21    1    1    2  503  502  0.63701042063E+02  0.28764047314E+02  0.89109218344E+02  0.11325036853E+03  0.00000000000E+00 0.  1.
         21    1    1    2  504  505 -0.11337382181E+03  0.27282076844E+01  0.70510887946E+03  0.71417056680E+03  0.00000000000E+00 0.  1.
         21    1    1    2  505  506 -0.54817078202E+02 -0.44125849573E+01  0.13162220816E+03  0.14264918033E+03  0.00000000000E+00 0.  1.
         21    1    1    2  506  503  0.10448985795E+03 -0.27079670041E+02  0.29150499570E+03  0.31084819681E+03  0.00000000000E+00 0.  1.
<scales pt_clust_3="65.87312" pt_clust_4="184.44827" pt_clust_5="52.71363" pt_clust_6="65.87312"></scales>
<clustering>
<clus scale="   52.714">  4  5 -1 -1</clus>
<clus scale="   65.873">  3  6 -1 -1</clus>
<clus scale="  184.448">  1  4  2 -1</clus>
<clus scale="  184.448">  1  3  2 -1</clus>
</clustering>
</event>
<event>
 6    0  0.2036847E+002  0.1195842E+03  0.7546771E-02  0.1243785E+00
         21   -1    0    0  506  501  0.00000000000E+00  0.00000000000E+00  0.19476147377E+04  0.19476147377E+04  0.00000000000E+00 0. -1.
         21   -1    0    0  503  502 -0.00000000000E+00 -0.00000000000E+00 -0.32575851102E+02  0.32575851102E+02  0.00000000000E+00 0. -1.
         21    1    1    2  503  504  0.13095315038E+01 -0.77542735596E+02  0.10078979544E+03  0.12717379283E+03  0.00000000000E+00 0. -1.
         21    1    1    2  504  505 -0.95270106480E+00 -0.39442781886E+02  0.10671045747E+02  0.40871896207E+02  0.00000000000E+00 0.  1.
         21    1    1    2  505  501 -0.65720014648E+02  0.61238948701E+02  0.97123682728E+03  0.97538213220E+03  0.00000000000E+00 0. -1.
         21    1    1    2  506  502  0.65363184209E+02  0.55746568781E+02  0.83234121810E+03  0.83676276753E+03  0.00000000000E+00 0. -1.
<scales pt_clust_3="32.91889" pt_clust_4="32.91889" pt_clust_5="110.31901" pt_clust_6="85.90708"></scales>
<clustering>
<clus scale="   32.919">  3  4 -1 -1</clus>
<clus scale="   85.907">  1  6  2 -1</clus>
<clus scale="  110.319">  1  5  2 -1</clus>
<clus scale="   85.907">  1  3  2 -1</clus>
</clustering>
</event>
<event>
 6    0  0.2110308E+002  0.1077321E+03  0.7546771E-02  0.1264828E+00
         21   -1    0    0  504  501  0.00000000000E+00  0.00000000000E+00  0.85768582903E+03  0.85768582903E+03  0.00000000000E+00 0. -1.
         21   -1    0    0  506  502 -0.00000000000E+00 -0.00000000000E+00 -0.14528582387E+04  0.14528582387E+04  0.00000000000E+00 0.  1.
         21    1    1    2  503  502  0.19380980112E+02 -0.70790375256E+02 -0.23297145543E+02  0.77004263580E+02  0.00000000000E+00 0. -1.
         21    1    1    2  504  503  0.42251481390E+02  0.35180051068E+02  0.70324709586E+03  0.70539301209E+03  0.00000000000E+00 0. -1.
         21    1    1    2  505  501 -0.47112852536E+02 -0.74038334311E+02  0.10881719313E+03  0.13979441099E+03  0.00000000000E+00 0. -1.
         21    1    1    2  506  505 -0.14519608965E+02  0.10964865850E+03 -0.13839395531E+04  0.13883523810E+04  0.00000000000E+00 0.  1.
<scales pt_clust_3="14000.00000" pt_clust_4="54.98021" pt_clust_5="47.30775" pt_clust_6="107.73208"></scales>
<clustering>
<clus scale="   54.980">  1  4  2 -1</clus>
<clus scale="   47.308">  1  5  2 -1</clus>
<clus scale="  107.732">  2  6  1 -1</clus>
<clus scale="   54.980">  1  3  2 -1</clus>
</clustering>
</event>
<event>
 6    0  0.2036847E+002  0.1845672E+03  0.7546771E-02  0.1163455E+00
         21   -1    0    0  503  501  0.00000000000E+00  0.00000000000E+00  0.11532547326E+04  0.11532547326E+04  0.00000000000E+00 0. -1.
         21   -1    0    0  506  502 -0.00000000000E+00 -0.00000000000E+00 -0.16846539159E+03  0.16846539159E+03  0.00000000000E+00 0. -1.
         21    1    1    2  503  505  0.11526403413E+03  0.12619369720E+03  0.73596996357E+03  0.75555438855E+03  0.00000000000E+00 0. -1.
         21    1    1    2  504  502 -0.44886843268E+02  0.95097112785E+01  0.67916679920E+01  0.46383079472E+02  0.00000000000E+00 0. -1.
         21    1    1    2  505  504 -0.20805646506E+03 -0.15788425418E+03  0.27205455833E+03  0.37713208969E+03  0.00000000000E+00 0. -1.
         21    1    1    2  506  501  0.13767927419E+03  0.22180845701E+02 -0.30026848889E+02  0.14265056646E+03  0.00000000000E+00 0. -1.
<scales pt_clust_3="14000.00000" pt_clust_4="45.88315" pt_clust_5="184.56720" pt_clust_6="114.99842"></scales>
<clustering>
<clus scale="   45.883">  2  4  1 -1</clus>
<clus scale="  114.998">  2  6  1 -1</clus>
<clus scale="  184.567">  2  5  1 -1</clus>
<clus scale="  184.567">  1  3  2 -1</clus>
</clustering>
</event>
<event>
 6    0  0.2036847E+002  0.1181081E+03  0.7546771E-02  0.1246251E+00
         21   -1    0    0  506  501  0.00000000000E+00  0.00000000000E+00  0.98438490324E+03  0.98438490324E+03  0.00000000000E+00 0.  1.
         21   -1    0    0  505  502 -0.00000000000E+00 -0.00000000000E+00 -0.16786559483E+03  0.16786559483E+03  0.00000000000E+00 0. -1.
         21    1    1    2  503  504 -0.14120969074E+03 -0.23660790739E+01  0.28293532214E+03  0.31622487506E+03  0.00000000000E+00 0.  1.
         21    1    1    2  504  501  0.94564455502E+02 -0.69892670929E+02  0.64776670637E+03  0.65835334553E+03  0.00000000000E+00 0.  1.
         21    1    1    2  505  503  0.88904547574E+01  0.33560520111E+02  0.14857680486E+02  0.37763730818E+02  0.00000000000E+00 0.  1.
         21    1    1    2  506  502  0.37754780483E+02  0.38698229892E+02 -0.12904040059E+03  0.13990854666E+03  0.00000000000E+00 0. -1.
<scales pt_clust_3="118.10811" pt_clust_4="14000.00000" pt_clust_5="34.71813" pt_clust_6="81.38934"></scales>
<clustering>
<clus scale="   34.718">  2  5  1 -1</clus>
<clus scale="   81.389">  2  6  1 -1</clus>
<clus scale="  118.108">  2  3  1 -1</clus>
<clus scale="  118.108">  1  3  2 -1</clus>
</clustering>
</event>
<event>
 6    0  0.2036847E+002  0.1511971E+03  0.7546771E-02  0.1199010E+00
         21   -1    0    0  505  501  0.00000000000E+00  0.00000000000E+00  0.54413730064E+03  0.54413730064E+03  0.00000000000E+00 0.  1.
         21   -1    0    0  504  502 -0.00000000000E+00 -0.00000000000E+00 -0.18232922860E+03  0.18232922860E+03  0.00000000000E+00 0. -1.
         21    1    1    2  503  501  0.12583631831E+03 -0.64300571899E+01  0.16908469431E+03  0.21086905531E+03  0.00000000000E+00 0. -1.
         21    1    1    2  504  503  0.17878409446E+02 -0.15058612902E+03 -0.48327653581E+02  0.15915835472E+03  0.00000000000E+00 0. -1.
         21    1    1    2  505  506 -0.16819121326E+03  0.13960233563E+03  0.24236579621E+03  0.32637137666E+03  0.00000000000E+00 0.  1.
         21    1    1    2  506  502  0.24476485508E+02  0.17413850582E+02 -0.13147648969E+01  0.30067742543E+02  0.00000000000E+00 0.  1.
<scales pt_clust_3="128.97499" pt_clust_4="14000.00000" pt_clust_5="151.19707" pt_clust_6="30.03898"></scales>
<clustering>
<clus scale="   30.039">  2  6  1 -1</clus>
<clus scale="  128.975">  1  3  2 -1</clus>
<clus scale="  151.197">  1  5  2 -1</clus>
<clus scale="  128.975">  1  3  2 -1</clus>
</clustering>
</event>
<event>
 6    0  0.2036847E+002  0.7737843E+02  0.7546771E-02  0.1336660E+00
         21   -1    0    0  505  501  0.00000000000E+00  0.00000000000E+00  0.17214135053E+03  0.17214135053E+03  0.00000000000E+00 0.  1.
         21   -1    0    0  506  502 -0.00000000000E+00 -0.00000000000E+00 -0.28551764942E+03  0.28551764942E+03  0.00000000000E+00 0.  1.
         21    1    1    2  503  501  0.29042701128E+02  0.67818622874E+02  0.70519978138E+02  0.10205837258E+03  0.00000000000E+00 0.  1.
         21    1    1    2  504  503 -0.65743740118E+02 -0.58417925922E+02  0.52013262118E+02  0.10217765348E+03  0.00000000000E+00 0.  1.
         21    1    1    2  505  502 -0.54304604368E+01 -0.39550858484E+02 -0.86022244377E+02  0.94834523435E+02  0.00000000000E+00 0.  1.
         21    1    1    2  506  504  0.42131499427E+02  0.30150161532E+02 -0.14988729477E+03  0.15858845046E+03  0.00000000000E+00 0.  1.
<scales pt_clust_3="77.37843" pt_clust_4="14000.00000" pt_clust_5="39.92193" pt_clust_6="37.85471"></scales>
<clustering>
<clus scale="   39.922">  2  5  1 -1</clus>
<clus scale="   37.855">  2  6  1 -1</clus>
<clus scale="   77.378">  1  3  2 -1</clus>
<clus scale="   77.378">  1  3  2 -1</clus>
</clustering>
</event>
<event>
 6    0  0.2036847E+002  0.1074519E+03  0.7546771E-02  0.1265363E+00
         21   -1    0    0  504  501  0.00000000000E+00  0.00000000000E+00  0.30453408523E+02  0.30453408523E+02  0.00000000000E+00 0.  1.
         21   -1    0    0  503  502 -0.00000000000E+00 -0.00000000000E+00 -0.10252707628E+04  0.10252707628E+04  0.00000000000E+00 0.  1.
         21    1    1    2  503  505 -0.79243845363E+01  0.31837813353E+02 -0.35194727936E+03  0.35347323757E+03  0.00000000000E+00 0.  1.
         21    1    1    2  504  506 -0.80745987255E+02 -0.54875083257E+02 -0.11032432169E+03  0.14731817666E+03  0.00000000000E+00 0.  1.
         21    1    1    2  505  501  0.72170456675E+01 -0.39429041403E+02 -0.65922398456E+02  0.77152431409E+02  0.00000000000E+00 0.  1.
         21    1    1    2  506  502  0.81453326124E+02  0.62466311307E+02 -0.46662335477E+03  0.47778032567E+03  0.00000000000E+00 0.  1.
<scales pt_clust_3="32.80918" pt_clust_4="14000.00000" pt_clust_5="36.60189" pt_clust_6="107.45192"></scales>
<clustering>
<clus scale="   32.809">  2  3  1 -1</clus>
<clus scale="   36.602">  1  5  2 -1</clus>
<clus scale="  107.452">  2  6  1 -1</clus>
<clus scale="   36.602">  1  3  2 -1</clus>
</clustering>
</event>
<event>
 6    0  0.2036847E+002  0.1510332E+03  0.7546771E-02  0.1199209E+00
         21   -1    0    0  503  501  0.00000000000E+00  0.00000000000E+00  0.15571844390E+03  0.15571844390E+03  0.00000000000E+00 0.  1.
         21   -1    0    0  505  502 -0.00000000000E+00 -0.00000000000E+00 -0.61904385769E+03  0.61904385769E+03  0.00000000000E+00 0. -1.
         21    1    1    2  503  502 -0.95716341757E+01 -0.96452742470E+02  0.10126005759E+03  0.14017256141E+03  0.00000000000E+00 0.  1.
         21    1    1    2  504  501  0.44323429191E+01 -0.51112619041E+02 -0.22983326351E+01  0.51355893740E+02  0.00000000000E+00 0.  1.
         21    1    1    2  505  506  0.24192064823E+02  0.66379131658E+02 -0.28874213959E+03  0.29725993389E+03  0.00000000000E+00 0. -1.
         21    1    1    2  506  504 -0.19052773566E+02  0.81186229852E+02 -0.27354499914E+03  0.28597391254E+03  0.00000000000E+00 0. -1.
<scales pt_clust_3="143.58996" pt_clust_4="51.30444" pt_clust_5="43.10310" pt_clust_6="43.10310"></scales>
<clustering>
<clus scale="   43.103">  5  6 -1 -1</clus>
<clus scale="   51.304">  1  4  2 -1</clus>
<clus scale="  143.590">  1  3  2 -1</clus>
<clus scale="   51.304">  1  3  2 -1</clus>
</clustering>
</event>
<event>
 6    0  0.2036847E+002  0.1254670E+03  0.7546771E-02  0.1234341E+00
         21   -1    0    0  505  501  0.00000000000E+00  0.00000000000E+00  0.17583534884E+04  0.17583534884E+04  0.00000000000E+00 0. -1.
         21   -1    0    0  504  502 -0.00000000000E+00 -0.00000000000E+00 -0.80651812677E+03  0.80651812677E+03  0.00000000000E+00 0. -1.
         21    1    1    2  503  502 -0.64872516306E+02  0.14067987427E+03 -0.64076304619E+03  0.65922420447E+03  0.00000000000E+00 0. -1.
         21    1    1    2  504  506  0.79792131060E+02 -0.47058222912E+02 -0.13838212037E+03  0.16652588916E+03  0.00000000000E+00 0.  1.
         21    1    1    2  505  503  0.46862110598E+01 -0.38787897453E+02  0.15127660390E+04  0.15132704816E+04  0.00000000000E+00 0. -1.
         21    1    1    2  506  501 -0.19605825813E+02 -0.54833753907E+02  0.21821448919E+03  0.22585103999E+03  0.00000000000E+00 0. -1.
<scales pt_clust_3="125.46699" pt_clust_4="14000.00000" pt_clust_5="39.06996" pt_clust_6="91.24049"></scales>
<clustering>
<clus scale="   39.070">  1  5  2 -1</clus>
<clus scale="   91.240">  1  6  2 -1</clus>
<clus scale="  125.467">  2  3  1 -1</clus>
<clus scale="   39.070">  1  3  2 -1</clus>
</clustering>
</event>
<event>
 6    0  0.2036847E+002  0.1684787E+03  0.7546771E-02  0.1179444E+00
         21   -1    0    0  506  501  0.00000000000E+00  0.00000000000E+00  0.16940208292E+03  0.16940208292E+03  0.00000000000E+00 0. -1.
         21   -1    0    0  501  502 -0.00000000000E+00 -0.00000000000E+00 -0.47722089690E+03  0.47722089690E+03  0.00000000000E+00 0.  1.
         21    1    1    2  503  502  0.15890778296E+02  0.36316574728E+02 -0.17309002688E+03  0.17757130354E+03  0.00000000000E+00 0.  1.
         21    1    1    2  504  503  0.61299465261E+02  0.10332165073E+03 -0.24140050484E+03  0.26964271117E+03  0.00000000000E+00 0.  1.
         21    1    1    2  505  504 -0.18622647721E+02 -0.47194093995E+02  0.66838175083E+01  0.51173811004E+02  0.00000000000E+00 0. -1.
         21    1    1    2  506  505 -0.58567595836E+02 -0.92444131465E+02  0.99987900221E+02  0.14823515411E+03  0.00000000000E+00 0. -1.
<scales pt_clust_3="30.07271" pt_clust_4="167.92252" pt_clust_5="36.84309" pt_clust_6="36.84309"></scales>
<clustering>
<clus scale="   30.073">  3  4 -1 -1</clus>
<clus scale="   36.843">  5  6 -1 -1</clus>
<clus scale="  167.923">  2  3  1 -1</clus>
<clus scale="  168.479">  1  3  2 -1</clus>
</clustering>
</event>
<event>
 6    0  0.2036847E+002  0.1803196E+03  0.7546771E-02  0.1167494E+00
         21   -1    0    0  505  501  0.00000000000E+00  0.00000000000E+00  0.78581117870E+03  0.78581117870E+03  0.00000000000E+00 0. -1.
         21   -1    0    0  504  502 -0.00000000000E+00 -0.00000000000E+00 -0.33133762702E+03  0.33133762702E+03  0.00000000000E+00 0. -1.
         21    1    1    2  503  506 -0.85504523655E+02 -0.33133099245E+02  0.35995069512E+03  0.37144761238E+03  0.00000000000E+00 0. -1.
         21    1    1    2  504  503  0.14592284985E+03  0.75563237609E+02 -0.23916875258E+03  0.29018093183E+03  0.00000000000E+00 0. -1.
         21    1    1    2  505  502  0.28720971364E+02 -0.48160648297E+02 -0.41551950818E+02  0.69791882460E+02  0.00000000000E+00 0. -1.
         21    1    1    2  506  501 -0.89139297563E+02  0.57305099324E+01  0.37524355995E+03  0.38572837905E+03  0.00000000000E+00 0. -1.
<scales pt_clust_3="38.90070" pt_clust_4="175.95916" pt_clust_5="56.07443" pt_clust_6="38.90070"></scales>
<clustering>
<clus scale="   38.901">  3  6 -1 -1</clus>
<clus scale="   56.074">  2  5  1 -1</clus>
<clus scale="  175.959">  2  4  1 -1</clus>
<clus scale="  180.320">  1  3  2 -1</clus>
</clustering>
</event>
<event>
 6    0  0.2036847E+002  0.1181940E+03  0.7546771E-02  0.1246107E+00
         21   -1    0    0  506  501  0.00000000000E+00  0.00000000000E+00  0.48288979443E+03  0.48288979443E+03  0.00000000000E+00 0. -1.
         21   -1    0    0  504  502 -0.00000000000E+00 -0.00000000000E+00 -0.77218133685E+03  0.77218133685E+03  0.00000000000E+00 0. -1.
         21    1    1    2  503  502 -0.13320100926E+02 -0.10855402901E+03 -0.65202540822E+03  0.66113427930E+03  0.00000000000E+00 0. -1.
         21    1    1    2  504  505  0.30090931743E+02 -0.10158496060E+02 -0.10174156449E+03  0.10658332496E+03  0.00000000000E+00 0.  1.
         21    1    1    2  505  501 -0.46792216778E+02  0.50056479533E+02  0.16535272942E+03  0.17898795440E+03  0.00000000000E+00 0. -1.
         21    1    1    2  506  503  0.30021385961E+02  0.68656045541E+02  0.29912270087E+03  0.30836557262E+03  0.00000000000E+00 0. -1.
<scales pt_clust_3="118.19396" pt_clust_4="31.75940" pt_clust_5="68.23598" pt_clust_6="14000.00000"></scales>
<clustering>
<clus scale="   31.759">  2  4  1 -1</clus>
<clus scale="   68.236">  1  5  2 -1</clus>
<clus scale="  118.194">  2  3  1 -1</clus>
<clus scale="   68.236">  1  3  2 -1</clus>
</clustering>
</event>
<event>
 6    0  0.2036847E+002  0.2745987E+03  0.7546771E-02  0.1098676E+00
         21   -1    0    0  504  501  0.00000000000E+00  0.00000000000E+00  0.72125255667E+03  0.72125255667E+03  0.00000000000E+00 0.  1.
         21   -1    0    0  505  502 -0.00000000000E+00 -0.00000000000E+00 -0.51379075851E+03  0.51379075851E+03  0.00000000000E+00 0. -1.
         21    1    1    2  503  501 -0.25602603473E+02  0.59915531474E+02  0.33422658277E+02  0.73228671316E+02  0.00000000000E+00 0.  1.
         21    1    1    2  504  502 -0.28743145577E+02  0.20423438390E+03  0.61035955846E+03  0.64426441978E+03  0.00000000000E+00 0.  1.
         21    1    1    2  505  506 -0.40230033961E+01 -0.14917365083E+03 -0.24347299366E+03  0.28556621177E+03  0.00000000000E+00 0. -1.
         21    1    1    2  506  503  0.58368752445E+02 -0.11497626454E+03 -0.19284742492E+03  0.23198401231E+03  0.00000000000E+00 0. -1.
<scales pt_clust_3="65.15646" pt_clust_4="265.80136" pt_clust_5="64.09270" pt_clust_6="64.09270"></scales>
<clustering>
<clus scale="   64.093">  5  6 -1 -1</clus>
<clus scale="   65.156">  1  3  2 -1</clus>
<clus scale="  265.801">  1  4  2 -1</clus>
<clus scale="   65.156">  1  3  2 -1</clus>
</clustering>
</event>
<event>
 6    0  0.2036847E+002  0.1065049E+03  0.7546771E-02  0.1267183E+00
         21   -1    0    0  505  501  0.00000000000E+00  0.00000000000E+00  0.10034433366E+03  0.10034433366E+03  0.00000000000E+00 0. -1.
         21   -1    0    0  506  502 -0.00000000000E+00 -0.00000000000E+00 -0.25968848128E+04  0.25968848128E+04  0.00000000000E+00 0. -1.
         21    1    1    2  503  501  0.30413619434E+02 -0.56155281348E+02  0.42890687280E+02  0.76928635278E+02  0.00000000000E+00 0. -1.
         21    1    1    2  504  503 -0.49354062710E+02 -0.45346981548E+02 -0.13636914059E+03  0.15194971124E+03  0.00000000000E+00 0.  1.
         21    1    1    2  505  502 -0.31499178230E+02 -0.72480419635E+00  0.23378766453E+02  0.39233790170E+02  0.00000000000E+00 0. -1.
         21    1    1    2  506  504  0.50439621505E+02  0.10222706709E+03 -0.24264407923E+04  0.24291170098E+04  0.00000000000E+00 0. -1.
<scales pt_clust_3="56.86768" pt_clust_4="14000.00000" pt_clust_5="31.50752" pt_clust_6="106.50494"></scales>
<clustering>
<clus scale="   31.508">  1  5  2 -1</clus>
<clus scale="   56.868">  1  3  2 -1</clus>
<clus scale="  106.505">  2  6  1 -1</clus>
<clus scale="   31.508">  1  3  2 -1</clus>
</clustering>
</event>
<event>
 6    0  0.2036847E+002  0.8584394E+02  0.7546771E-02  0.1313240E+00
         21   -1    0    0  506  501  0.00000000000E+00  0.00000000000E+00  0.28889681196E+02  0.28889681196E+02  0.00000000000E+00 0.  1.
         21   -1    0    0  504  502 -0.00000000000E+00 -0.00000000000E+00 -0.12454452103E+04  0.12454452103E+04  0.00000000000E+00 0.  1.
         21    1    1    2  503  502 -0.55386290808E+02  0.10835318355E+02 -0.49499140666E+03  0.49819829185E+03  0.00000000000E+00 0.  1.
         21    1    1    2  504  505  0.36897909820E+02 -0.10647742357E+03 -0.48217820117E+03  0.49517139978E+03  0.00000000000E+00 0.  1.
         21    1    1    2  505  501  0.64051811028E+02  0.52800252159E+02 -0.11609187617E+03  0.14271588852E+03  0.00000000000E+00 0.  1.
         21    1    1    2  506  503 -0.45563430040E+02  0.42841853053E+02 -0.12329404513E+03  0.13824931137E+03  0.00000000000E+00 0.  1.
<scales pt_clust_3="56.43621" pt_clust_4="85.84394" pt_clust_5="14000.00000" pt_clust_6="71.07811"></scales>
<clustering>
<clus scale="   56.436">  2  3  1 -1</clus>
<clus scale="   71.078">  1  6  2 -1</clus>
<clus scale="   85.844">  2  4  1 -1</clus>
<clus scale="   71.078">  1  3  2 -1</clus>
</clustering>
</event>
<event>
 6    0  0.2036847E+002  0.1433760E+03  0.7546771E-02  0.1208857E+00
         21   -1    0    0  504  501  0.00000000000E+00  0.00000000000E+00  0.17262867650E+03  0.17262867650E+03  0.00000000000E+00 0. -1.
         21   -1    0    0  506  502 -0.00000000000E+00 -0.00000000000E+00 -0.17393096002E+03  0.17393096002E+03  0.00000000000E+00 0. -1.
         21    1    1    2  503  501 -0.32502155600E+02  0.39622811127E+02  0.74599192629E+01  0.51788103611E+02  0.00000000000E+00 0. -1.
         21    1    1    2  504  505  0.70631715700E+02 -0.23387080095E+02 -0.37874281218E+01  0.74499257647E+02  0.00000000000E+00 0. -1.
         21    1    1    2  505  502  0.83700004318E+02  0.16278055093E+02  0.28335614257E+02  0.89853062473E+02  0.00000000000E+00 0. -1.
         21    1    1    2  506  503 -0.12182956442E+03 -0.32513786126E+02 -0.33310388925E+02  0.13041921279E+03  0.00000000000E+00 0. -1.
<scales pt_clust_3="51.24800" pt_clust_4="47.08038" pt_clust_5="47.08038" pt_clust_6="134.22527"></scales>
<clustering>
<clus scale="   47.080">  4  5 -1 -1</clus>
<clus scale="   51.248">  1  3  2 -1</clus>
<clus scale="  134.225">  2  6  1 -1</clus>
<clus scale="   51.248">  1  3  2 -1</clus>
</clustering>
</event>
<event>
 6    0  0.2036847E+002  0.2022936E+03  0.7546771E-02  0.1147818E+00
         21   -1    0    0  506  501  0.00000000000E+00  0.00000000000E+00  0.31937093160E+03  0.31937093160E+03  0.00000000000E+00 0. -1.
         21   -1    0    0  505  502 -0.00000000000E+00 -0.00000000000E+00 -0.40623471353E+03  0.40623471353E+03  0.00000000000E+00 0.  1.
         21    1    1    2  503  504 -0.14531160066E+02  0.14471192826E+03 -0.19030599173E+03  0.23951840698E+03  0.00000000000E+00 0.  1.
         21    1    1    2  504  502 -0.18564149638E+02 -0.29449962561E+02 -0.25131717538E+02  0.42936361898E+02  0.00000000000E+00 0. -1.
         21    1    1    2  505  501  0.92093113211E+02 -0.25194831917E+03  0.12045199398E+03  0.29405404246E+03  0.00000000000E+00 0. -1.
         21    1    1    2  506  503 -0.58997803508E+02  0.13668635347E+03  0.81219333518E+01  0.14909683379E+03  0.00000000000E+00 0.  1.
<scales pt_clust_3="130.17955" pt_clust_4="34.81276" pt_clust_5="14000.00000" pt_clust_6="202.29360"></scales>
<clustering>
<clus scale="   34.813">  2  4  1 -1</clus>
<clus scale="  130.180">  2  3  1 -1</clus>
<clus scale="  202.294">  1  6  2 -1</clus>
<clus scale="  202.294">  1  3  2 -1</clus>
</clustering>
</event>
<event>
 6    0  0.2036847E+002  0.1525150E+03  0.7546771E-02  0.1197416E+00
         21   -1    0    0  503  501  0.00000000000E+00  0.00000000000E+00  0.16521757307E+04  0.16521757307E+04  0.00000000000E+00 0. -1.
         21   -1    0    0  506  502 -0.00000000000E+00 -0.00000000000E+00 -0.16013561961E+03  0.16013561961E+03  0.00000000000E+00 0. -1.
         21    1    1    2  503  502 -0.51058799748E+02  0.16813258067E+03 -0.51194912397E+02  0.18302044905E+03  0.00000000000E+00 0. -1.
         21    1    1    2  504  501  0.16277354322E+02 -0.25234111325E+02  0.45839070060E+03  0.45937321105E+03  0.00000000000E+00 0. -1.
         21    1    1    2  505  504 -0.49144428844E+02 -0.48393564325E+02  0.10297220231E+04  0.10320293391E+04  0.00000000000E+00 0. -1.
         21    1    1    2  506  505  0.83925874270E+02 -0.94504905020E+02  0.55122299864E+02  0.13788835117E+03  0.00000000000E+00 0.  1.
<scales pt_clust_3="14000.00000" pt_clust_4="30.02853" pt_clust_5="78.47201" pt_clust_6="152.51501"></scales>
<clustering>
<clus scale="   30.029">  1  4  2 -1</clus>
<clus scale="   78.472">  1  5  2 -1</clus>
<clus scale="  152.515">  1  6  2 -1</clus>
<clus scale="   30.029">  1  3  2 -1</clus>
</clustering>
</event>
<event>
 6    0  0.2036847E+002  0.1669757E+03  0.7546771E-02  0.1181039E+00
         21   -1    0    0  504  501  0.00000000000E+00  0.00000000000E+00  0.15165732060E+04  0.15165732060E+04  0.00000000000E+00 0.  1.
         21   -1    0    0  506  502 -0.00000000000E+00 -0.00000000000E+00 -0.17031975670E+03  0.17031975670E+03  0.00000000000E+00 0. -1.
         21    1    1    2  503  501  0.96740751492E+02  0.82421772066E+02  0.76578556797E+03  0.77626004510E+03  0.00000000000E+00 0.  1.
         21    1    1    2  504  505  0.74518999706E+02 -0.18596951252E+03  0.63980550240E+03  0.67043927525E+03  0.00000000000E+00 0.  1.
         21    1    1    2  505  502 -0.84175119301E+02  0.33546482016E+02 -0.86430907844E+02  0.12522427479E+03  0.00000000000E+00 0. -1.
         21    1    1    2  506  503 -0.87084631897E+02  0.70001258435E+02  0.27093286816E+02  0.11496936760E+03  0.00000000000E+00 0. -1.
<scales pt_clust_3="123.82556" pt_clust_4="14000.00000" pt_clust_5="90.61356" pt_clust_6="166.97572"></scales>
<clustering>
<clus scale="   90.614">  2  5  1 -1</clus>
<clus scale="  123.826">  1  3  2 -1</clus>
<clus scale="  166.976">  2  6  1 -1</clus>
<clus scale="  123.826">  1  3  2 -1</clus>
</clustering>
</event>
<event>
 6    0  0.2036847E+002  0.2218733E+03  0.7546771E-02  0.1132494E+00
         21   -1    0    0  505  501  0.00000000000E+00  0.00000000000E+00  0.37215815596E+03  0.37215815596E+03  0.00000000000E+00 0. -1.
         21   -1    0    0  501  502 -0.00000000000E+00 -0.00000000000E+00 -0.37947079581E+03  0.37947079581E+03  0.00000000000E+00 0. -1.
         21    1    1    2  503  504 -0.11682128171E+03 -0.81621607640E+02 -0.14952443368E+03  0.20655956758E+03  0.00000000000E+00 0. -1.
         21    1    1    2  504  502 -0.63316734467E+02 -0.15930407781E+02 -0.15846751590E+03  0.17139060753E+03  0.00000000000E+00 0. -1.
         21    1    1    2  505  506  0.12346953388E+03  0.44229172870E+02  0.24534000464E+03  0.27819536913E+03  0.00000000000E+00 0. -1.
         21    1    1    2  506  503  0.56668482299E+02  0.53322842550E+02  0.55339305087E+02  0.95483407518E+02  0.00000000000E+00 0. -1.
<scales pt_clust_3="219.06002" pt_clust_4="52.52196" pt_clust_5="65.63759" pt_clust_6="65.63759"></scales>
<clustering>
<clus scale="   52.522">  3  4 -1 -1</clus>
<clus scale="   65.638">  5  6 -1 -1</clus>
<clus scale="  219.060">  2  3  1 -1</clus>
<clus scale="  221.873">  1  3  2 -1</clus>
</clustering>
</event>
<event>
 6    0  0.2036847E+002  0.1078061E+03  0.7546771E-02  0.1264687E+00
         21   -1    0    0  503  501  0.00000000000E+00  0.00000000000E+00  0.43918011732E+02  0.43918011732E+02  0.00000000000E+00 0.  1.
         21   -1    0    0  506  502 -0.00000000000E+00 -0.00000000000E+00 -0.96792773325E+03  0.96792773325E+03  0.00000000000E+00 0.  1.
         21    1    1    2  503  505 -0.20067294785E+02  0.61673332892E+02 -0.72044044974E+01  0.65254882991E+02  0.00000000000E+00 0.  1.
         21    1    1    2  504  502 -0.16810325114E+02 -0.27762333237E+02 -0.16410523465E+03  0.16728377751E+03  0.00000000000E+00 0.  1.
         21    1    1    2  505  504  0.59587391641E+02 -0.85257983745E+02 -0.67761450895E+03  0.68555160548E+03  0.00000000000E+00 0.  1.
         21    1    1    2  506  501 -0.22709771741E+02  0.51346984090E+02 -0.75085573415E+02  0.93755479001E+02  0.00000000000E+00 0.  1.
<scales pt_clust_3="107.80607" pt_clust_4="32.45511" pt_clust_5="14000.00000" pt_clust_6="54.26084"></scales>
<clustering>
<clus scale="   32.455">  2  4  1 -1</clus>
<clus scale="   54.261">  1  6  2 -1</clus>
<clus scale="  107.806">  1  3  2 -1</clus>
<clus scale="   54.261">  1  3  2 -1</clus>
</clustering>
</event>
<event>
 6    0  0.2036847E+002  0.8162620E+02  0.7546771E-02  0.1324499E+00
         21   -1    0    0  506  501  0.00000000000E+00  0.00000000000E+00  0.40831651433E+03  0.40831651433E+03  0.00000000000E+00 0.  1.
         21   -1    0    0  505  502 -0.00000000000E+00 -0.00000000000E+00 -0.86766269123E+03  0.86766269123E+03  0.00000000000E+00 0. -1.
         21    1    1    2  503  504 -0.13484018510E+02  0.94353846306E+02 -0.53259099851E+03  0.54105234383E+03  0.00000000000E+00 0. -1.
         21    1    1    2  504  501  0.36824415039E+02 -0.66171288019E+01  0.18412661590E+02  0.41699520901E+02  0.00000000000E+00 0.  1.
         21    1    1    2  505  503 -0.52611579408E+02 -0.44568084391E+02 -0.31361576247E+03  0.32110611782E+03  0.00000000000E+00 0. -1.
         21    1    1    2  506  502  0.29271182878E+02 -0.43168633113E+02  0.36844792248E+03  0.37212122301E+03  0.00000000000E+00 0.  1.
<scales pt_clust_3="81.62620" pt_clust_4="37.41422" pt_clust_5="68.71612" pt_clust_6="14000.00000"></scales>
<clustering>
<clus scale="   37.414">  1  4  2 -1</clus>
<clus scale="   68.716">  2  5  1 -1</clus>
<clus scale="   81.626">  2  3  1 -1</clus>
<clus scale="   37.414">  1  3  2 -1</clus>
</clustering>
</event>
<event>
 6    0  0.2036847E+002  0.1130048E+03  0.7546771E-02  0.1255105E+00
         21   -1    0    0  504  501  0.00000000000E+00  0.00000000000E+00  0.36318007228E+03  0.36318007228E+03  0.00000000000E+00 0. -1.
         21   -1    0    0  505  502 -0.00000000000E+00 -0.00000000000E+00 -0.50153542087E+03  0.50153542087E+03  0.00000000000E+00 0. -1.
         21    1    1    2  503  501 -0.98502314949E+02  0.89080002748E+02  0.23961991307E+03  0.27396287281E+03  0.00000000000E+00 0. -1.
         21    1    1    2  504  502  0.94642664247E+01 -0.10122109253E+03  0.75074145603E+02  0.12637804101E+03  0.00000000000E+00 0. -1.
         21    1    1    2  505  506  0.43018209507E+02  0.56209598354E+01 -0.32999805908E+03  0.33283761887E+03  0.00000000000E+00 0. -1.
         21    1    1    2  506  503  0.46019839017E+02  0.65201299503E+01 -0.12305134818E+03  0.13153696046E+03  0.00000000000E+00 0. -1.
<scales pt_clust_3="14000.00000" pt_clust_4="113.00478" pt_clust_5="43.38389" pt_clust_6="78.94124"></scales>
<clustering>
<clus scale="   43.384">  2  5  1 -1</clus>
<clus scale="   78.941">  2  6  1 -1</clus>
<clus scale="  113.005">  2  4  1 -1</clus>
<clus scale="  113.005">  1  3  2 -1</clus>
</clustering>
</event>
<event>
 6    0  0.2036847E+002  0.9638402E+02  0.7546771E-02  0.1288089E+00
         21   -1    0    0  506  501  0.00000000000E+00  0.00000000000E+00  0.14093079697E+04  0.14093079697E+04  0.00000000000E+00 0.  1.
         21   -1    0    0  503  502 -0.00000000000E+00 -0.00000000000E+00 -0.33034914277E+02  0.33034914277E+02  0.00000000000E+00 0.  1.
         21    1    1    2  503  504  0.26038687136E+02 -0.19101447022E+02  0.67472635896E+02  0.74802641002E+02  0.00000000000E+00 0.  1.
         21    1    1    2  504  501 -0.95915290883E+02 -0.57839053801E+02  0.10694479743E+04  0.10752972002E+04  0.00000000000E+00 0.  1.
         21    1    1    2  505  502  0.67895387084E+02  0.45144636777E+02  0.40840057829E+02  0.91190636254E+02  0.00000000000E+00 0.  1.
         21    1    1    2  506  505  0.19812166629E+01  0.31795864046E+02  0.19851238744E+03  0.20105240650E+03  0.00000000000E+00 0.  1.
<scales pt_clust_3="31.32117" pt_clust_4="96.38402" pt_clust_5="14000.00000" pt_clust_6="31.85753"></scales>
<clustering>
<clus scale="   31.858">  1  6  2 -1</clus>
<clus scale="   31.321">  2  3  1 -1</clus>
<clus scale="   96.384">  1  4  2 -1</clus>
<clus scale="   31.858">  1  3  2 -1</clus>
</clustering>
</event>
<event>
 6    0  0.2036847E+002  0.2527612E+03  0.7546771E-02  0.1111572E+00
         21   -1    0    0  505  501  0.00000000000E+00  0.00000000000E+00  0.33517308579E+03  0.33517308579E+03  0.00000000000E+00 0.  1.
         21   -1    0    0  506  502 -0.00000000000E+00 -0.00000000000E+00 -0.64246970348E+03  0.64246970348E+03  0.00000000000E+00 0.  1.
         21    1    1    2  503  504  0.76100316420E+02  0.41912180086E+02 -0.30405594677E+03  0.31622445788E+03  0.00000000000E+00 0.  1.
         21    1    1    2  504  502  0.55720518728E+02  0.14531014620E+03 -0.25670614492E+03  0.30019636845E+03  0.00000000000E+00 0.  1.
         21    1    1    2  505  503 -0.20222741603E+02 -0.35815477535E+02 -0.51382520945E+01  0.41450082553E+02  0.00000000000E+00 0.  1.
         21    1    1    2  506  501 -0.11159809354E+03 -0.15140684875E+03  0.25860372610E+03  0.31977188038E+03  0.00000000000E+00 0.  1.
<scales pt_clust_3="85.93206" pt_clust_4="85.93206" pt_clust_5="41.13037" pt_clust_6="225.38114"></scales>
<clustering>
<clus scale="   41.130">  1  5  2 -1</clus>
<clus scale="   85.932">  3  4 -1 -1</clus>
<clus scale="  225.381">  1  6  2 -1</clus>
<clus scale="   41.130">  1  3  2 -1</clus>
</clustering>
</event>
<event>
 6    0  0.2036847E+002  0.1372189E+03  0.7546771E-02  0.1217121E+00
         21   -1    0    0  504  501  0.00000000000E+00  0.00000000000E+00  0.24937405493E+03  0.24937405493E+03  0.00000000000E+00 0.  1.
         21   -1    0    0  503  502 -0.00000000000E+00 -0.00000000000E+00 -0.38409558561E+03  0.38409558561E+03  0.00000000000E+00 0. -1.
         21    1    1    2  503  501  0.72991770758E+02  0.11016066184E+03 -0.64448510608E+02  0.14702646202E+03  0.00000000000E+00 0. -1.
         21    1    1    2  504  505 -0.35326554928E+02  0.34388520586E+02  0.99018067876E+02  0.11061244775E+03  0.00000000000E+00 0.  1.
         21    1    1    2  505  506 -0.87470719505E+02  0.10159132214E+02  0.51238440768E+02  0.10188087431E+03  0.00000000000E+00 0.  1.
         21    1    1    2  506  502  0.49805503675E+02 -0.15470831464E+03 -0.22052952872E+03  0.27394985646E+03  0.00000000000E+00 0. -1.
<scales pt_clust_3="137.21892" pt_clust_4="49.30046" pt_clust_5="109.90513" pt_clust_6="14000.00000"></scales>
<clustering>
<clus scale="   49.300">  1  4  2 -1</clus>
<clus scale="  109.905">  1  5  2 -1</clus>
<clus scale="  137.219">  1  3  2 -1</clus>
<clus scale="   49.300">  1  3  2 -1</clus>
</clustering>
</event>
<event>
 6    0  0.2036847E+002  0.1500691E+03  0.7546771E-02  0.1200388E+00
         21   -1    0    0  505  501  0.00000000000E+00  0.00000000000E+00  0.25729541550E+04  0.25729541550E+04  0.00000000000E+00 0.  1.
         21   -1    0    0  503  502 -0.00000000000E+00 -0.00000000000E+00 -0.22642151641E+03  0.22642151641E+03  0.00000000000E+00 0.  1.
         21    1    1    2  503  506  0.29528633908E+02  0.19461940229E+03  0.38220203402E+03  0.42991516231E+03  0.00000000000E+00 0.  1.
         21    1    1    2  504  501 -0.34789280686E+02 -0.82882519529E+02  0.14443691602E+04  0.14471634590E+04  0.00000000000E+00 0.  1.
         21    1    1    2  505  502 -0.97654606974E+02 -0.11225691831E+03 -0.16930274655E+03  0.22539178770E+03  0.00000000000E+00 0.  1.
         21    1    1    2  506  504  0.10291525375E+03  0.52003554800E+00  0.68926419084E+03  0.69690526234E+03  0.00000000000E+00 0.  1.
<scales pt_clust_3="150.06914" pt_clust_4="89.88774" pt_clust_5="14000.00000" pt_clust_6="95.86781"></scales>
<clustering>
<clus scale="   89.888">  1  4  2 -1</clus>
<clus scale="   95.868">  1  6  2 -1</clus>
<clus scale="  150.069">  1  3  2 -1</clus>
<clus scale="   89.888">  1  3  2 -1</clus>
</clustering>
</event>
<event>
 6    0  0.2036847E+002  0.1980517E+03  0.7546771E-02  0.1151393E+00
         21   -1    0    0  506  501  0.00000000000E+00  0.00000000000E+00  0.94128497175E+03  0.94128497175E+03  0.00000000000E+00 0. -1.
         21   -1    0    0  501  502 -0.00000000000E+00 -0.00000000000E+00 -0.32300049801E+03  0.32300049801E+03  0.00000000000E+00 0.  1.
         21    1    1    2  503  504  0.14333362041E+03 -0.88981249434E+02  0.78646691068E+03  0.80435837230E+03  0.00000000000E+00 0. -1.
         21    1    1    2  504  505 -0.18173090375E+03  0.14003524755E+03 -0.19322940914E+03  0.29995599092E+03  0.00000000000E+00 0.  1.
         21    1    1    2  505  502  0.33046756690E+02 -0.90969238819E+01 -0.57658705527E+02  0.67077332050E+02  0.00000000000E+00 0. -1.
         21    1    1    2  506  503  0.53505266500E+01 -0.41957074229E+02  0.82705677720E+02  0.92893774498E+02  0.00000000000E+00 0.  1.
<scales pt_clust_3="198.05170" pt_clust_4="14000.00000" pt_clust_5="34.27597" pt_clust_6="42.55942"></scales>
<clustering>
<clus scale="   34.276">  2  5  1 -1</clus>
<clus scale="   42.559">  1  6  2 -1</clus>
<clus scale="  198.052">  1  3  2 -1</clus>
<clus scale="   42.559">  1  3  2 -1</clus>
</clustering>
</event>
<event>
 6    0  0.2036847E+002  0.1489209E+03  0.7546771E-02  0.1201805E+00
         21   -1    0    0  503  501  0.00000000000E+00  0.00000000000E+00  0.15350041767E+03  0.15350041767E+03  0.00000000000E+00 0. -1.
         21   -1    0    0  505  502 -0.00000000000E+00 -0.00000000000E+00 -0.41677060559E+03  0.41677060559E+03  0.00000000000E+00 0. -1.
         21    1    1    2  503  506 -0.30157299541E+02 -0.24524754010E+02  0.21885220883E+01  0.38932196237E+02  0.00000000000E+00 0. -1.
         21    1    1    2  504  502 -0.38875951038E+02  0.84021585327E+02 -0.26646183493E+03  0.28208664598E+03  0.00000000000E+00 0. -1.
         21    1    1    2  505  501  0.95887923519E+02 -0.10282475227E+03  0.75036025422E+02  0.15936696228E+03  0.00000000000E+00 0. -1.
         21    1    1    2  506  504 -0.26854672939E+02  0.43327920954E+02 -0.74032900509E+02  0.89885218755E+02  0.00000000000E+00 0. -1.
<scales pt_clust_3="38.87064" pt_clust_4="32.24204" pt_clust_5="142.44099" pt_clust_6="32.24204"></scales>
<clustering>
<clus scale="   32.242">  4  6 -1 -1</clus>
<clus scale="   38.871">  1  3  2 -1</clus>
<clus scale="  142.441">  1  5  2 -1</clus>
<clus scale="   38.871">  1  3  2 -1</clus>
</clustering>
</event>
<event>
 6    0  0.2036847E+002  0.1045110E+03  0.7546771E-02  0.1271086E+00
         21   -1    0    0  505  501  0.00000000000E+00  0.00000000000E+00  0.59834030200E+03  0.59834030200E+03  0.00000000000E+00 0. -1.
         21   -1    0    0  504  502 -0.00000000000E+00 -0.00000000000E+00 -0.74787377258E+03  0.74787377258E+03  0.00000000000E+00 0. -1.
         21    1    1    2  503  506 -0.10091394221E+03  0.24374655234E+02  0.41603106109E+03  0.42878851587E+03  0.00000000000E+00 0. -1.
         21    1    1    2  504  503  0.69139087497E+02  0.60538019964E+02 -0.57882339586E+03  0.58607302350E+03  0.00000000000E+00 0. -1.
         21    1    1    2  505  502  0.35775906115E+02 -0.54030093530E+02 -0.15092141766E+03  0.16424506316E+03  0.00000000000E+00 0.  1.
         21    1    1    2  506  501 -0.40010514057E+01 -0.30882581668E+02  0.16418028185E+03  0.16710747204E+03  0.00000000000E+00 0. -1.
<scales pt_clust_3="14000.00000" pt_clust_4="104.51101" pt_clust_5="65.16416" pt_clust_6="31.14069"></scales>
<clustering>
<clus scale="   31.141">  1  6  2 -1</clus>
<clus scale="   65.164">  2  5  1 -1</clus>
<clus scale="  104.511">  2  4  1 -1</clus>
<clus scale="   31.141">  1  3  2 -1</clus>
</clustering>
</event>
<event>
 6    0  0.2036847E+002  0.1414651E+03  0.7546771E-02  0.1211371E+00
         21   -1    0    0  504  501  0.00000000000E+00  0.00000000000E+00  0.32408992080E+03  0.32408992080E+03  0.00000000000E+00 0. -1.
         21   -1    0    0  505  502 -0.00000000000E+00 -0.00000000000E+00 -0.23823072240E+03  0.23823072240E+03  0.00000000000E+00 0.  1.
         21    1    1    2  503  502 -0.29873687377E+02 -0.38654359571E+02 -0.25307250419E+02  0.55018666242E+02  0.00000000000E+00 0. -1.
         21    1    1    2  504  503 -0.27777409764E+02 -0.83388370315E+02 -0.16965212137E+03  0.19106817391E+03  0.00000000000E+00 0.  1.
         21    1    1    2  505  506  0.24433817195E+02  0.58502429704E+02  0.19135477555E+03  0.20158421523E+03  0.00000000000E+00 0. -1.
         21    1    1    2  506  501  0.33217279946E+02  0.63540300182E+02  0.89463794641E+02  0.11464958781E+03  0.00000000000E+00 0.  1.
<scales pt_clust_3="48.85281" pt_clust_4="130.71230" pt_clust_5="51.48982" pt_clust_6="51.48982"></scales>
<clustering>
<clus scale="   48.853">  2  3  1 -1</clus>
<clus scale="   51.490">  5  6 -1 -1</clus>
<clus scale="  130.712">  2  4  1 -1</clus>
<clus scale="  141.465">  1  3  2 -1</clus>
</clustering>
</event>
<event>
 6    0  0.2036847E+002  0.1444698E+03  0.7546771E-02  0.1207438E+00
         21   -1    0    0  504  501  0.00000000000E+00  0.00000000000E+00  0.38816060545E+03  0.38816060545E+03  0.00000000000E+00 0.  1.
         21   -1    0    0  503  502 -0.00000000000E+00 -0.00000000000E+00 -0.17717312246E+04  0.17717312246E+04  0.00000000000E+00 0.  1.
         21    1    1    2  503  505  0.99243882240E+01  0.31769379156E+02 -0.12946939720E+04  0.12951217194E+04  0.00000000000E+00 0.  1.
         21    1    1    2  504  506 -0.19205336857E+02 -0.67177786096E+02  0.16104197613E+03  0.17554548694E+03  0.00000000000E+00 0.  1.
         21    1    1    2  505  501  0.68543878517E+02  0.81314642351E+02 -0.45688566472E+03  0.46910003727E+03  0.00000000000E+00 0.  1.
         21    1    1    2  506  502 -0.59262929884E+02 -0.45906235411E+02  0.20696704144E+03  0.22012458643E+03  0.00000000000E+00 0. -1.
<scales pt_clust_3="33.28343" pt_clust_4="45.01446" pt_clust_5="136.72092" pt_clust_6="45.01446"></scales>
<clustering>
<clus scale="   33.283">  2  3  1 -1</clus>
<clus scale="   45.014">  4  6 -1 -1</clus>
<clus scale="  136.721">  2  5  1 -1</clus>
<clus scale="  144.470">  1  3  2 -1</clus>
</clustering>
</event>
<event>
 6    0  0.2036847E+002  0.8971482E+02  0.7546771E-02  0.1303544E+00
         21   -1    0    0  504  501  0.00000000000E+00  0.00000000000E+00  0.98074270176E+03  0.98074270176E+03  0.00000000000E+00 0. -1.
         21   -1    0    0  506  502 -0.00000000000E+00 -0.00000000000E+00 -0.17638391324E+03  0.17638391324E+03  0.00000000000E+00 0. -1.
         21    1    1    2  503  501  0.88850705462E+02 -0.17872520465E+02  0.75140134568E+03  0.75684731428E+03  0.00000000000E+00 0. -1.
         21    1    1    2  504  505 -0.74925765255E+02  0.55354479380E+02  0.19407311645E+03  0.21527276468E+03  0.00000000000E+00 0. -1.
         21    1    1    2  505  502  0.33376627831E+02 -0.13279242532E+02 -0.18724781618E+01  0.35970039506E+02  0.00000000000E+00 0. -1.
         21    1    1    2  506  503 -0.47301568038E+02 -0.24202716383E+02 -0.13924319545E+03  0.14903649653E+03  0.00000000000E+00 0. -1.
<scales pt_clust_3="89.71482" pt_clust_4="14000.00000" pt_clust_5="35.92127" pt_clust_6="40.03074"></scales>
<clustering>
<clus scale="   35.921">  2  5  1 -1</clus>
<clus scale="   40.031">  2  6  1 -1</clus>
<clus scale="   89.715">  1  3  2 -1</clus>
<clus scale="   89.715">  1  3  2 -1</clus>
</clustering>
</event>
<event>
 6    0  0.2036847E+002  0.1049664E+03  0.7546771E-02  0.1270186E+00
         21   -1    0    0  506  501  0.00000000000E+00  0.00000000000E+00  0.25549869408E+04  0.25549869408E+04  0.00000000000E+00 0.  1.
         21   -1    0    0  504  502 -0.00000000000E+00 -0.00000000000E+00 -0.11140089479E+02  0.11140089479E+02  0.00000000000E+00 0.  1.
         21    1    1    2  503  501 -0.54778905125E+02 -0.94245456985E+02  0.18076723004E+04  0.18109561233E+04  0.00000000000E+00 0.  1.
         21    1    1    2  504  505 -0.46525098242E+01  0.47230649787E+02  0.22366609539E+03  0.22864580108E+03  0.00000000000E+00 0.  1.
         21    1    1    2  505  503  0.85049302469E+01  0.50990958638E+02  0.11938507498E+03  0.13009691707E+03  0.00000000000E+00 0.  1.
         21    1    1    2  506  502  0.50926484702E+02 -0.39761514400E+01  0.39312338050E+03  0.39642818885E+03  0.00000000000E+00 0.  1.
<scales pt_clust_3="98.32616" pt_clust_4="35.20355" pt_clust_5="35.20355" pt_clust_6="51.08147"></scales>
<clustering>
<clus scale="   35.204">  4  5 -1 -1</clus>
<clus scale="   51.081">  1  6  2 -1</clus>
<clus scale="   98.326">  1  3  2 -1</clus>
<clus scale="   51.081">  1  3  2 -1</clus>
</clustering>
</event>
<event>
 6    0  0.2036847E+002  0.1098011E+03  0.7546771E-02  0.1260939E+00
         21   -1    0    0  504  501  0.00000000000E+00  0.00000000000E+00  0.12777060543E+04  0.12777060543E+04  0.00000000000E+00 0.  1.
         21   -1    0    0  505  502 -0.00000000000E+00 -0.00000000000E+00 -0.11230521962E+03  0.11230521962E+03  0.00000000000E+00 0.  1.
         21    1    1    2  503  501 -0.91746064489E+02  0.59743626588E+02  0.10057678014E+04  0.10117092031E+04  0.00000000000E+00 0.  1.
         21    1    1    2  504  502  0.68567942951E+02  0.36131708145E+02  0.23320507497E+03  0.24574716707E+03  0.00000000000E+00 0.  1.
         21    1    1    2  505  506 -0.44516425528E+01 -0.41207494133E+02 -0.54361558704E+02  0.68359737849E+02  0.00000000000E+00 0.  1.
         21    1    1    2  506  503  0.27629764090E+02 -0.54667840600E+02 -0.19210483042E+02  0.64195165848E+02  0.00000000000E+00 0. -1.
<scales pt_clust_3="98.12053" pt_clust_4="77.50525" pt_clust_5="40.53830" pt_clust_6="40.53830"></scales>
<clustering>
<clus scale="   40.538">  5  6 -1 -1</clus>
<clus scale="   77.505">  1  4  2 -1</clus>
<clus scale="   98.121">  1  3  2 -1</clus>
<clus scale="   77.505">  1  3  2 -1</clus>
</clustering>
</event>
<event>
 6    0  0.2036847E+002  0.1337726E+03  0.7546771E-02  0.1221963E+00
         21   -1    0    0  503  501  0.00000000000E+00  0.00000000000E+00  0.82223635144E+03  0.82223635144E+03  0.00000000000E+00 0.  1.
         21   -1    0    0  506  502 -0.00000000000E+00 -0.00000000000E+00 -0.71434427063E+02  0.71434427063E+02  0.00000000000E+00 0. -1.
         21    1    1    2  503  505 -0.51615309038E+02 -0.13474943802E+02  0.14226073885E+03  0.15193364359E+03  0.00000000000E+00 0. -1.
         21    1    1    2  504  501  0.67266312484E+02  0.88401456255E+01  0.13801023485E+03  0.15378468680E+03  0.00000000000E+00 0. -1.
         21    1    1    2  505  502  0.42079494056E+02  0.12577026936E+03  0.42662466469E+03  0.44676330310E+03  0.00000000000E+00 0.  1.
         21    1    1    2  506  504 -0.57730497502E+02 -0.12113547118E+03  0.43906285985E+02  0.14118914501E+03  0.00000000000E+00 0. -1.
<scales pt_clust_3="53.34524" pt_clust_4="56.42454" pt_clust_5="133.77262" pt_clust_6="14000.00000"></scales>
<clustering>
<clus scale="   53.345">  1  3  2 -1</clus>
<clus scale="   56.425">  1  4  2 -1</clus>
<clus scale="  133.773">  1  5  2 -1</clus>
<clus scale="   53.345">  1  3  2 -1</clus>
</clustering>
</event>
<event>
 6    0  0.2036847E+002  0.1641847E+03  0.7546771E-02  0.1184052E+00
         21   -1    0    0  502  501  0.00000000000E+00  0.00000000000E+00  0.38323346423E+03  0.38323346423E+03  0.00000000000E+00 0.  1.
         21   -1    0    0  506  502 -0.00000000000E+00 -0.00000000000E+00 -0.65881995792E+03  0.65881995792E+03  0.00000000000E+00 0.  1.
         21    1    1    2  503  501 -0.10646794555E+03  0.56245758918E+02  0.25031178962E+03  0.27776789024E+03  0.00000000000E+00 0.  1.
         21    1    1    2  504  505  0.54290840242E+02 -0.13002923033E+03 -0.30336159763E+03  0.33448969340E+03  0.00000000000E+00 0.  1.
         21    1    1    2  505  503 -0.97250645741E+01  0.44091681122E+02  0.94860711017E+02  0.10505811592E+03  0.00000000000E+00 0.  1.
         21    1    1    2  506  504  0.61902169882E+02  0.29691790290E+02 -0.31739739670E+03  0.32473772260E+03  0.00000000000E+00 0.  1.
<scales pt_clust_3="37.96227" pt_clust_4="152.03073" pt_clust_5="37.96227" pt_clust_6="68.65480"></scales>
<clustering>
<clus scale="   37.962">  3  5 -1 -1</clus>
<clus scale="   68.655">  2  6  1 -1</clus>
<clus scale="  152.031">  2  4  1 -1</clus>
<clus scale="  164.185">  1  3  2 -1</clus>
</clustering>
</event>
<event>
 6    0  0.2036847E+002  0.1629446E+03  0.7546771E-02  0.1185412E+00
         21   -1    0    0  504  501  0.00000000000E+00  0.00000000000E+00  0.44308299063E+03  0.44308299063E+03  0.00000000000E+00 0.  1.
         21   -1    0    0  505  502 -0.00000000000E+00 -0.00000000000E+00 -0.56596009445E+03  0.56596009445E+03  0.00000000000E+00 0. -1.
         21    1    1    2  503  502 -0.95101335084E+01 -0.15886364894E+03 -0.30508690086E+03  0.34410190158E+03  0.00000000000E+00 0. -1.
         21    1    1    2  504  503  0.32775678684E+02  0.25494692385E+02  0.18484414231E+03  0.18945073607E+03  0.00000000000E+00 0.  1.
         21    1    1    2  505  506 -0.36960532913E+02 -0.11933350936E+01 -0.21803253072E+03  0.22114630789E+03  0.00000000000E+00 0. -1.
         21    1    1    2  506  501  0.13694987737E+02  0.13456229165E+03  0.21539818545E+03  0.25434413954E+03  0.00000000000E+00 0.  1.
<scales pt_clust_3="14000.00000" pt_clust_4="41.32516" pt_clust_5="36.97979" pt_clust_6="162.94463"></scales>
<clustering>
<clus scale="   36.980">  2  5  1 -1</clus>
<clus scale="   41.325">  1  4  2 -1</clus>
<clus scale="  162.945">  1  6  2 -1</clus>
<clus scale="   41.325">  1  3  2 -1</clus>
</clustering>
</event>
<event>
 6    0  0.2036847E+002  0.1062976E+03  0.7546771E-02  0.1267584E+00
         21   -1    0    0  506  501  0.00000000000E+00  0.00000000000E+00  0.79070951235E+03  0.79070951235E+03  0.00000000000E+00 0.  1.
         21   -1    0    0  503  502 -0.00000000000E+00 -0.00000000000E+00 -0.34100087669E+03  0.34100087669E+03  0.00000000000E+00 0. -1.
         21    1    1    2  503  504  0.71385373474E+01  0.39214594112E+02 -0.69005392143E+02  0.79689944482E+02  0.00000000000E+00 0. -1.
         21    1    1    2  504  501 -0.11096974501E+03  0.39973525512E+02  0.33215765691E+03  0.35247819237E+03  0.00000000000E+00 0.  1.
         21    1    1    2  505  502  0.56498686359E+02  0.23328195114E+02 -0.24548938392E+03  0.25298486885E+03  0.00000000000E+00 0. -1.
         21    1    1    2  506  505  0.47332521302E+02 -0.10251631474E+03  0.43204575482E+03  0.44655738334E+03  0.00000000000E+00 0.  1.
<scales pt_clust_3="39.85904" pt_clust_4="14000.00000" pt_clust_5="87.11118" pt_clust_6="106.29763"></scales>
<clustering>
<clus scale="   39.859">  2  3  1 -1</clus>
<clus scale="   87.111">  2  5  1 -1</clus>
<clus scale="  106.298">  1  6  2 -1</clus>
<clus scale="  106.298">  1  3  2 -1</clus>
</clustering>
</event>
<event>
 6    0  0.2036847E+002  0.1612813E+03  0.7546771E-02  0.1187258E+00
         21   -1    0    0  505  501  0.00000000000E+00  0.00000000000E+00  0.51929442057E+03  0.51929442057E+03  0.00000000000E+00 0.  1.
         21   -1    0    0  506  502 -0.00000000000E+00 -0.00000000000E+00 -0.75889004358E+02  0.75889004358E+02  0.00000000000E+00 0.  1.
         21    1    1    2  503  504  0.76472005610E+02  0.53535443493E+02  0.47077923825E+02  0.10454827719E+03  0.00000000000E+00 0.  1.
         21    1    1    2  504  501 -0.40577180808E+02  0.15491020722E+02  0.56364147077E+02  0.71157546340E+02  0.00000000000E+00 0.  1.
         21    1    1    2  505  502 -0.11246871795E+03 -0.70868202394E+02  0.30987210048E+03  0.33718278913E+03  0.00000000000E+00 0.  1.
         21    1    1    2  506  503  0.76573893145E+02  0.18417381792E+01  0.30091244825E+02  0.82294812267E+02  0.00000000000E+00 0.  1.
<scales pt_clust_3="44.43423" pt_clust_4="43.43362" pt_clust_5="153.44727" pt_clust_6="44.43423"></scales>
<clustering>
<clus scale="   43.434">  1  4  2 -1</clus>
<clus scale="   44.434">  3  6 -1 -1</clus>
<clus scale="  153.447">  1  5  2 -1</clus>
<clus scale="   43.434">  1  3  2 -1</clus>
</clustering>
</event>
<event>
 6    0  0.2036847E+002  0.1216108E+03  0.7546771E-02  0.1240463E+00
         21   -1    0    0  506  501  0.00000000000E+00  0.00000000000E+00  0.67099444947E+03  0.67099444947E+03  0.00000000000E+00 0.  1.
         21   -1    0    0  505  502 -0.00000000000E+00 -0.00000000000E+00 -0.57789039029E+02  0.57789039029E+02  0.00000000000E+00 0.  1.
         21    1    1    2  503  502 -0.14346183653E+03 -0.56231974414E+02  0.12022436963E+03  0.19544112295E+03  0.00000000000E+00 0.  1.
         21    1    1    2  504  501  0.32842479310E+02  0.92436429427E+00  0.17100883661E+03  0.17413645539E+03  0.00000000000E+00 0.  1.
         21    1    1    2  505  504  0.92309570135E+02 -0.59594509646E+01  0.15629425992E+03  0.18161626436E+03  0.00000000000E+00 0.  1.
         21    1    1    2  506  503  0.18309787082E+02  0.61267061084E+02  0.16567794428E+03  0.17758964580E+03  0.00000000000E+00 0.  1.
<scales pt_clust_3="14000.00000" pt_clust_4="32.85549" pt_clust_5="121.61084" pt_clust_6="68.33782"></scales>
<clustering>
<clus scale="   32.855">  1  4  2 -1</clus>
<clus scale="   68.338">  1  6  2 -1</clus>
<clus scale="  121.611">  1  5  2 -1</clus>
<clus scale="   32.855">  1  3  2 -1</clus>
</clustering>
</event>
<event>
 6    0  0.2036847E+002  0.1606440E+03  0.7546771E-02  0.1187972E+00
         21   -1    0    0  506  501  0.00000000000E+00  0.00000000000E+00  0.10344419597E+04  0.10344419597E+04  0.00000000000E+00 0. -1.
         21   -1    0    0  505  502 -0.00000000000E+00 -0.00000000000E+00 -0.14617014376E+03  0.14617014376E+03  0.00000000000E+00 0. -1.
         21    1    1    2  503  504 -0.80143092911E+02  0.57145493038E+02  0.52060539828E+03  0.52982874916E+03  0.00000000000E+00 0. -1.
         21    1    1    2  504  501 -0.60913630823E+02 -0.29739158681E+01  0.44008626417E+03  0.44429183484E+03  0.00000000000E+00 0. -1.
         21    1    1    2  505  503 -0.11524015365E+01 -0.36011375398E+02  0.14497942097E+02  0.38837321128E+02  0.00000000000E+00 0.  1.
         21    1    1    2  506  502  0.14220912527E+03 -0.18160201772E+02 -0.86917788619E+02  0.16765419833E+03  0.00000000000E+00 0. -1.
<scales pt_clust_3="44.35559" pt_clust_4="44.35559" pt_clust_5="36.02981" pt_clust_6="150.51780"></scales>
<clustering>
<clus scale="   36.030">  2  5  1 -1</clus>
<clus scale="   44.356">  3  4 -1 -1</clus>
<clus scale="  150.518">  2  6  1 -1</clus>
<clus scale="  160.644">  1  3  2 -1</clus>
</clustering>
</event>
<event>
 6    0  0.2036847E+002  0.1092593E+03  0.7546771E-02  0.1261948E+00
         21   -1    0    0  503  501  0.00000000000E+00  0.00000000000E+00  0.52661549546E+03  0.52661549546E+03  0.00000000000E+00 0. -1.
         21   -1    0    0  505  502 -0.00000000000E+00 -0.00000000000E+00 -0.75879763599E+02  0.75879763599E+02  0.00000000000E+00 0. -1.
         21    1    1    2  503  506 -0.57572700031E+02 -0.22191024708E+02  0.80477113979E+02  0.10140820105E+03  0.00000000000E+00 0. -1.
         21    1    1    2  504  501  0.11753967408E+02  0.53690222686E+02  0.21898818941E+03  0.22578003203E+03  0.00000000000E+00 0. -1.
         21    1    1    2  505  504  0.91061140330E+02  0.69964863319E+02  0.10269857435E+03  0.15405911382E+03  0.00000000000E+00 0. -1.
         21    1    1    2  506  502 -0.45242407707E+02 -0.10146406130E+03  0.48571854126E+02  0.12124791216E+03  0.00000000000E+00 0. -1.
<scales pt_clust_3="54.40689" pt_clust_4="54.96177" pt_clust_5="14000.00000" pt_clust_6="109.25928"></scales>
<clustering>
<clus scale="   54.962">  1  4  2 -1</clus>
<clus scale="   54.407">  1  3  2 -1</clus>
<clus scale="  109.259">  2  6  1 -1</clus>
<clus scale="   54.962">  1  3  2 -1</clus>
</clustering>
</event>
<event>
 6    0  0.2036847E+002  0.1175170E+03  0.7546771E-02  0.1247250E+00
         21   -1    0    0  504  501  0.00000000000E+00  0.00000000000E+00  0.75760940227E+02  0.75760940227E+02  0.00000000000E+00 0.  1.
         21   -1    0    0  505  502 -0.00000000000E+00 -0.00000000000E+00 -0.12234648719E+04  0.12234648719E+04  0.00000000000E+00 0.  1.
         21    1    1    2  503  501  0.63054202928E+02 -0.18976349341E+02 -0.12407129523E+03  0.14046216801E+03  0.00000000000E+00 0. -1.
         21    1    1    2  504  506 -0.49080427031E+02 -0.45500170833E+02 -0.66260090200E+02  0.94178306508E+02  0.00000000000E+00 0.  1.
         21    1    1    2  505  503  0.11168057971E+03 -0.28938334362E+02 -0.88430972177E+03  0.89180360119E+03  0.00000000000E+00 0.  1.
         21    1    1    2  506  502 -0.12565435561E+03  0.93414854536E+02 -0.73062824523E+02  0.17278173647E+03  0.00000000000E+00 0.  1.
<scales pt_clust_3="65.84781" pt_clust_4="61.17394" pt_clust_5="14000.00000" pt_clust_6="117.51698"></scales>
<clustering>
<clus scale="   65.848">  1  3  2 -1</clus>
<clus scale="   61.174">  1  4  2 -1</clus>
<clus scale="  117.517">  1  6  2 -1</clus>
<clus scale="   65.848">  1  3  2 -1</clus>
</clustering>
</event>
<event>
 6    0  0.2036847E+002  0.2151506E+03  0.7546771E-02  0.1137551E+00
         21   -1    0    0  503  501  0.00000000000E+00  0.00000000000E+00  0.19330474575E+03  0.19330474575E+03  0.00000000000E+00 0.  1.
         21   -1    0    0  504  502 -0.00000000000E+00 -0.00000000000E+00 -0.23101619011E+04  0.23101619011E+04  0.00000000000E+00 0. -1.
         21    1    1    2  503  502 -0.87208055114E+02  0.78730802042E+02 -0.47434667554E+02  0.12670371641E+03  0.00000000000E+00 0.  1.
         21    1    1    2  504  506  0.19471202628E+03 -0.97016122962E+01 -0.11798302993E+04  0.11958287626E+04  0.00000000000E+00 0. -1.
         21    1    1    2  505  501  0.15938978646E+03  0.66419161353E+02  0.61934797136E+02  0.18344625403E+03  0.00000000000E+00 0.  1.
         21    1    1    2  506  505 -0.26689375762E+03 -0.13544835110E+03 -0.95152698569E+03  0.99748791380E+03  0.00000000000E+00 0. -1.
<scales pt_clust_3="117.48951" pt_clust_4="215.15065" pt_clust_5="157.38532" pt_clust_6="14000.00000"></scales>
<clustering>
<clus scale="  117.490">  1  3  2 -1</clus>
<clus scale="  157.385">  1  5  2 -1</clus>
<clus scale="  215.151">  2  4  1 -1</clus>
<clus scale="  117.490">  1  3  2 -1</clus>
</clustering>
</event>
<event>
 6    0  0.2036847E+002  0.9403678E+02  0.7546771E-02  0.1293360E+00
         21   -1    0    0  506  501  0.00000000000E+00  0.00000000000E+00  0.14274400869E+03  0.14274400869E+03  0.00000000000E+00 0. -1.
         21   -1    0    0  504  502 -0.00000000000E+00 -0.00000000000E+00 -0.11285849274E+04  0.11285849274E+04  0.00000000000E+00 0.  1.
         21    1    1    2  503  502  0.61180971142E+02  0.13686706883E+02 -0.42120738384E+03  0.42584750484E+03  0.00000000000E+00 0.  1.
         21    1    1    2  504  505  0.22337499973E+02  0.44904822731E+02 -0.60231806290E+03  0.60440256113E+03  0.00000000000E+00 0.  1.
         21    1    1    2  505  501 -0.13314355339E+03  0.22169611429E+02  0.53096911242E+02  0.14504474987E+03  0.00000000000E+00 0. -1.
         21    1    1    2  506  503  0.49625082274E+02 -0.80761141042E+02 -0.15412383194E+02  0.96034120233E+02  0.00000000000E+00 0. -1.
<scales pt_clust_3="94.03678" pt_clust_4="50.15383" pt_clust_5="14000.00000" pt_clust_6="92.08160"></scales>
<clustering>
<clus scale="   50.154">  2  4  1 -1</clus>
<clus scale="   92.082">  1  6  2 -1</clus>
<clus scale="   94.037">  2  3  1 -1</clus>
<clus scale="   92.082">  1  3  2 -1</clus>
</clustering>
</event>
<event>
 6    0  0.2036847E+002  0.1639499E+03  0.7546771E-02  0.1184308E+00
         21   -1    0    0  506  501  0.00000000000E+00  0.00000000000E+00  0.14115862138E+04  0.14115862138E+04  0.00000000000E+00 0. -1.
         21   -1    0    0  504  502 -0.00000000000E+00 -0.00000000000E+00 -0.23472837372E+03  0.23472837372E+03  0.00000000000E+00 0.  1.
         21    1    1    2  503  502  0.27415126930E+02  0.56134511047E+02 -0.16872411378E+03  0.17991803436E+03  0.00000000000E+00 0.  1.
         21    1    1    2  504  501  0.42605223067E+02 -0.13470310955E+03  0.10383782256E+04  0.10479453574E+04  0.00000000000E+00 0. -1.
         21    1    1    2  505  503 -0.24063243252E+02  0.12044456069E+03  0.19813763647E+02  0.12441268869E+03  0.00000000000E+00 0. -1.
         21    1    1    2  506  505 -0.45957106746E+02 -0.41875962189E+02  0.28738996459E+03  0.29403850703E+03  0.00000000000E+00 0. -1.
<scales pt_clust_3="62.18288" pt_clust_4="14000.00000" pt_clust_5="163.94987" pt_clust_6="62.17437"></scales>
<clustering>
<clus scale="   62.174">  1  6  2 -1</clus>
<clus scale="   62.183">  2  3  1 -1</clus>
<clus scale="  163.950">  2  5  1 -1</clus>
<clus scale="   62.174">  1  3  2 -1</clus>
</clustering>
</event>
<event>
 6    0  0.2036847E+002  0.9951067E+02  0.7546771E-02  0.1281328E+00
         21   -1    0    0  505  501  0.00000000000E+00  0.00000000000E+00  0.59886863383E+03  0.59886863383E+03  0.00000000000E+00 0.  1.
         21   -1    0    0  506  502 -0.00000000000E+00 -0.00000000000E+00 -0.13025672479E+03  0.13025672479E+03  0.00000000000E+00 0.  1.
         21    1    1    2  503  504 -0.75324371661E+02  0.99016178895E+02 -0.26120816559E+02  0.12712301801E+03  0.00000000000E+00 0.  1.
         21    1    1    2  504  501  0.48375443505E+02  0.12251874961E+02  0.25517206917E+03  0.26000591697E+03  0.00000000000E+00 0.  1.
         21    1    1    2  505  502  0.23513285852E+02 -0.22589783868E+02  0.25047014448E+03  0.25258358264E+03  0.00000000000E+00 0.  1.
         21    1    1    2  506  503  0.34356423037E+01 -0.88678269988E+02 -0.10909488049E+02  0.89412841000E+02  0.00000000000E+00 0.  1.
<scales pt_clust_3="14000.00000" pt_clust_4="65.96663" pt_clust_5="32.60633" pt_clust_6="99.51067"></scales>
<clustering>
<clus scale="   32.606">  1  5  2 -1</clus>
<clus scale="   65.967">  1  4  2 -1</clus>
<clus scale="   99.511">  2  6  1 -1</clus>
<clus scale="   32.606">  1  3  2 -1</clus>
</clustering>
</event>
<event>
 6    0  0.2036847E+002  0.1128076E+03  0.7546771E-02  0.1255457E+00
         21   -1    0    0  504  501  0.00000000000E+00  0.00000000000E+00  0.96155676586E+02  0.96155676586E+02  0.00000000000E+00 0.  1.
         21   -1    0    0  503  502 -0.00000000000E+00 -0.00000000000E+00 -0.15261632810E+04  0.15261632810E+04  0.00000000000E+00 0. -1.
         21    1    1    2  503  506 -0.59835863855E+02  0.26356283324E+02 -0.49732279871E+03  0.50160238276E+03  0.00000000000E+00 0.  1.
         21    1    1    2  504  502  0.83012697091E+02 -0.12648697995E+03 -0.98567419307E+03  0.99721796959E+03  0.00000000000E+00 0. -1.
         21    1    1    2  505  501 -0.10074009050E+02  0.40953521705E+02 -0.12065945073E+01  0.42191616095E+02  0.00000000000E+00 0.  1.
         21    1    1    2  506  505 -0.13102824186E+02  0.59177174918E+02  0.54195981874E+02  0.81306989147E+02  0.00000000000E+00 0.  1.
<scales pt_clust_3="65.38336" pt_clust_4="104.13857" pt_clust_5="36.17523" pt_clust_6="36.17523"></scales>
<clustering>
<clus scale="   36.175">  5  6 -1 -1</clus>
<clus scale="   65.383">  2  3  1 -1</clus>
<clus scale="  104.139">  2  4  1 -1</clus>
<clus scale="  112.808">  1  3  2 -1</clus>
</clustering>
</event>
<event>
 6    0  0.2036847E+002  0.1120084E+03  0.7546771E-02  0.1256895E+00
         21   -1    0    0  504  501  0.00000000000E+00  0.00000000000E+00  0.56907799065E+03  0.56907799065E+03  0.00000000000E+00 0. -1.
         21   -1    0    0  503  502 -0.00000000000E+00 -0.00000000000E+00 -0.47454688053E+02  0.47454688053E+02  0.00000000000E+00 0.  1.
         21    1    1    2  503  501  0.70542584093E+02 -0.43268153649E+02  0.45580282151E+02  0.94477253409E+02  0.00000000000E+00 0.  1.
         21    1    1    2  504  506 -0.27015025149E+02  0.76372310507E+02  0.35017688724E+03  0.35942508782E+03  0.00000000000E+00 0. -1.
         21    1    1    2  505  502 -0.12875589056E+02 -0.52218710061E+02  0.33279688717E+02  0.63246439861E+02  0.00000000000E+00 0. -1.
         21    1    1    2  506  505 -0.30651969888E+02  0.19114553202E+02  0.92586444483E+02  0.99383897610E+02  0.00000000000E+00 0.  1.
<scales pt_clust_3="102.58061" pt_clust_4="30.03551" pt_clust_5="53.78266" pt_clust_6="30.03551"></scales>
<clustering>
<clus scale="   30.036">  4  6 -1 -1</clus>
<clus scale="   53.783">  2  5  1 -1</clus>
<clus scale="  102.581">  2  3  1 -1</clus>
<clus scale="  112.008">  1  3  2 -1</clus>
</clustering>
</event>
<event>
 6    0  0.2036847E+002  0.1098126E+03  0.7546771E-02  0.1260917E+00
         21   -1    0    0  505  501  0.00000000000E+00  0.00000000000E+00  0.81931702620E+03  0.81931702620E+03  0.00000000000E+00 0.  1.
         21   -1    0    0  503  502 -0.00000000000E+00 -0.00000000000E+00 -0.41523738550E+03  0.41523738550E+03  0.00000000000E+00 0.  1.
         21    1    1    2  503  501 -0.34285686144E+02 -0.18272795869E+02  0.52771782617E+02  0.65530636986E+02  0.00000000000E+00 0. -1.
         21    1    1    2  504  506 -0.71741855909E+02 -0.25612773948E+01 -0.23167218036E+03  0.24253959096E+03  0.00000000000E+00 0.  1.
         21    1    1    2  505  504  0.12954409587E+03  0.48700280343E+02  0.74636102193E+03  0.75908376688E+03  0.00000000000E+00 0.  1.
         21    1    1    2  506  502 -0.23516553822E+02 -0.27866207080E+02 -0.16338098349E+03  0.16740041687E+03  0.00000000000E+00 0.  1.
<scales pt_clust_3="38.85104" pt_clust_4="31.74330" pt_clust_5="100.37425" pt_clust_6="31.74330"></scales>
<clustering>
<clus scale="   31.743">  4  6 -1 -1</clus>
<clus scale="   38.851">  1  3  2 -1</clus>
<clus scale="  100.374">  1  5  2 -1</clus>
<clus scale="   38.851">  1  3  2 -1</clus>
</clustering>
</event>
<event>
 6    0  0.2036847E+002  0.1437055E+03  0.7546771E-02  0.1208428E+00
         21   -1    0    0  505  501  0.00000000000E+00  0.00000000000E+00  0.11410904990E+03  0.11410904990E+03  0.00000000000E+00 0. -1.
         21   -1    0    0  503  502 -0.00000000000E+00 -0.00000000000E+00 -0.91575627950E+03  0.91575627950E+03  0.00000000000E+00 0.  1.
         21    1    1    2  503  506  0.24131707705E+02 -0.23067805392E+02 -0.67636381213E+02  0.75426408014E+02  0.00000000000E+00 0.  1.
         21    1    1    2  504  502 -0.21938083092E+02 -0.11774357602E+03 -0.61744901621E+03  0.62895796108E+03  0.00000000000E+00 0.  1.
         21    1    1    2  505  504  0.28404442320E+02  0.21498942646E+03 -0.53327591389E+02  0.22331837774E+03  0.00000000000E+00 0. -1.
         21    1    1    2  506  501 -0.30598066933E+02 -0.74178045047E+02 -0.63234240786E+02  0.10216258256E+03  0.00000000000E+00 0.  1.
<scales pt_clust_3="33.38357" pt_clust_4="143.70550" pt_clust_5="14000.00000" pt_clust_6="81.48554"></scales>
<clustering>
<clus scale="   33.384">  2  3  1 -1</clus>
<clus scale="   81.486">  1  6  2 -1</clus>
<clus scale="  143.705">  2  4  1 -1</clus>
<clus scale="   81.486">  1  3  2 -1</clus>
</clustering>
</event>
<event>
 6    0  0.2036847E+002  0.1056533E+03  0.7546771E-02  0.1268838E+00
         21   -1    0    0  506  501  0.00000000000E+00  0.00000000000E+00  0.11199133921E+03  0.11199133921E+03  0.00000000000E+00 0. -1.
         21   -1    0    0  504  502 -0.00000000000E+00 -0.00000000000E+00 -0.68531605616E+03  0.68531605616E+03  0.00000000000E+00 0. -1.
         21    1    1    2  503  505  0.59676929475E+02  0.42674143519E+02 -0.36842714996E+02  0.82096309813E+02  0.00000000000E+00 0.  1.
         21    1    1    2  504  503 -0.28792511873E+02 -0.20168435663E+02 -0.37236116737E+02  0.51208426325E+02  0.00000000000E+00 0. -1.
         21    1    1    2  505  501  0.32138861693E+02  0.49298022399E+02  0.67332738576E+02  0.89425383015E+02  0.00000000000E+00 0. -1.
         21    1    1    2  506  502 -0.63023279295E+02 -0.71803730254E+02 -0.56657862379E+03  0.57457727622E+03  0.00000000000E+00 0. -1.
<scales pt_clust_3="14000.00000" pt_clust_4="35.15358" pt_clust_5="58.28736" pt_clust_6="105.65330"></scales>
<clustering>
<clus scale="   35.154">  2  4  1 -1</clus>
<clus scale="   58.287">  1  5  2 -1</clus>
<clus scale="  105.653">  2  6  1 -1</clus>
<clus scale="   58.287">  1  3  2 -1</clus>
</clustering>
</event>
<event>
 6    0  0.2036847E+002  0.9172088E+02  0.7546771E-02  0.1298737E+00
         21   -1    0    0  505  501  0.00000000000E+00  0.00000000000E+00  0.10685654910E+04  0.10685654910E+04  0.00000000000E+00 0.  1.
         21   -1    0    0  503  502 -0.00000000000E+00 -0.00000000000E+00 -0.12574045947E+03  0.12574045947E+03  0.00000000000E+00 0. -1.
         21    1    1    2  503  504  0.79071415246E+02  0.50008370711E+02 -0.68479656494E+02  0.11594218043E+03  0.00000000000E+00 0. -1.
         21    1    1    2  504  501  0.29115477268E+02 -0.23345493935E+02  0.32984944280E+03  0.33195387935E+03  0.00000000000E+00 0. -1.
         21    1    1    2  505  506 -0.38436636265E+01 -0.43479254385E+02  0.62512301417E+03  0.62664503680E+03  0.00000000000E+00 0.  1.
         21    1    1    2  506  502 -0.10434322889E+03  0.16816377608E+02  0.56332231079E+02  0.11976485390E+03  0.00000000000E+00 0. -1.
<scales pt_clust_3="14000.00000" pt_clust_4="37.31921" pt_clust_5="66.63632" pt_clust_6="91.72088"></scales>
<clustering>
<clus scale="   37.319">  1  4  2 -1</clus>
<clus scale="   66.636">  1  5  2 -1</clus>
<clus scale="   91.721">  1  6  2 -1</clus>
<clus scale="   37.319">  1  3  2 -1</clus>
</clustering>
</event>
<event>
 6    0  0.2036847E+002  0.1077906E+03  0.7546771E-02  0.1264717E+00
         21   -1    0    0  504  501  0.00000000000E+00  0.00000000000E+00  0.47319760184E+03  0.47319760184E+03  0.00000000000E+00 0.  1.
         21   -1    0    0  506  502 -0.00000000000E+00 -0.00000000000E+00 -0.69138761488E+02  0.69138761488E+02  0.00000000000E+00 0.  1.
         21    1    1    2  503  505  0.53927675405E+02  0.51520871494E+01  0.69465275975E+01  0.54616777846E+02  0.00000000000E+00 0.  1.
         21    1    1    2  504  502  0.31103010500E+02  0.24737286588E+01  0.96994214450E+02  0.10188912715E+03  0.00000000000E+00 0.  1.
         21    1    1    2  505  501 -0.12269333725E+03  0.22543851960E+02  0.31210100365E+03  0.33610848955E+03  0.00000000000E+00 0.  1.
         21    1    1    2  506  503  0.37662651343E+02 -0.30169667769E+02 -0.11982905341E+02  0.49721968785E+02  0.00000000000E+00 0.  1.
<scales pt_clust_3="40.10121" pt_clust_4="31.20123" pt_clust_5="98.85484" pt_clust_6="40.10121"></scales>
<clustering>
<clus scale="   31.201">  1  4  2 -1</clus>
<clus scale="   40.101">  3  6 -1 -1</clus>
<clus scale="   98.855">  1  5  2 -1</clus>
<clus scale="   31.201">  1  3  2 -1</clus>
</clustering>
</event>
<event>
 6    0  0.2036847E+002  0.1805217E+03  0.7546771E-02  0.1167299E+00
         21   -1    0    0  506  501  0.00000000000E+00  0.00000000000E+00  0.40508922406E+03  0.40508922406E+03  0.00000000000E+00 0. -1.
         21   -1    0    0  503  502 -0.00000000000E+00 -0.00000000000E+00 -0.36636920294E+04  0.36636920294E+04  0.00000000000E+00 0.  1.
         21    1    1    2  503  504 -0.18154274814E+01 -0.93979260391E+02 -0.17609570883E+04  0.17634639956E+04  0.00000000000E+00 0.  1.
         21    1    1    2  504  505  0.26843233196E+02 -0.82754115579E+02 -0.18090698933E+04  0.18111605897E+04  0.00000000000E+00 0. -1.
         21    1    1    2  505  501 -0.84275531768E+02  0.16619960275E+02  0.31181720826E+03  0.32343246545E+03  0.00000000000E+00 0. -1.
         21    1    1    2  506  502  0.59247726053E+02  0.16011341570E+03 -0.39303209362E+00  0.17072420274E+03  0.00000000000E+00 0. -1.
<scales pt_clust_3="30.22754" pt_clust_4="30.22754" pt_clust_5="85.89871" pt_clust_6="177.76642"></scales>
<clustering>
<clus scale="   30.228">  3  4 -1 -1</clus>
<clus scale="   85.899">  1  5  2 -1</clus>
<clus scale="  177.766">  1  6  2 -1</clus>
<clus scale="   85.899">  1  3  2 -1</clus>
</clustering>
</event>
<event>
 6    0  0.2036847E+002  0.1046344E+03  0.7546771E-02  0.1270842E+00
         21   -1    0    0  502  501  0.00000000000E+00  0.00000000000E+00  0.69230582816E+02  0.69230582816E+02  0.00000000000E+00 0.  1.
         21   -1    0    0  504  502 -0.00000000000E+00 -0.00000000000E+00 -0.13481163010E+04  0.13481163010E+04  0.00000000000E+00 0.  1.
         21    1    1    2  503  501  0.11484201471E+02 -0.52903879264E+02  0.45431582895E+01  0.54326306812E+02  0.00000000000E+00 0.  1.
         21    1    1    2  504  506  0.32469454753E+02  0.46399678865E+02 -0.39791637291E+03  0.40192615680E+03  0.00000000000E+00 0.  1.
         21    1    1    2  505  503  0.45453162281E+02 -0.21527314435E+02  0.17487019123E+02  0.53246700048E+02  0.00000000000E+00 0.  1.
         21    1    1    2  506  505 -0.89406818505E+02  0.28031514834E+02 -0.90299952265E+03  0.90784772012E+03  0.00000000000E+00 0.  1.
<scales pt_clust_3="46.27266" pt_clust_4="56.63211" pt_clust_5="46.27266" pt_clust_6="92.97100"></scales>
<clustering>
<clus scale="   46.273">  3  5 -1 -1</clus>
<clus scale="   56.632">  2  4  1 -1</clus>
<clus scale="   92.971">  2  6  1 -1</clus>
<clus scale="  104.634">  1  3  2 -1</clus>
</clustering>
</event>
<event>
 6    0  0.2036847E+002  0.7842812E+02  0.7546771E-02  0.1333572E+00
         21   -1    0    0  504  501  0.00000000000E+00  0.00000000000E+00  0.14647353790E+04  0.14647353790E+04  0.00000000000E+00 0.  1.
         21   -1    0    0  503  502 -0.00000000000E+00 -0.00000000000E+00 -0.19912831025E+02  0.19912831025E+02  0.00000000000E+00 0.  1.
         21    1    1    2  503  506 -0.76245655651E+02  0.63614838206E+01  0.13717531812E+03  0.15706984556E+03  0.00000000000E+00 0.  1.
         21    1    1    2  504  502  0.43978144953E+02 -0.82306444157E+01  0.15905677564E+03  0.16522977522E+03  0.00000000000E+00 0. -1.
         21    1    1    2  505  501  0.77176398483E+02  0.39145438742E+02  0.98247124082E+03  0.98627496212E+03  0.00000000000E+00 0.  1.
         21    1    1    2  506  505 -0.44908887784E+02 -0.37276278147E+02  0.16611921342E+03  0.17607362717E+03  0.00000000000E+00 0.  1.
<scales pt_clust_3="50.26925" pt_clust_4="44.74171" pt_clust_5="14000.00000" pt_clust_6="78.42812"></scales>
<clustering>
<clus scale="   44.742">  2  4  1 -1</clus>
<clus scale="   50.269">  2  3  1 -1</clus>
<clus scale="   78.428">  2  6  1 -1</clus>
<clus scale="   78.428">  1  3  2 -1</clus>
</clustering>
</event>
<event>
 6    0  0.2036847E+002  0.8654194E+02  0.7546771E-02  0.1311449E+00
         21   -1    0    0  505  501  0.00000000000E+00  0.00000000000E+00  0.22095328815E+04  0.22095328815E+04  0.00000000000E+00 0. -1.
         21   -1    0    0  504  502 -0.00000000000E+00 -0.00000000000E+00 -0.26919814163E+03  0.26919814163E+03  0.00000000000E+00 0.  1.
         21    1    1    2  503  502 -0.11496268661E+03  0.11960524400E+02 -0.21256603063E+03  0.24195824192E+03  0.00000000000E+00 0.  1.
         21    1    1    2  504  501  0.39432093312E+02  0.29698250598E+02 -0.21529578814E+02  0.53855351038E+02  0.00000000000E+00 0.  1.
         21    1    1    2  505  506 -0.16296978853E+02 -0.35001439374E+02  0.16510125822E+04  0.16514639684E+04  0.00000000000E+00 0. -1.
         21    1    1    2  506  503  0.91827572154E+02 -0.66573356238E+01  0.52341776710E+03  0.53145346179E+03  0.00000000000E+00 0. -1.
<scales pt_clust_3="86.54194" pt_clust_4="48.38109" pt_clust_5="38.60948" pt_clust_6="14000.00000"></scales>
<clustering>
<clus scale="   38.609">  1  5  2 -1</clus>
<clus scale="   48.381">  2  4  1 -1</clus>
<clus scale="   86.542">  2  3  1 -1</clus>
<clus scale="   38.609">  1  3  2 -1</clus>
</clustering>
</event>
<event>
 6    0  0.2036847E+002  0.1354611E+03  0.7546771E-02  0.1219570E+00
         21   -1    0    0  504  501  0.00000000000E+00  0.00000000000E+00  0.53002537467E+03  0.53002537467E+03  0.00000000000E+00 0.  1.
         21   -1    0    0  506  502 -0.00000000000E+00 -0.00000000000E+00 -0.18966552471E+03  0.18966552471E+03  0.00000000000E+00 0. -1.
         21    1    1    2  503  502 -0.45897403792E+02  0.11678206017E+03 -0.13655948283E+03  0.18545380450E+03  0.00000000000E+00 0. -1.
         21    1    1    2  504  505  0.58476448600E+02 -0.48863483101E+02  0.30988112174E+03  0.31911352938E+03  0.00000000000E+00 0.  1.
         21    1    1    2  505  503  0.19972828136E+02 -0.54541360898E+02  0.17015210246E+03  0.17979269141E+03  0.00000000000E+00 0.  1.
         21    1    1    2  506  501 -0.32551872944E+02 -0.13377216175E+02 -0.31138914130E+01  0.35330874097E+02  0.00000000000E+00 0.  1.
<scales pt_clust_3="129.30990" pt_clust_4="35.34958" pt_clust_5="35.34958" pt_clust_6="35.19338"></scales>
<clustering>
<clus scale="   35.193">  2  6  1 -1</clus>
<clus scale="   35.350">  4  5 -1 -1</clus>
<clus scale="  129.310">  2  3  1 -1</clus>
<clus scale="  135.461">  1  3  2 -1</clus>
</clustering>
</event>
<event>
 6    0  0.2036847E+002  0.1413818E+03  0.7546771E-02  0.1211482E+00
         21   -1    0    0  503  501  0.00000000000E+00  0.00000000000E+00  0.54350760679E+03  0.54350760679E+03  0.00000000000E+00 0. -1.
         21   -1    0    0  506  502 -0.00000000000E+00 -0.00000000000E+00 -0.12570416226E+03  0.12570416226E+03  0.00000000000E+00 0. -1.
         21    1    1    2  503  505  0.46328999727E+02 -0.47137827831E+02  0.17769641636E+03  0.18958999820E+03  0.00000000000E+00 0. -1.
         21    1    1    2  504  502 -0.19128851450E+02  0.13318939335E+03 -0.48197907056E+02  0.14292783390E+03  0.00000000000E+00 0. -1.
         21    1    1    2  505  504  0.19432417986E+02 -0.71963638406E+02  0.27677077482E+03  0.28663294632E+03  0.00000000000E+00 0. -1.
         21    1    1    2  506  501 -0.46632566263E+02 -0.14087927117E+02  0.11534160401E+02  0.50060990631E+02  0.00000000000E+00 0. -1.
<scales pt_clust_3="39.25761" pt_clust_4="135.09501" pt_clust_5="39.25761" pt_clust_6="48.71412"></scales>
<clustering>
<clus scale="   39.258">  3  5 -1 -1</clus>
<clus scale="   48.714">  2  6  1 -1</clus>
<clus scale="  135.095">  2  4  1 -1</clus>
<clus scale="  141.382">  1  3  2 -1</clus>
</clustering>
</event>
<event>
 6    0  0.2036847E+002  0.9306899E+02  0.7546771E-02  0.1295585E+00
         21   -1    0    0  505  501  0.00000000000E+00  0.00000000000E+00  0.38996925676E+03  0.38996925676E+03  0.00000000000E+00 0. -1.
         21   -1    0    0  504  502 -0.00000000000E+00 -0.00000000000E+00 -0.18061733129E+03  0.18061733129E+03  0.00000000000E+00 0. -1.
         21    1    1    2  503  506  0.66143839629E+02 -0.11419526599E+03  0.23511397946E+03  0.26961852613E+03  0.00000000000E+00 0. -1.
         21    1    1    2  504  501 -0.39883280887E+02  0.24887222628E+02 -0.81986791761E+01  0.47720732231E+02  0.00000000000E+00 0. -1.
         21    1    1    2  505  503 -0.17214329181E+01  0.44786606732E+02  0.10846059600E+03  0.11735631367E+03  0.00000000000E+00 0. -1.
         21    1    1    2  506  502 -0.24539125825E+02  0.44521436627E+02 -0.12602397081E+03  0.13589101602E+03  0.00000000000E+00 0. -1.
<scales pt_clust_3="14000.00000" pt_clust_4="48.87801" pt_clust_5="44.81968" pt_clust_6="93.06899"></scales>
<clustering>
<clus scale="   44.820">  1  5  2 -1</clus>
<clus scale="   48.878">  2  4  1 -1</clus>
<clus scale="   93.069">  2  6  1 -1</clus>
<clus scale="   44.820">  1  3  2 -1</clus>
</clustering>
</event>
<event>
 6    0  0.2036847E+002  0.1008079E+03  0.7546771E-02  0.1278606E+00
         21   -1    0    0  505  501  0.00000000000E+00  0.00000000000E+00  0.33470278038E+03  0.33470278038E+03  0.00000000000E+00 0.  1.
         21   -1    0    0  504  502 -0.00000000000E+00 -0.00000000000E+00 -0.29598667381E+03  0.29598667381E+03  0.00000000000E+00 0.  1.
         21    1    1    2  503  502  0.57007984093E+02  0.17049779691E+02 -0.56999627724E+02  0.82398803381E+02  0.00000000000E+00 0.  1.
         21    1    1    2  504  506  0.43589156501E+02  0.23821848375E+02 -0.20218589839E+03  0.20819854114E+03  0.00000000000E+00 0.  1.
         21    1    1    2  505  503 -0.10955715723E+03 -0.71016098080E+02  0.21641754790E+03  0.25275009778E+03  0.00000000000E+00 0.  1.
         21    1    1    2  506  501  0.89600166365E+01  0.30144470014E+02  0.81484084780E+02  0.87342011901E+02  0.00000000000E+00 0. -1.
<scales pt_clust_3="14000.00000" pt_clust_4="49.94267" pt_clust_5="100.80790" pt_clust_6="31.44791"></scales>
<clustering>
<clus scale="   31.448">  1  6  2 -1</clus>
<clus scale="   49.943">  2  4  1 -1</clus>
<clus scale="  100.808">  1  5  2 -1</clus>
<clus scale="   31.448">  1  3  2 -1</clus>
</clustering>
</event>
<event>
 6    0  0.2036847E+002  0.1470576E+03  0.7546771E-02  0.1204136E+00
         21   -1    0    0  502  501  0.00000000000E+00  0.00000000000E+00  0.73467523398E+03  0.73467523398E+03  0.00000000000E+00 0.  1.
         21   -1    0    0  503  502 -0.00000000000E+00 -0.00000000000E+00 -0.51465524552E+02  0.51465524552E+02  0.00000000000E+00 0.  1.
         21    1    1    2  503  505 -0.93484389553E+02  0.74386490560E+01  0.43130717861E+02  0.10322268846E+03  0.00000000000E+00 0.  1.
         21    1    1    2  504  506  0.12023731263E+03 -0.56865017111E+02  0.51783482241E+03  0.53464338098E+03  0.00000000000E+00 0.  1.
         21    1    1    2  505  504 -0.44692628457E+02  0.23194378526E+02  0.59540356083E+02  0.77977331553E+02  0.00000000000E+00 0.  1.
         21    1    1    2  506  501  0.17939705383E+02  0.26231989530E+02  0.62703813075E+02  0.70297357547E+02  0.00000000000E+00 0. -1.
<scales pt_clust_3="35.05627" pt_clust_4="139.15856" pt_clust_5="35.05627" pt_clust_6="31.77972"></scales>
<clustering>
<clus scale="   31.780">  1  6  2 -1</clus>
<clus scale="   35.056">  3  5 -1 -1</clus>
<clus scale="  139.159">  1  4  2 -1</clus>
<clus scale="   31.780">  1  3  2 -1</clus>
</clustering>
</event>
<event>
 6    0  0.2036847E+002  0.8750144E+02  0.7546771E-02  0.1309018E+00
         21   -1    0    0  504  501  0.00000000000E+00  0.00000000000E+00  0.17087278809E+04  0.17087278809E+04  0.00000000000E+00 0.  1.
         21   -1    0    0  505  502 -0.00000000000E+00 -0.00000000000E+00 -0.25489010708E+02  0.25489010708E+02  0.00000000000E+00 0.  1.
         21    1    1    2  503  502 -0.20484730802E+02 -0.47645833759E+02  0.60110988754E+02  0.79391943165E+02  0.00000000000E+00 0.  1.
         21    1    1    2  504  503  0.74122300732E+02  0.10713064299E+01  0.12972230803E+04  0.12993394411E+04  0.00000000000E+00 0.  1.
         21    1    1    2  505  506 -0.66706541850E+02  0.76002222950E+02  0.18383762625E+03  0.20981509347E+03  0.00000000000E+00 0.  1.
         21    1    1    2  506  501  0.13068971921E+02 -0.29427695621E+02  0.14206717486E+03  0.14567041384E+03  0.00000000000E+00 0.  1.
<scales pt_clust_3="52.84825" pt_clust_4="14000.00000" pt_clust_5="87.50144" pt_clust_6="32.19918"></scales>
<clustering>
<clus scale="   32.199">  1  6  2 -1</clus>
<clus scale="   52.848">  2  3  1 -1</clus>
<clus scale="   87.501">  2  5  1 -1</clus>
<clus scale="   32.199">  1  3  2 -1</clus>
</clustering>
</event>
<event>
 6    0  0.2036847E+002  0.1334416E+03  0.7546771E-02  0.1222437E+00
         21   -1    0    0  506  501  0.00000000000E+00  0.00000000000E+00  0.21878471818E+03  0.21878471818E+03  0.00000000000E+00 0.  1.
         21   -1    0    0  501  502 -0.00000000000E+00 -0.00000000000E+00 -0.19434395108E+03  0.19434395108E+03  0.00000000000E+00 0.  1.
         21    1    1    2  503  504 -0.76171227471E+01  0.77316465514E+02  0.74257460599E+02  0.10747105123E+03  0.00000000000E+00 0.  1.
         21    1    1    2  504  505  0.87481185961E+01 -0.56733015530E+02 -0.90792375582E+02  0.10741703819E+03  0.00000000000E+00 0.  1.
         21    1    1    2  505  502  0.18029285214E+02 -0.68184204376E+02 -0.54980781939E+02  0.89426099291E+02  0.00000000000E+00 0.  1.
         21    1    1    2  506  503 -0.19160281063E+02  0.47600754392E+02  0.95956464024E+02  0.10881448055E+03  0.00000000000E+00 0.  1.
<scales pt_clust_3="31.32091" pt_clust_4="30.93895" pt_clust_5="132.27777" pt_clust_6="31.32091"></scales>
<clustering>
<clus scale="   30.939">  4  5 -1 -1</clus>
<clus scale="   31.321">  3  6 -1 -1</clus>
<clus scale="  132.278">  2  4  1 -1</clus>
<clus scale="  133.442">  1  3  2 -1</clus>
</clustering>
</event>
<event>
 6    0  0.2036847E+002  0.1148516E+03  0.7546771E-02  0.1251840E+00
         21   -1    0    0  502  501  0.00000000000E+00  0.00000000000E+00  0.31248035039E+03  0.31248035039E+03  0.00000000000E+00 0.  1.
         21   -1    0    0  506  502 -0.00000000000E+00 -0.00000000000E+00 -0.14069832407E+03  0.14069832407E+03  0.00000000000E+00 0. -1.
         21    1    1    2  503  505  0.35921831232E+02 -0.79559632333E+02  0.17774590143E+03  0.19802454022E+03  0.00000000000E+00 0.  1.
         21    1    1    2  504  503 -0.22752872654E+02  0.42693052752E+02 -0.40935608982E+02  0.63372817911E+02  0.00000000000E+00 0. -1.
         21    1    1    2  505  501 -0.45372879638E+02 -0.24872641986E+02  0.89471346350E+02  0.10335602713E+03  0.00000000000E+00 0.  1.
         21    1    1    2  506  504  0.32203921060E+02  0.61739221567E+02 -0.54499612465E+02  0.88425289200E+02  0.00000000000E+00 0. -1.
<scales pt_clust_3="101.24981" pt_clust_4="45.18970" pt_clust_5="51.74308" pt_clust_6="45.18970"></scales>
<clustering>
<clus scale="   45.190">  4  6 -1 -1</clus>
<clus scale="   51.743">  1  5  2 -1</clus>
<clus scale="  101.250">  1  3  2 -1</clus>
<clus scale="   51.743">  1  3  2 -1</clus>
</clustering>
</event>
<event>
 6    0  0.2036847E+002  0.1192996E+03  0.7546771E-02  0.1244257E+00
         21   -1    0    0  504  501  0.00000000000E+00  0.00000000000E+00  0.98320012240E+02  0.98320012240E+02  0.00000000000E+00 0. -1.
         21   -1    0    0  501  502 -0.00000000000E+00 -0.00000000000E+00 -0.56456528916E+03  0.56456528916E+03  0.00000000000E+00 0. -1.
         21    1    1    2  503  505  0.14705937945E+01  0.98858824658E+02  0.44871446859E+01  0.98971532909E+02  0.00000000000E+00 0. -1.
         21    1    1    2  504  503 -0.48225278114E+02  0.53790720864E+01  0.24147378007E+02  0.54200624815E+02  0.00000000000E+00 0. -1.
         21    1    1    2  505  506  0.81712090953E+01 -0.46644842115E+02 -0.13118241501E+03  0.13946804638E+03  0.00000000000E+00 0. -1.
         21    1    1    2  506  502  0.38583475225E+02 -0.57593054630E+02 -0.36369738461E+03  0.37024509730E+03  0.00000000000E+00 0. -1.
<scales pt_clust_3="111.27654" pt_clust_4="48.52434" pt_clust_5="35.54870" pt_clust_6="35.54870"></scales>
<clustering>
<clus scale="   35.549">  5  6 -1 -1</clus>
<clus scale="   48.524">  1  4  2 -1</clus>
<clus scale="  111.277">  1  3  2 -1</clus>
<clus scale="   48.524">  1  3  2 -1</clus>
</clustering>
</event>
<event>
 6    0  0.2036847E+002  0.1874531E+03  0.7546771E-02  0.1160779E+00
         21   -1    0    0  506  501  0.00000000000E+00  0.00000000000E+00  0.86097723725E+03  0.86097723725E+03  0.00000000000E+00 0. -1.
         21   -1    0    0  504  502 -0.00000000000E+00 -0.00000000000E+00 -0.17506248279E+03  0.17506248279E+03  0.00000000000E+00 0. -1.
         21    1    1    2  503  502 -0.22039988234E+02  0.22780732205E+02  0.20874923511E+02  0.37953725413E+02  0.00000000000E+00 0.  1.
         21    1    1    2  504  505  0.63030658644E+02 -0.20655067613E+03 -0.51039853208E+02  0.22190338518E+03  0.00000000000E+00 0. -1.
         21    1    1    2  505  501 -0.13673577808E+03  0.11925727112E+03  0.48596496118E+03  0.51873009669E+03  0.00000000000E+00 0. -1.
         21    1    1    2  506  503  0.95745107667E+02  0.64512672804E+02  0.23011472297E+03  0.25745251275E+03  0.00000000000E+00 0. -1.
<scales pt_clust_3="31.69736" pt_clust_4="187.45312" pt_clust_5="14000.00000" pt_clust_6="115.02442"></scales>
<clustering>
<clus scale="   31.697">  2  3  1 -1</clus>
<clus scale="  115.024">  1  6  2 -1</clus>
<clus scale="  187.453">  2  4  1 -1</clus>
<clus scale="  115.024">  1  3  2 -1</clus>
</clustering>
</event>
<event>
 6    0  0.2036847E+002  0.1177680E+03  0.7546771E-02  0.1246825E+00
         21   -1    0    0  505  501  0.00000000000E+00  0.00000000000E+00  0.21575080104E+03  0.21575080104E+03  0.00000000000E+00 0.  1.
         21   -1    0    0  504  502 -0.00000000000E+00 -0.00000000000E+00 -0.14116806702E+03  0.14116806702E+03  0.00000000000E+00 0.  1.
         21    1    1    2  503  506  0.39718837866E+02 -0.31654077148E+02  0.18269025375E+02  0.53975216254E+02  0.00000000000E+00 0.  1.
         21    1    1    2  504  503  0.66956072960E+02 -0.31191440016E+02 -0.23753557037E+02  0.77590290040E+02  0.00000000000E+00 0.  1.
         21    1    1    2  505  502  0.26881796921E+01  0.70457963484E+02 -0.23717569149E+02  0.74391357124E+02  0.00000000000E+00 0.  1.
         21    1    1    2  506  501 -0.10936309052E+03 -0.76124463201E+01  0.10378483483E+03  0.15096200465E+03  0.00000000000E+00 0.  1.
<scales pt_clust_3="36.62007" pt_clust_4="36.62007" pt_clust_5="70.50923" pt_clust_6="109.17411"></scales>
<clustering>
<clus scale="   36.620">  3  4 -1 -1</clus>
<clus scale="   70.509">  2  5  1 -1</clus>
<clus scale="  109.174">  1  6  2 -1</clus>
<clus scale="  109.174">  1  3  2 -1</clus>
</clustering>
</event>
<event>
 6    0  0.2036847E+002  0.1157608E+03  0.7546771E-02  0.1250259E+00
         21   -1    0    0  504  501  0.00000000000E+00  0.00000000000E+00  0.33016774564E+04  0.33016774564E+04  0.00000000000E+00 0. -1.
         21   -1    0    0  506  502 -0.00000000000E+00 -0.00000000000E+00 -0.16482810781E+02  0.16482810781E+02  0.00000000000E+00 0. -1.
         21    1    1    2  503  505 -0.81977495587E+02  0.31561108426E+02  0.78664516154E+03  0.79153460033E+03  0.00000000000E+00 0. -1.
         21    1    1    2  504  503 -0.35820364980E+02 -0.54336995223E+02  0.15650421296E+04  0.15663947379E+04  0.00000000000E+00 0. -1.
         21    1    1    2  505  502  0.16437127064E+03  0.31756031403E+02  0.82492842137E+03  0.84174417760E+03  0.00000000000E+00 0. -1.
         21    1    1    2  506  501 -0.46573410069E+02 -0.89801446065E+01  0.10857893312E+03  0.11848675133E+03  0.00000000000E+00 0. -1.
<scales pt_clust_3="115.76078" pt_clust_4="67.05464" pt_clust_5="14000.00000" pt_clust_6="47.43127"></scales>
<clustering>
<clus scale="   47.431">  2  6  1 -1</clus>
<clus scale="   67.055">  1  4  2 -1</clus>
<clus scale="  115.761">  1  3  2 -1</clus>
<clus scale="   67.055">  1  3  2 -1</clus>
</clustering>
</event>
<event>
 6    0  0.2036847E+002  0.9053058E+02  0.7546771E-02  0.1301572E+00
         21   -1    0    0  504  501  0.00000000000E+00  0.00000000000E+00  0.40282611176E+03  0.40282611176E+03  0.00000000000E+00 0. -1.
         21   -1    0    0  506  502 -0.00000000000E+00 -0.00000000000E+00 -0.18494263188E+03  0.18494263188E+03  0.00000000000E+00 0. -1.
         21    1    1    2  503  501  0.11863290053E+03  0.46002115353E+02  0.19167160181E+03  0.23006078033E+03  0.00000000000E+00 0. -1.
         21    1    1    2  504  505 -0.74839098482E+02 -0.13127676019E+02  0.17432196061E+03  0.19016143796E+03  0.00000000000E+00 0. -1.
         21    1    1    2  505  502 -0.10900624303E+02 -0.39191258832E+02 -0.10729498281E+03  0.11474751290E+03  0.00000000000E+00 0. -1.
         21    1    1    2  506  503 -0.32893177745E+02  0.63168194978E+01 -0.40815099714E+02  0.52799012447E+02  0.00000000000E+00 0. -1.
<scales pt_clust_3="90.53058" pt_clust_4="14000.00000" pt_clust_5="50.57530" pt_clust_6="33.49423"></scales>
<clustering>
<clus scale="   33.494">  2  6  1 -1</clus>
<clus scale="   50.575">  2  5  1 -1</clus>
<clus scale="   90.531">  2  3  1 -1</clus>
<clus scale="   90.531">  1  3  2 -1</clus>
</clustering>
</event>
<event>
 6    0  0.2036847E+002  0.1166304E+03  0.7546771E-02  0.1248762E+00
         21   -1    0    0  506  501  0.00000000000E+00  0.00000000000E+00  0.22975386213E+04  0.22975386213E+04  0.00000000000E+00 0.  1.
         21   -1    0    0  503  502 -0.00000000000E+00 -0.00000000000E+00 -0.18311726167E+03  0.18311726167E+03  0.00000000000E+00 0.  1.
         21    1    1    2  503  505  0.40468261020E+02  0.36868321491E+02  0.50225526818E+02  0.74293719948E+02  0.00000000000E+00 0.  1.
         21    1    1    2  504  502 -0.59197424193E+02 -0.15232301940E+03 -0.12866548862E+03  0.20799385864E+03  0.00000000000E+00 0.  1.
         21    1    1    2  505  501  0.36830701356E+02  0.87058970946E+02  0.20226573702E+04  0.20248650825E+04  0.00000000000E+00 0.  1.
         21    1    1    2  506  504 -0.18101538183E+02  0.28395726961E+02  0.17020395115E+03  0.17350322182E+03  0.00000000000E+00 0. -1.
<scales pt_clust_3="54.92123" pt_clust_4="14000.00000" pt_clust_5="116.63038" pt_clust_6="33.67466"></scales>
<clustering>
<clus scale="   33.675">  1  6  2 -1</clus>
<clus scale="   54.921">  2  3  1 -1</clus>
<clus scale="  116.630">  1  5  2 -1</clus>
<clus scale="   33.675">  1  3  2 -1</clus>
</clustering>
</event>
<event>
 6    0  0.2036847E+002  0.1464040E+03  0.7546771E-02  0.1204963E+00
         21   -1    0    0  506  501  0.00000000000E+00  0.00000000000E+00  0.13440852987E+04  0.13440852987E+04  0.00000000000E+00 0.  1.
         21   -1    0    0  503  502 -0.00000000000E+00 -0.00000000000E+00 -0.11297772031E+04  0.11297772031E+04  0.00000000000E+00 0. -1.
         21    1    1    2  503  504  0.99490439780E+02 -0.73100188151E+02 -0.10543031021E+04  0.10615069554E+04  0.00000000000E+00 0. -1.
         21    1    1    2  504  501  0.17408275838E+02 -0.69471534891E+02  0.20284721717E+03  0.21511935231E+03  0.00000000000E+00 0.  1.
         21    1    1    2  505  502  0.46677549134E+02  0.66949445652E+02 -0.29848306137E+02  0.86901917387E+02  0.00000000000E+00 0. -1.
         21    1    1    2  506  505 -0.16357626475E+03  0.75622277390E+02  0.10956122868E+04  0.11103342768E+04  0.00000000000E+00 0.  1.
<scales pt_clust_3="14000.00000" pt_clust_4="71.61943" pt_clust_5="80.44456" pt_clust_6="146.40402"></scales>
<clustering>
<clus scale="   71.619">  1  4  2 -1</clus>
<clus scale="   80.445">  2  5  1 -1</clus>
<clus scale="  146.404">  1  6  2 -1</clus>
<clus scale="   71.619">  1  3  2 -1</clus>
</clustering>
</event>
<event>
 6    0  0.2036847E+002  0.1418007E+03  0.7546771E-02  0.1210926E+00
         21   -1    0    0  502  501  0.00000000000E+00  0.00000000000E+00  0.13849354834E+03  0.13849354834E+03  0.00000000000E+00 0. -1.
         21   -1    0    0  504  502 -0.00000000000E+00 -0.00000000000E+00 -0.79176229407E+03  0.79176229407E+03  0.00000000000E+00 0. -1.
         21    1    1    2  503  505  0.70764299956E+02 -0.38717473586E+00 -0.30048121722E+03  0.30870163257E+03  0.00000000000E+00 0.  1.
         21    1    1    2  504  503  0.60212929521E+02  0.50652965176E+02 -0.43238823254E+03  0.43948936666E+03  0.00000000000E+00 0. -1.
         21    1    1    2  505  506 -0.72996525864E+02 -0.35887391423E+02 -0.14797044229E+01  0.81354699781E+02  0.00000000000E+00 0. -1.
         21    1    1    2  506  501 -0.57980703613E+02 -0.14378399017E+02  0.81080408445E+02  0.10071014340E+03  0.00000000000E+00 0. -1.
<scales pt_clust_3="52.03322" pt_clust_4="52.03322" pt_clust_5="130.75539" pt_clust_6="59.73693"></scales>
<clustering>
<clus scale="   52.033">  3  4 -1 -1</clus>
<clus scale="   59.737">  1  6  2 -1</clus>
<clus scale="  130.755">  1  5  2 -1</clus>
<clus scale="   59.737">  1  3  2 -1</clus>
</clustering>
</event>
<event>
 6    0  0.2036847E+002  0.1208897E+03  0.7546771E-02  0.1241637E+00
         21   -1    0    0  505  501  0.00000000000E+00  0.00000000000E+00  0.15502957214E+04  0.15502957214E+04  0.00000000000E+00 0. -1.
         21   -1    0    0  506  502 -0.00000000000E+00 -0.00000000000E+00 -0.14477075663E+03  0.14477075663E+03  0.00000000000E+00 0.  1.
         21    1    1    2  503  501  0.39114863667E+02 -0.98948499444E+02  0.13737200919E+04  0.13778344128E+04  0.00000000000E+00 0. -1.
         21    1    1    2  504  503  0.98131056794E+01  0.64662253823E+02 -0.42924676771E+02  0.78230633312E+02  0.00000000000E+00 0.  1.
         21    1    1    2  505  502 -0.30129112534E+02 -0.14033784520E+02  0.14663382602E+03  0.15035354822E+03  0.00000000000E+00 0. -1.
         21    1    1    2  506  504 -0.18798856813E+02  0.48320030141E+02 -0.71904276378E+02  0.88647883741E+02  0.00000000000E+00 0.  1.
<scales pt_clust_3="113.12515" pt_clust_4="38.01566" pt_clust_5="33.23719" pt_clust_6="38.01566"></scales>
<clustering>
<clus scale="   33.237">  1  5  2 -1</clus>
<clus scale="   38.016">  4  6 -1 -1</clus>
<clus scale="  113.125">  1  3  2 -1</clus>
<clus scale="   33.237">  1  3  2 -1</clus>
</clustering>
</event>
<event>
 6    0  0.2036847E+002  0.2334405E+03  0.7546771E-02  0.1124241E+00
         21   -1    0    0  504  501  0.00000000000E+00  0.00000000000E+00  0.96693871742E+02  0.96693871742E+02  0.00000000000E+00 0. -1.
         21   -1    0    0  503  502 -0.00000000000E+00 -0.00000000000E+00 -0.58996720170E+03  0.58996720170E+03  0.00000000000E+00 0. -1.
         21    1    1    2  503  506  0.17712971098E+03  0.20964569296E+02 -0.20979139228E+03  0.27536680256E+03  0.00000000000E+00 0. -1.
         21    1    1    2  504  505 -0.15358539772E+03  0.18435170696E+01 -0.11233894056E+03  0.19029427346E+03  0.00000000000E+00 0. -1.
         21    1    1    2  505  502 -0.66617907420E+02 -0.34709740397E+02 -0.45919104324E+02  0.88041330120E+02  0.00000000000E+00 0.  1.
         21    1    1    2  506  501  0.43073594156E+02  0.11901654031E+02 -0.12522389279E+03  0.13295866729E+03  0.00000000000E+00 0. -1.
<scales pt_clust_3="35.12613" pt_clust_4="228.96528" pt_clust_5="37.36939" pt_clust_6="35.12613"></scales>
<clustering>
<clus scale="   35.126">  3  6 -1 -1</clus>
<clus scale="   37.369">  4  5 -1 -1</clus>
<clus scale="  228.965">  1  4  2 -1</clus>
<clus scale="  228.965">  1  3  2 -1</clus>
</clustering>
</event>
<event>
 6    0  0.2036847E+002  0.2048782E+03  0.7546771E-02  0.1145687E+00
         21   -1    0    0  503  501  0.00000000000E+00  0.00000000000E+00  0.26471393716E+04  0.26471393716E+04  0.00000000000E+00 0. -1.
         21   -1    0    0  506  502 -0.00000000000E+00 -0.00000000000E+00 -0.37152058914E+02  0.37152058914E+02  0.00000000000E+00 0. -1.
         21    1    1    2  503  502 -0.39006977837E+02  0.47398661939E+02  0.13478360790E+03  0.14810401221E+03  0.00000000000E+00 0.  1.
         21    1    1    2  504  505 -0.35398040636E+02 -0.19203701400E+02  0.20857885215E+03  0.21243102644E+03  0.00000000000E+00 0. -1.
         21    1    1    2  505  501 -0.13402173863E+03 -0.68084071926E+02  0.18509684864E+04  0.18570626282E+04  0.00000000000E+00 0. -1.
         21    1    1    2  506  504  0.20842675710E+03  0.39889111387E+02  0.41565636618E+03  0.46669376365E+03  0.00000000000E+00 0. -1.
<scales pt_clust_3="61.38548" pt_clust_4="35.65937" pt_clust_5="35.65937" pt_clust_6="192.94704"></scales>
<clustering>
<clus scale="   35.659">  4  5 -1 -1</clus>
<clus scale="   61.385">  2  3  1 -1</clus>
<clus scale="  192.947">  2  6  1 -1</clus>
<clus scale="  204.878">  1  3  2 -1</clus>
</clustering>
</event>
<event>
 6    0  0.2036847E+002  0.8103378E+02  0.7546771E-02  0.1326143E+00
         21   -1    0    0  506  501  0.00000000000E+00  0.00000000000E+00  0.51768130837E+03  0.51768130837E+03  0.00000000000E+00 0.  1.
         21   -1    0    0  504  502 -0.00000000000E+00 -0.00000000000E+00 -0.14846997200E+03  0.14846997200E+03  0.00000000000E+00 0.  1.
         21    1    1    2  503  502 -0.19694113053E+02  0.31054703986E+02 -0.15027718357E+02  0.39725118598E+02  0.00000000000E+00 0.  1.
         21    1    1    2  504  505 -0.44564393512E+02 -0.84764060718E+02 -0.89246079450E+02  0.13090375799E+03  0.00000000000E+00 0.  1.
         21    1    1    2  505  501  0.80002795994E+02 -0.73754015613E+01  0.21704524428E+03  0.23143785770E+03  0.00000000000E+00 0.  1.
         21    1    1    2  506  503 -0.15744289429E+02  0.61084758293E+02  0.25643988989E+03  0.26408454607E+03  0.00000000000E+00 0.  1.
<scales pt_clust_3="36.77299" pt_clust_4="14000.00000" pt_clust_5="81.03378" pt_clust_6="64.18651"></scales>
<clustering>
<clus scale="   36.773">  2  3  1 -1</clus>
<clus scale="   64.187">  1  6  2 -1</clus>
<clus scale="   81.034">  1  5  2 -1</clus>
<clus scale="   64.187">  1  3  2 -1</clus>
</clustering>
</event>
<event>
 6    0  0.2036847E+002  0.1204814E+03  0.7546771E-02  0.1242305E+00
         21   -1    0    0  503  501  0.00000000000E+00  0.00000000000E+00  0.25464891880E+04  0.25464891880E+04  0.00000000000E+00 0.  1.
         21   -1    0    0  506  502 -0.00000000000E+00 -0.00000000000E+00 -0.15127460705E+03  0.15127460705E+03  0.00000000000E+00 0.  1.
         21    1    1    2  503  505  0.42054577864E+02  0.91966939287E+02  0.22798097089E+04  0.22820514487E+04  0.00000000000E+00 0.  1.
         21    1    1    2  504  502  0.51965603772E+02 -0.28871763057E+02 -0.32858435290E+02  0.67924071190E+02  0.00000000000E+00 0.  1.
         21    1    1    2  505  504 -0.76590597731E+02 -0.90091122201E+02 -0.63076637600E+02  0.13401937237E+03  0.00000000000E+00 0.  1.
         21    1    1    2  506  501 -0.17429583905E+02  0.26995945971E+02  0.21133994485E+03  0.21376890275E+03  0.00000000000E+00 0. -1.
<scales pt_clust_3="120.48144" pt_clust_4="59.23464" pt_clust_5="14000.00000" pt_clust_6="32.13365"></scales>
<clustering>
<clus scale="   32.134">  1  6  2 -1</clus>
<clus scale="   59.235">  2  4  1 -1</clus>
<clus scale="  120.481">  1  3  2 -1</clus>
<clus scale="   32.134">  1  3  2 -1</clus>
</clustering>
</event>
<event>
 6    0  0.2036847E+002  0.1882849E+03  0.7546771E-02  0.1160017E+00
         21   -1    0    0  504  501  0.00000000000E+00  0.00000000000E+00  0.27029684214E+03  0.27029684214E+03  0.00000000000E+00 0.  1.
         21   -1    0    0  503  502 -0.00000000000E+00 -0.00000000000E+00 -0.13192367728E+03  0.13192367728E+03  0.00000000000E+00 0.  1.
         21    1    1    2  503  506  0.14105135437E+03 -0.25381375326E+02  0.14888322756E+02  0.14408803190E+03  0.00000000000E+00 0.  1.
         21    1    1    2  504  505 -0.53071221959E+02 -0.38779845997E+01  0.20672783225E+02  0.57087278189E+02  0.00000000000E+00 0.  1.
         21    1    1    2  505  502 -0.10975029115E+03  0.66889447672E+02  0.84836357353E+02  0.15400172774E+03  0.00000000000E+00 0.  1.
         21    1    1    2  506  501  0.21770158742E+02 -0.37630087747E+02  0.17975701526E+02  0.47043481598E+02  0.00000000000E+00 0.  1.
<scales pt_clust_3="38.82752" pt_clust_4="34.91883" pt_clust_5="182.82885" pt_clust_6="38.82752"></scales>
<clustering>
<clus scale="   34.919">  4  5 -1 -1</clus>
<clus scale="   38.828">  3  6 -1 -1</clus>
<clus scale="  182.829">  1  4  2 -1</clus>
<clus scale="  182.829">  1  3  2 -1</clus>
</clustering>
</event>
<event>
 6    0  0.2036847E+002  0.1905335E+03  0.7546771E-02  0.1157981E+00
         21   -1    0    0  504  501  0.00000000000E+00  0.00000000000E+00  0.27994053174E+03  0.27994053174E+03  0.00000000000E+00 0. -1.
         21   -1    0    0  506  502 -0.00000000000E+00 -0.00000000000E+00 -0.84815135900E+03  0.84815135900E+03  0.00000000000E+00 0.  1.
         21    1    1    2  503  505  0.44172686001E+02  0.86923481294E+02  0.93578588789E+02  0.13514388654E+03  0.00000000000E+00 0.  1.
         21    1    1    2  504  503 -0.17135130993E+01  0.89385729842E+02  0.13579380861E+03  0.16258137435E+03  0.00000000000E+00 0. -1.
         21    1    1    2  505  502  0.30279110290E+02  0.92834437509E+01 -0.11216049476E+03  0.11654605714E+03  0.00000000000E+00 0.  1.
         21    1    1    2  506  501 -0.72738283192E+02 -0.18559265489E+03 -0.68542272989E+03  0.71382057272E+03  0.00000000000E+00 0.  1.
<scales pt_clust_3="53.54195" pt_clust_4="53.54195" pt_clust_5="31.67028" pt_clust_6="182.10468"></scales>
<clustering>
<clus scale="   31.670">  2  5  1 -1</clus>
<clus scale="   53.542">  3  4 -1 -1</clus>
<clus scale="  182.105">  2  6  1 -1</clus>
<clus scale="  190.534">  1  3  2 -1</clus>
</clustering>
</event>
<event>
 6    0  0.2036847E+002  0.6644295E+02  0.7546771E-02  0.1372624E+00
         21   -1    0    0  504  501  0.00000000000E+00  0.00000000000E+00  0.50686114309E+02  0.50686114309E+02  0.00000000000E+00 0.  1.
         21   -1    0    0  505  502 -0.00000000000E+00 -0.00000000000E+00 -0.14996199610E+04  0.14996199610E+04  0.00000000000E+00 0.  1.
         21    1    1    2  503  502  0.42050987994E+01 -0.39940138402E+02 -0.93091530838E+03  0.93178120226E+03  0.00000000000E+00 0.  1.
         21    1    1    2  504  506 -0.81058419974E+01  0.64734878312E+02  0.68398850346E+01  0.65597966217E+02  0.00000000000E+00 0.  1.
         21    1    1    2  505  501 -0.75207381144E-02 -0.85329387040E+02 -0.44243078513E+03  0.45058418079E+03  0.00000000000E+00 0.  1.
         21    1    1    2  506  503  0.39082639361E+01  0.60534647130E+02 -0.82427638193E+02  0.10234272602E+03  0.00000000000E+00 0. -1.
<scales pt_clust_3="40.16090" pt_clust_4="14000.00000" pt_clust_5="66.44295" pt_clust_6="54.23623"></scales>
<clustering>
<clus scale="   40.161">  2  3  1 -1</clus>
<clus scale="   54.236">  2  6  1 -1</clus>
<clus scale="   66.443">  2  5  1 -1</clus>
<clus scale="   66.443">  1  3  2 -1</clus>
</clustering>
</event>
<event>
 6    0  0.2036847E+002  0.1131659E+03  0.7546771E-02  0.1254817E+00
         21   -1    0    0  506  501  0.00000000000E+00  0.00000000000E+00  0.31948711214E+03  0.31948711214E+03  0.00000000000E+00 0.  1.
         21   -1    0    0  503  502 -0.00000000000E+00 -0.00000000000E+00 -0.91586754383E+03  0.91586754383E+03  0.00000000000E+00 0.  1.
         21    1    1    2  503  501  0.58665940189E+02  0.88406664136E+02  0.14033269217E+03  0.17592809694E+03  0.00000000000E+00 0.  1.
         21    1    1    2  504  505 -0.26113842443E+02  0.19343602487E+02 -0.67196338637E+03  0.67274876465E+03  0.00000000000E+00 0.  1.
         21    1    1    2  505  502 -0.19990118512E+02  0.24656704231E+02 -0.19674871793E+03  0.19929278940E+03  0.00000000000E+00 0. -1.
         21    1    1    2  506  504 -0.12561979234E+02 -0.13240697085E+03  0.13199898043E+03  0.18738500497E+03  0.00000000000E+00 0.  1.
<scales pt_clust_3="14000.00000" pt_clust_4="61.73603" pt_clust_5="31.74205" pt_clust_6="113.16586"></scales>
<clustering>
<clus scale="   31.742">  2  5  1 -1</clus>
<clus scale="   61.736">  2  4  1 -1</clus>
<clus scale="  113.166">  2  6  1 -1</clus>
<clus scale="  113.166">  1  3  2 -1</clus>
</clustering>
</event>
<event>
 6    0  0.2036847E+002  0.1457664E+03  0.7546771E-02  0.1205774E+00
         21   -1    0    0  504  501  0.00000000000E+00  0.00000000000E+00  0.17184433718E+04  0.17184433718E+04  0.00000000000E+00 0.  1.
         21   -1    0    0  505  502 -0.00000000000E+00 -0.00000000000E+00 -0.67020528038E+02  0.67020528038E+02  0.00000000000E+00 0.  1.
         21    1    1    2  503  506  0.14792091075E+02  0.10896653667E+03  0.91019873466E+03  0.91681745655E+03  0.00000000000E+00 0.  1.
         21    1    1    2  504  502  0.69925262363E+02 -0.73675960782E+02  0.26280201829E+03  0.28174916207E+03  0.00000000000E+00 0. -1.
         21    1    1    2  505  503 -0.12074987863E+03 -0.65682979269E+02  0.36166428019E+02  0.14213654516E+03  0.00000000000E+00 0.  1.
         21    1    1    2  506  501  0.36032525189E+02  0.30392403384E+02  0.44225566279E+03  0.44476073604E+03  0.00000000000E+00 0.  1.
<scales pt_clust_3="34.38535" pt_clust_4="101.57603" pt_clust_5="135.97655" pt_clust_6="34.38535"></scales>
<clustering>
<clus scale="   34.385">  3  6 -1 -1</clus>
<clus scale="  101.576">  1  4  2 -1</clus>
<clus scale="  135.977">  2  5  1 -1</clus>
<clus scale="  101.576">  1  3  2 -1</clus>
</clustering>
</event>
<event>
 6    0  0.2036847E+002  0.1169802E+03  0.7546771E-02  0.1248164E+00
         21   -1    0    0  506  501  0.00000000000E+00  0.00000000000E+00  0.41454465001E+03  0.41454465001E+03  0.00000000000E+00 0.  1.
         21   -1    0    0  503  502 -0.00000000000E+00 -0.00000000000E+00 -0.41595458289E+03  0.41595458289E+03  0.00000000000E+00 0.  1.
         21    1    1    2  503  504  0.37601229355E+02  0.11328958223E+03  0.50431933124E+02  0.12958303041E+03  0.00000000000E+00 0.  1.
         21    1    1    2  504  501  0.49597804121E+02 -0.11329181339E+03  0.30318728908E+03  0.32744084873E+03  0.00000000000E+00 0.  1.
         21    1    1    2  505  502 -0.32792677232E+02  0.41580671348E+01 -0.27276138577E+03  0.27475702496E+03  0.00000000000E+00 0.  1.
         21    1    1    2  506  505 -0.54406356244E+02 -0.41558359769E+01 -0.82267769312E+02  0.98718328794E+02  0.00000000000E+00 0.  1.
<scales pt_clust_3="116.98018" pt_clust_4="14000.00000" pt_clust_5="33.05524" pt_clust_6="75.29073"></scales>
<clustering>
<clus scale="   33.055">  2  5  1 -1</clus>
<clus scale="   75.291">  2  6  1 -1</clus>
<clus scale="  116.980">  2  3  1 -1</clus>
<clus scale="  116.980">  1  3  2 -1</clus>
</clustering>
</event>
<event>
 6    0  0.2036847E+002  0.9100521E+02  0.7546771E-02  0.1300436E+00
         21   -1    0    0  505  501  0.00000000000E+00  0.00000000000E+00  0.29888311541E+03  0.29888311541E+03  0.00000000000E+00 0.  1.
         21   -1    0    0  503  502 -0.00000000000E+00 -0.00000000000E+00 -0.10769072150E+04  0.10769072150E+04  0.00000000000E+00 0. -1.
         21    1    1    2  503  504 -0.22976045864E+01 -0.97400924336E+02 -0.43225552762E+02  0.10658643188E+03  0.00000000000E+00 0.  1.
         21    1    1    2  504  506 -0.13708940643E+02  0.35163204980E+02  0.67390404921E+02  0.77238932628E+02  0.00000000000E+00 0.  1.
         21    1    1    2  505  502  0.45553285389E+02  0.79142413082E+02 -0.99348042443E+03  0.99766827006E+03  0.00000000000E+00 0. -1.
         21    1    1    2  506  501 -0.29546740160E+02 -0.16904693726E+02  0.19129147265E+03  0.19429669589E+03  0.00000000000E+00 0.  1.
<scales pt_clust_3="14000.00000" pt_clust_4="41.28719" pt_clust_5="91.00521" pt_clust_6="34.04084"></scales>
<clustering>
<clus scale="   34.041">  1  6  2 -1</clus>
<clus scale="   41.287">  1  4  2 -1</clus>
<clus scale="   91.005">  2  5  1 -1</clus>
<clus scale="   34.041">  1  3  2 -1</clus>
</clustering>
</event>
<event>
 6    0  0.2036847E+002  0.2655955E+03  0.7546771E-02  0.1103827E+00
         21   -1    0    0  505  501  0.00000000000E+00  0.00000000000E+00  0.80197366566E+03  0.80197366566E+03  0.00000000000E+00 0.  1.
         21   -1    0    0  501  502 -0.00000000000E+00 -0.00000000000E+00 -0.40579868510E+03  0.40579868510E+03  0.00000000000E+00 0.  1.
         21    1    1    2  503  506  0.17940738506E+03  0.20304592583E+02  0.46294959183E+03  0.49691207560E+03  0.00000000000E+00 0.  1.
         21    1    1    2  504  502 -0.11300001685E+03  0.43509953416E+02 -0.18976640968E+03  0.22510755229E+03  0.00000000000E+00 0.  1.
         21    1    1    2  505  503  0.54693978815E+02 -0.62830785686E+02  0.27733100014E+03  0.28957144643E+03  0.00000000000E+00 0. -1.
         21    1    1    2  506  504 -0.12110134703E+03 -0.98376031275E+00 -0.15433920174E+03  0.19618127645E+03  0.00000000000E+00 0.  1.
<scales pt_clust_3="80.16506" pt_clust_4="49.63176" pt_clust_5="80.16506" pt_clust_6="243.05474"></scales>
<clustering>
<clus scale="   49.632">  4  6 -1 -1</clus>
<clus scale="   80.165">  3  5 -1 -1</clus>
<clus scale="  243.055">  2  4  1 -1</clus>
<clus scale="  265.596">  1  3  2 -1</clus>
</clustering>
</event>
<event>
 6    0  0.2036847E+002  0.1235421E+03  0.7546771E-02  0.1237366E+00
         21   -1    0    0  504  501  0.00000000000E+00  0.00000000000E+00  0.15870849341E+03  0.15870849341E+03  0.00000000000E+00 0. -1.
         21   -1    0    0  506  502 -0.00000000000E+00 -0.00000000000E+00 -0.28896091741E+03  0.28896091741E+03  0.00000000000E+00 0. -1.
         21    1    1    2  503  502  0.50936859724E+02 -0.32776998841E+02 -0.11165271961E+03  0.12702450601E+03  0.00000000000E+00 0. -1.
         21    1    1    2  504  505 -0.54722592807E+02 -0.21483066705E+02  0.34082530360E+02  0.67953684185E+02  0.00000000000E+00 0.  1.
         21    1    1    2  505  503  0.25516496512E+02 -0.60004675419E+02 -0.10622914665E+03  0.12464463192E+03  0.00000000000E+00 0.  1.
         21    1    1    2  506  501 -0.21730763430E+02  0.11426474096E+03  0.53546911903E+02  0.12804658871E+03  0.00000000000E+00 0. -1.
<scales pt_clust_3="36.20786" pt_clust_4="58.78847" pt_clust_5="36.20786" pt_clust_6="117.69176"></scales>
<clustering>
<clus scale="   36.208">  3  5 -1 -1</clus>
<clus scale="   58.788">  1  4  2 -1</clus>
<clus scale="  117.692">  1  6  2 -1</clus>
<clus scale="   58.788">  1  3  2 -1</clus>
</clustering>
</event>
<event>
 6    0  0.2036847E+002  0.2258649E+03  0.7546771E-02  0.1129585E+00
         21   -1    0    0  506  501  0.00000000000E+00  0.00000000000E+00  0.42033669682E+03  0.42033669682E+03  0.00000000000E+00 0.  1.
         21   -1    0    0  503  502 -0.00000000000E+00 -0.00000000000E+00 -0.15456029954E+03  0.15456029954E+03  0.00000000000E+00 0.  1.
         21    1    1    2  503  501 -0.40394895234E+02  0.20112665733E+03  0.28168983296E+03  0.34847215361E+03  0.00000000000E+00 0.  1.
         21    1    1    2  504  502  0.22449585913E+02 -0.50250417123E+02 -0.32122325059E+02  0.63725443081E+02  0.00000000000E+00 0.  1.
         21    1    1    2  505  504 -0.91257846235E+01 -0.93965160659E+02 -0.89736742318E+01  0.94832790700E+02  0.00000000000E+00 0.  1.
         21    1    1    2  506  505  0.27071093945E+02 -0.56911079549E+02  0.25182563616E+02  0.67866608970E+02  0.00000000000E+00 0.  1.
<scales pt_clust_3="205.14307" pt_clust_4="37.99409" pt_clust_5="49.62119" pt_clust_6="49.62119"></scales>
<clustering>
<clus scale="   37.994">  4  5 -1 -1</clus>
<clus scale="   49.621">  4  6 -1 -1</clus>
<clus scale="  205.143">  1  3  2 -1</clus>
<clus scale="  205.143">  1  3  2 -1</clus>
</clustering>
</event>
<event>
 6    0  0.2036847E+002  0.2065057E+03  0.7546771E-02  0.1144363E+00
         21   -1    0    0  505  501  0.00000000000E+00  0.00000000000E+00  0.25646211981E+03  0.25646211981E+03  0.00000000000E+00 0. -1.
         21   -1    0    0  503  502 -0.00000000000E+00 -0.00000000000E+00 -0.19597247032E+03  0.19597247032E+03  0.00000000000E+00 0. -1.
         21    1    1    2  503  506 -0.75585993910E+02 -0.31681715425E+01 -0.14824375548E+02  0.77091127224E+02  0.00000000000E+00 0. -1.
         21    1    1    2  504  501  0.13949622003E+02  0.29659482302E+02  0.45039967707E+02  0.55703460714E+02  0.00000000000E+00 0.  1.
         21    1    1    2  505  502  0.15154467356E+03  0.84188011009E+02  0.35467637817E+02  0.17695016986E+03  0.00000000000E+00 0. -1.
         21    1    1    2  506  504 -0.89908301650E+02 -0.11067932177E+03 -0.51935804795E+01  0.14268983233E+03  0.00000000000E+00 0. -1.
<scales pt_clust_3="64.84621" pt_clust_4="32.77616" pt_clust_5="187.32659" pt_clust_6="64.84621"></scales>
<clustering>
<clus scale="   32.776">  1  4  2 -1</clus>
<clus scale="   64.846">  3  6 -1 -1</clus>
<clus scale="  187.327">  1  5  2 -1</clus>
<clus scale="   32.776">  1  3  2 -1</clus>
</clustering>
</event>
<event>
 6    0  0.2036847E+002  0.1476777E+03  0.7546771E-02  0.1203356E+00
         21   -1    0    0  504  501  0.00000000000E+00  0.00000000000E+00  0.21626268466E+02  0.21626268466E+02  0.00000000000E+00 0. -1.
         21   -1    0    0  506  502 -0.00000000000E+00 -0.00000000000E+00 -0.14474183666E+04  0.14474183666E+04  0.00000000000E+00 0. -1.
         21    1    1    2  503  502  0.14594374087E+02 -0.75355773629E+02 -0.74160305959E+03  0.74556460912E+03  0.00000000000E+00 0. -1.
         21    1    1    2  504  503 -0.12887545243E+02 -0.61906105851E+02 -0.38129863717E+03  0.38650628128E+03  0.00000000000E+00 0. -1.
         21    1    1    2  505  501 -0.22749833513E+02  0.51579133148E+02 -0.86056727427E+02  0.10287721923E+03  0.00000000000E+00 0. -1.
         21    1    1    2  506  505  0.21043004670E+02  0.85682746333E+02 -0.21683367397E+03  0.23409652546E+03  0.00000000000E+00 0. -1.
<scales pt_clust_3="143.79249" pt_clust_4="38.85473" pt_clust_5="43.52533" pt_clust_6="43.52533"></scales>
<clustering>
<clus scale="   38.855">  3  4 -1 -1</clus>
<clus scale="   43.525">  5  6 -1 -1</clus>
<clus scale="  143.792">  2  3  1 -1</clus>
<clus scale="  147.678">  1  3  2 -1</clus>
</clustering>
</event>
<event>
 6    0  0.2036847E+002  0.1634801E+03  0.7546771E-02  0.1184823E+00
         21   -1    0    0  505  501  0.00000000000E+00  0.00000000000E+00  0.14133546575E+04  0.14133546575E+04  0.00000000000E+00 0. -1.
         21   -1    0    0  506  502 -0.00000000000E+00 -0.00000000000E+00 -0.39794975184E+02  0.39794975184E+02  0.00000000000E+00 0. -1.
         21    1    1    2  503  501  0.14466774858E+01  0.99997652271E+02  0.31048196581E+03  0.32619116240E+03  0.00000000000E+00 0. -1.
         21    1    1    2  504  502  0.31905802503E+02 -0.77695028186E+02  0.39556290805E+03  0.40438164135E+03  0.00000000000E+00 0. -1.
         21    1    1    2  505  504  0.99899905278E+02 -0.68570196522E+02  0.42589901080E+03  0.44279998907E+03  0.00000000000E+00 0. -1.
         21    1    1    2  506  503 -0.13325238527E+03  0.46267572437E+02  0.24161579761E+03  0.27977683981E+03  0.00000000000E+00 0. -1.
<scales pt_clust_3="100.00812" pt_clust_4="53.63961" pt_clust_5="53.63961" pt_clust_6="150.24967"></scales>
<clustering>
<clus scale="   53.640">  4  5 -1 -1</clus>
<clus scale="  100.008">  1  3  2 -1</clus>
<clus scale="  150.250">  2  6  1 -1</clus>
<clus scale="  100.008">  1  3  2 -1</clus>
</clustering>
</event>
<event>
 6    0  0.2036847E+002  0.2188858E+03  0.7546771E-02  0.1134716E+00
         21   -1    0    0  503  501  0.00000000000E+00  0.00000000000E+00  0.13910124485E+03  0.13910124485E+03  0.00000000000E+00 0.  1.
         21   -1    0    0  504  502 -0.00000000000E+00 -0.00000000000E+00 -0.35702276982E+03  0.35702276982E+03  0.00000000000E+00 0.  1.
         21    1    1    2  503  506  0.30541579119E+02  0.78129906726E+02  0.10062881132E+02  0.84488649869E+02  0.00000000000E+00 0.  1.
         21    1    1    2  504  505 -0.80034908139E+02 -0.68624567470E+02 -0.78878381888E+02  0.13166896715E+03  0.00000000000E+00 0.  1.
         21    1    1    2  505  501 -0.46793642908E+02 -0.93489851138E+02 -0.94831445498E+02  0.14114885879E+03  0.00000000000E+00 0.  1.
         21    1    1    2  506  502  0.96286971928E+02  0.83984511882E+02 -0.54274578715E+02  0.13881753886E+03  0.00000000000E+00 0.  1.
<scales pt_clust_3="60.33444" pt_clust_4="210.36745" pt_clust_5="43.26807" pt_clust_6="60.33444"></scales>
<clustering>
<clus scale="   43.268">  4  5 -1 -1</clus>
<clus scale="   60.334">  3  6 -1 -1</clus>
<clus scale="  210.367">  2  4  1 -1</clus>
<clus scale="  218.886">  1  3  2 -1</clus>
</clustering>
</event>
<event>
 6    0  0.2036847E+002  0.1502948E+03  0.7546771E-02  0.1200111E+00
         21   -1    0    0  503  501  0.00000000000E+00  0.00000000000E+00  0.37387352223E+03  0.37387352223E+03  0.00000000000E+00 0. -1.
         21   -1    0    0  504  502 -0.00000000000E+00 -0.00000000000E+00 -0.22145459166E+03  0.22145459166E+03  0.00000000000E+00 0. -1.
         21    1    1    2  503  502 -0.36858908233E+02  0.19066136540E+02  0.88973139280E+01  0.42441240248E+02  0.00000000000E+00 0.  1.
         21    1    1    2  504  506 -0.46508031201E+02  0.96993804324E+02 -0.17156975005E+03  0.20250178808E+03  0.00000000000E+00 0. -1.
         21    1    1    2  505  501  0.11855072721E+02 -0.45643749311E+02  0.14942741945E+03  0.15669220875E+03  0.00000000000E+00 0. -1.
         21    1    1    2  506  505  0.71511866713E+02 -0.70416191553E+02  0.16566394723E+03  0.19369287681E+03  0.00000000000E+00 0. -1.
<scales pt_clust_3="41.49815" pt_clust_4="139.71882" pt_clust_5="37.96341" pt_clust_6="37.96341"></scales>
<clustering>
<clus scale="   37.963">  5  6 -1 -1</clus>
<clus scale="   41.498">  2  3  1 -1</clus>
<clus scale="  139.719">  2  4  1 -1</clus>
<clus scale="  150.295">  1  3  2 -1</clus>
</clustering>
</event>
<event>
 6    0  0.2036847E+002  0.4684276E+03  0.7546771E-02  0.1022365E+00
         21   -1    0    0  503  501  0.00000000000E+00  0.00000000000E+00  0.56723722026E+03  0.56723722026E+03  0.00000000000E+00 0.  1.
         21   -1    0    0  505  502 -0.00000000000E+00 -0.00000000000E+00 -0.67522922107E+03  0.67522922107E+03  0.00000000000E+00 0.  1.
         21    1    1    2  503  504  0.15992230716E+03 -0.33575037133E+02 -0.26127835178E+02  0.16548441381E+03  0.00000000000E+00 0.  1.
         21    1    1    2  504  506  0.11654342427E+03 -0.19347565579E+03 -0.10083628881E+03  0.24735229181E+03  0.00000000000E+00 0.  1.
         21    1    1    2  505  501 -0.27031302402E+03  0.41273924968E+03  0.23349159254E+03  0.54583985102E+03  0.00000000000E+00 0.  1.
         21    1    1    2  506  502 -0.61527074096E+01 -0.18568855675E+03 -0.21451946936E+03  0.28378988469E+03  0.00000000000E+00 0.  1.
<scales pt_clust_3="138.01601" pt_clust_4="138.01601" pt_clust_5="439.42625" pt_clust_6="185.79046"></scales>
<clustering>
<clus scale="  138.016">  3  4 -1 -1</clus>
<clus scale="  185.790">  2  6  1 -1</clus>
<clus scale="  439.426">  1  5  2 -1</clus>
<clus scale="  439.426">  1  3  2 -1</clus>
</clustering>
</event>
<event>
 6    0  0.2036847E+002  0.8672476E+02  0.7546771E-02  0.1310983E+00
         21   -1    0    0  503  501  0.00000000000E+00  0.00000000000E+00  0.79175364285E+03  0.79175364285E+03  0.00000000000E+00 0. -1.
         21   -1    0    0  506  502 -0.00000000000E+00 -0.00000000000E+00 -0.35295178875E+02  0.35295178875E+02  0.00000000000E+00 0. -1.
         21    1    1    2  503  505 -0.10707828495E+03  0.20479503673E+02  0.37866518743E+03  0.39404630863E+03  0.00000000000E+00 0. -1.
         21    1    1    2  504  501  0.16181275152E+02 -0.45336334892E+02  0.27451285158E+03  0.27870149373E+03  0.00000000000E+00 0. -1.
         21    1    1    2  505  502  0.60582390664E+02 -0.28713365733E+00  0.22856978995E+02  0.64751447807E+02  0.00000000000E+00 0. -1.
         21    1    1    2  506  504  0.30314619130E+02  0.25143964876E+02  0.80423445969E+02  0.89549571547E+02  0.00000000000E+00 0. -1.
<scales pt_clust_3="86.72476" pt_clust_4="47.28541" pt_clust_5="14000.00000" pt_clust_6="39.38521"></scales>
<clustering>
<clus scale="   39.385">  2  6  1 -1</clus>
<clus scale="   47.285">  1  4  2 -1</clus>
<clus scale="   86.725">  1  3  2 -1</clus>
<clus scale="   47.285">  1  3  2 -1</clus>
</clustering>
</event>
<event>
 6    0  0.2036847E+002  0.7659126E+02  0.7546771E-02  0.1339013E+00
         21   -1    0    0  505  501  0.00000000000E+00  0.00000000000E+00  0.97565967349E+02  0.97565967349E+02  0.00000000000E+00 0.  1.
         21   -1    0    0  503  502 -0.00000000000E+00 -0.00000000000E+00 -0.57101882351E+03  0.57101882351E+03  0.00000000000E+00 0.  1.
         21    1    1    2  503  504  0.56839636777E+02  0.89853339946E+01 -0.28333450745E+03  0.28911922047E+03  0.00000000000E+00 0.  1.
         21    1    1    2  504  501  0.61315969754E+02 -0.14419673449E+01 -0.11976792750E+02  0.62491367254E+02  0.00000000000E+00 0.  1.
         21    1    1    2  505  506 -0.11554216114E+03 -0.55824026046E+02  0.41409993338E+01  0.12838793074E+03  0.00000000000E+00 0.  1.
         21    1    1    2  506  502 -0.26134453920E+01  0.48280659397E+02 -0.18228255529E+03  0.18858627239E+03  0.00000000000E+00 0. -1.
<scales pt_clust_3="76.59126" pt_clust_4="61.14846" pt_clust_5="14000.00000" pt_clust_6="48.35134"></scales>
<clustering>
<clus scale="   48.351">  2  6  1 -1</clus>
<clus scale="   61.148">  1  4  2 -1</clus>
<clus scale="   76.591">  2  3  1 -1</clus>
<clus scale="   61.148">  1  3  2 -1</clus>
</clustering>
</event>
<event>
 6    0  0.2036847E+002  0.9948636E+02  0.7546771E-02  0.1281380E+00
         21   -1    0    0  505  501  0.00000000000E+00  0.00000000000E+00  0.46054115619E+03  0.46054115619E+03  0.00000000000E+00 0.  1.
         21   -1    0    0  506  502 -0.00000000000E+00 -0.00000000000E+00 -0.59489602663E+02  0.59489602663E+02  0.00000000000E+00 0.  1.
         21    1    1    2  503  501 -0.42916339870E+02 -0.28623307772E+02  0.84881686334E+02  0.99327773812E+02  0.00000000000E+00 0.  1.
         21    1    1    2  504  502  0.30007863959E+02  0.17239720773E+02  0.12501666499E+03  0.12971833485E+03  0.00000000000E+00 0. -1.
         21    1    1    2  505  504  0.25807045509E+02  0.90322891778E+02  0.18889872246E+03  0.21096671710E+03  0.00000000000E+00 0.  1.
         21    1    1    2  506  503 -0.12898569598E+02 -0.78939304779E+02  0.22544797436E+01  0.80017933088E+02  0.00000000000E+00 0.  1.
<scales pt_clust_3="51.58591" pt_clust_4="32.33731" pt_clust_5="32.33731" pt_clust_6="84.01858"></scales>
<clustering>
<clus scale="   32.337">  4  5 -1 -1</clus>
<clus scale="   51.586">  1  3  2 -1</clus>
<clus scale="   84.019">  2  6  1 -1</clus>
<clus scale="   51.586">  1  3  2 -1</clus>
</clustering>
</event>
<event>
 6    0  0.2036847E+002  0.1523501E+03  0.7546771E-02  0.1197615E+00
         21   -1    0    0  503  501  0.00000000000E+00  0.00000000000E+00  0.20446666644E+03  0.20446666644E+03  0.00000000000E+00 0.  1.
         21   -1    0    0  505  502 -0.00000000000E+00 -0.00000000000E+00 -0.36193449735E+03  0.36193449735E+03  0.00000000000E+00 0.  1.
         21    1    1    2  503  502 -0.54753595002E+02 -0.12542447725E+03 -0.26974176992E+03  0.30247293780E+03  0.00000000000E+00 0.  1.
         21    1    1    2  504  501 -0.34227630202E+02 -0.33531001565E+02  0.24810827549E+02  0.53957723255E+02  0.00000000000E+00 0.  1.
         21    1    1    2  505  506  0.15345591161E+02  0.80049127055E+02  0.24923153679E+02  0.85232115424E+02  0.00000000000E+00 0.  1.
         21    1    1    2  506  504  0.73635634042E+02  0.78906351765E+02  0.62539957785E+02  0.12473838731E+03  0.00000000000E+00 0.  1.
<scales pt_clust_3="141.27013" pt_clust_4="47.91512" pt_clust_5="52.70332" pt_clust_6="52.70332"></scales>
<clustering>
<clus scale="   47.915">  1  4  2 -1</clus>
<clus scale="   52.703">  5  6 -1 -1</clus>
<clus scale="  141.270">  2  3  1 -1</clus>
<clus scale="   47.915">  1  3  2 -1</clus>
</clustering>
</event>
<event>
 6    0  0.2036847E+002  0.1130669E+03  0.7546771E-02  0.1254994E+00
         21   -1    0    0  503  501  0.00000000000E+00  0.00000000000E+00  0.60249984423E+03  0.60249984423E+03  0.00000000000E+00 0. -1.
         21   -1    0    0  504  502 -0.00000000000E+00 -0.00000000000E+00 -0.12979269481E+03  0.12979269481E+03  0.00000000000E+00 0. -1.
         21    1    1    2  503  502  0.36327913360E+02 -0.16949335840E+02 -0.24574706436E+02  0.47020351667E+02  0.00000000000E+00 0. -1.
         21    1    1    2  504  506 -0.17612571134E+02 -0.31359571953E+02  0.26048241885E+02  0.44408741486E+02  0.00000000000E+00 0. -1.
         21    1    1    2  505  501  0.31708822867E+02  0.11170129213E+03  0.52885896193E+03  0.54145584282E+03  0.00000000000E+00 0. -1.
         21    1    1    2  506  505 -0.50424165093E+02 -0.63392384335E+02 -0.57625347964E+02  0.99407603054E+02  0.00000000000E+00 0. -1.
<scales pt_clust_3="40.70212" pt_clust_4="35.96700" pt_clust_5="14000.00000" pt_clust_6="113.06688"></scales>
<clustering>
<clus scale="   35.967">  2  4  1 -1</clus>
<clus scale="   40.702">  2  3  1 -1</clus>
<clus scale="  113.067">  2  6  1 -1</clus>
<clus scale="  113.067">  1  3  2 -1</clus>
</clustering>
</event>
<event>
 6    0  0.2036847E+002  0.2060821E+03  0.7546771E-02  0.1144707E+00
         21   -1    0    0  506  501  0.00000000000E+00  0.00000000000E+00  0.20410982226E+03  0.20410982226E+03  0.00000000000E+00 0.  1.
         21   -1    0    0  505  502 -0.00000000000E+00 -0.00000000000E+00 -0.20112086277E+03  0.20112086277E+03  0.00000000000E+00 0.  1.
         21    1    1    2  503  501 -0.78861772289E+02  0.35042892945E+02 -0.27598755060E+02  0.90602840769E+02  0.00000000000E+00 0.  1.
         21    1    1    2  504  502  0.75835927475E+02 -0.41355872371E+02 -0.32402349017E+02  0.92256752042E+02  0.00000000000E+00 0.  1.
         21    1    1    2  505  503 -0.10114356734E+03  0.41740169461E+01  0.60944719883E+02  0.11815964841E+03  0.00000000000E+00 0.  1.
         21    1    1    2  506  504  0.10416941215E+03  0.21389624796E+01  0.20453436909E+01  0.10421144380E+03  0.00000000000E+00 0.  1.
<scales pt_clust_3="85.27407" pt_clust_4="55.67076" pt_clust_5="85.27407" pt_clust_6="194.10874"></scales>
<clustering>
<clus scale="   55.671">  4  6 -1 -1</clus>
<clus scale="   85.274">  3  5 -1 -1</clus>
<clus scale="  194.109">  2  4  1 -1</clus>
<clus scale="  206.082">  1  3  2 -1</clus>
</clustering>
</event>
<event>
 6    0  0.2036847E+002  0.8822635E+02  0.7546771E-02  0.1307205E+00
         21   -1    0    0  505  501  0.00000000000E+00  0.00000000000E+00  0.42122509565E+02  0.42122509565E+02  0.00000000000E+00 0. -1.
         21   -1    0    0  504  502 -0.00000000000E+00 -0.00000000000E+00 -0.12762296247E+04  0.12762296247E+04  0.00000000000E+00 0. -1.
         21    1    1    2  503  506 -0.50564479231E+02 -0.19196683026E+02 -0.87427278035E+03  0.87594416127E+03  0.00000000000E+00 0. -1.
         21    1    1    2  504  501  0.32245079340E+02  0.76385051120E+02 -0.11821677967E+03  0.14439400324E+03  0.00000000000E+00 0. -1.
         21    1    1    2  505  503  0.41444293302E+02 -0.98074985948E+02 -0.90413345630E+02  0.13968144252E+03  0.00000000000E+00 0. -1.
         21    1    1    2  506  502 -0.23124893412E+02  0.40886617854E+02 -0.15120420945E+03  0.15833252721E+03  0.00000000000E+00 0. -1.
<scales pt_clust_3="69.77653" pt_clust_4="88.22635" pt_clust_5="14000.00000" pt_clust_6="46.97314"></scales>
<clustering>
<clus scale="   46.973">  2  6  1 -1</clus>
<clus scale="   69.777">  2  3  1 -1</clus>
<clus scale="   88.226">  2  4  1 -1</clus>
<clus scale="   88.226">  1  3  2 -1</clus>
</clustering>
</event>
<event>
 6    0  0.2036847E+002  0.1390045E+03  0.7546771E-02  0.1214675E+00
         21   -1    0    0  503  501  0.00000000000E+00  0.00000000000E+00  0.14907484753E+04  0.14907484753E+04  0.00000000000E+00 0.  1.
         21   -1    0    0  504  502 -0.00000000000E+00 -0.00000000000E+00 -0.79438421400E+02  0.79438421400E+02  0.00000000000E+00 0.  1.
         21    1    1    2  503  505  0.90019227271E+02  0.20411926653E+02  0.10330626877E+04  0.10371782030E+04  0.00000000000E+00 0.  1.
         21    1    1    2  504  501 -0.49996024121E+02 -0.83725517944E+02  0.14555529172E+03  0.17520247638E+03  0.00000000000E+00 0. -1.
         21    1    1    2  505  506  0.39766203282E+02 -0.15691156419E+02  0.24142556514E+03  0.24518129377E+03  0.00000000000E+00 0.  1.
         21    1    1    2  506  502 -0.79789406431E+02  0.79004747710E+02 -0.87334906941E+01  0.11262492353E+03  0.00000000000E+00 0.  1.
<scales pt_clust_3="38.85089" pt_clust_4="97.51700" pt_clust_5="38.85089" pt_clust_6="126.74079"></scales>
<clustering>
<clus scale="   38.851">  3  5 -1 -1</clus>
<clus scale="   97.517">  2  4  1 -1</clus>
<clus scale="  126.741">  2  6  1 -1</clus>
<clus scale="  139.005">  1  3  2 -1</clus>
</clustering>
</event>
<event>
 6    0  0.2036847E+002  0.1486109E+03  0.7546771E-02  0.1202190E+00
         21   -1    0    0  506  501  0.00000000000E+00  0.00000000000E+00  0.71626799118E+02  0.71626799118E+02  0.00000000000E+00 0.  1.
         21   -1    0    0  503  502 -0.00000000000E+00 -0.00000000000E+00 -0.32027564477E+04  0.32027564477E+04  0.00000000000E+00 0.  1.
         21    1    1    2  503  504  0.13343293338E+03  0.57983786778E+02 -0.57557454478E+02  0.15645870959E+03  0.00000000000E+00 0.  1.
         21    1    1    2  504  501  0.37555490899E+02 -0.50374247070E+02 -0.59105809671E+02  0.86263992496E+02  0.00000000000E+00 0.  1.
         21    1    1    2  505  502 -0.76656984234E+02  0.73057838564E+02 -0.25070055427E+04  0.25092410271E+04  0.00000000000E+00 0.  1.
         21    1    1    2  506  505 -0.94331440048E+02 -0.80667378271E+02 -0.50746084172E+03  0.52241951761E+03  0.00000000000E+00 0.  1.
<scales pt_clust_3="148.61088" pt_clust_4="62.83295" pt_clust_5="104.70246" pt_clust_6="14000.00000"></scales>
<clustering>
<clus scale="   62.833">  1  4  2 -1</clus>
<clus scale="  104.702">  2  5  1 -1</clus>
<clus scale="  148.611">  1  3  2 -1</clus>
<clus scale="   62.833">  1  3  2 -1</clus>
</clustering>
</event>
<event>
 6    0  0.2036847E+002  0.1038441E+03  0.7546771E-02  0.1272414E+00
         21   -1    0    0  506  501  0.00000000000E+00  0.00000000000E+00  0.71931014955E+02  0.71931014955E+02  0.00000000000E+00 0.  1.
         21   -1    0    0  503  502 -0.00000000000E+00 -0.00000000000E+00 -0.55599428007E+03  0.55599428007E+03  0.00000000000E+00 0. -1.
         21    1    1    2  503  505 -0.49019275330E+02 -0.51254799490E+02 -0.30973339717E+03  0.31774946286E+03  0.00000000000E+00 0. -1.
         21    1    1    2  504  501  0.26172528126E+02  0.39001983475E+02 -0.29392092004E+02  0.55408041076E+02  0.00000000000E+00 0. -1.
         21    1    1    2  505  504  0.92809141896E+02  0.67286233457E+01  0.75204401663E+00  0.93055772319E+02  0.00000000000E+00 0.  1.
         21    1    1    2  506  502 -0.69962394692E+02  0.55241926694E+01 -0.14568981996E+03  0.16171201877E+03  0.00000000000E+00 0. -1.
<scales pt_clust_3="103.84406" pt_clust_4="46.96973" pt_clust_5="14000.00000" pt_clust_6="67.28086"></scales>
<clustering>
<clus scale="   46.970">  1  4  2 -1</clus>
<clus scale="   67.281">  2  6  1 -1</clus>
<clus scale="  103.844">  2  3  1 -1</clus>
<clus scale="   46.970">  1  3  2 -1</clus>
</clustering>
</event>
<event>
 6    0  0.2036847E+002  0.1316158E+03  0.7546771E-02  0.1225078E+00
         21   -1    0    0  504  501  0.00000000000E+00  0.00000000000E+00  0.32577960789E+03  0.32577960789E+03  0.00000000000E+00 0. -1.
         21   -1    0    0  506  502 -0.00000000000E+00 -0.00000000000E+00 -0.54126075713E+03  0.54126075713E+03  0.00000000000E+00 0.  1.
         21    1    1    2  503  502  0.19600384814E+02 -0.10639306933E+03  0.17704813860E+02  0.10962262869E+03  0.00000000000E+00 0. -1.
         21    1    1    2  504  503  0.13404808628E+03 -0.50020509077E+01  0.21123351712E+03  0.25022691442E+03  0.00000000000E+00 0. -1.
         21    1    1    2  505  501 -0.11288344563E+03  0.12123746797E+02 -0.11872599325E+03  0.16427269709E+03  0.00000000000E+00 0.  1.
         21    1    1    2  506  505 -0.40765025464E+02  0.99271373440E+02 -0.32569348696E+03  0.34291812483E+03  0.00000000000E+00 0.  1.
<scales pt_clust_3="85.00460" pt_clust_4="14000.00000" pt_clust_5="131.61576" pt_clust_6="107.31539"></scales>
<clustering>
<clus scale="  107.315">  2  6  1 -1</clus>
<clus scale="   85.005">  2  3  1 -1</clus>
<clus scale="  131.616">  2  5  1 -1</clus>
<clus scale="  131.616">  1  3  2 -1</clus>
</clustering>
</event>
<event>
 6    0  0.2036847E+002  0.9415639E+02  0.7546771E-02  0.1293087E+00
         21   -1    0    0  503  501  0.00000000000E+00  0.00000000000E+00  0.35837825633E+03  0.35837825633E+03  0.00000000000E+00 0.  1.
         21   -1    0    0  504  502 -0.00000000000E+00 -0.00000000000E+00 -0.10690089544E+04  0.10690089544E+04  0.00000000000E+00 0. -1.
         21    1    1    2  503  506  0.97023203773E+02  0.10660951676E+03  0.29629692909E+03  0.32950107940E+03  0.00000000000E+00 0.  1.
         21    1    1    2  504  501 -0.15336364208E+02 -0.57451020550E+02  0.21166512448E+02  0.63117708122E+02  0.00000000000E+00 0. -1.
         21    1    1    2  505  502 -0.10889565148E+02 -0.44378771493E+02 -0.45848979066E+03  0.46076126805E+03  0.00000000000E+00 0. -1.
         21    1    1    2  506  505 -0.70797274417E+02 -0.47797247190E+01 -0.56960434895E+03  0.57400715517E+03  0.00000000000E+00 0.  1.
<scales pt_clust_3="94.15639" pt_clust_4="61.03536" pt_clust_5="45.69527" pt_clust_6="14000.00000"></scales>
<clustering>
<clus scale="   45.695">  2  5  1 -1</clus>
<clus scale="   61.035">  1  4  2 -1</clus>
<clus scale="   94.156">  1  3  2 -1</clus>
<clus scale="   61.035">  1  3  2 -1</clus>
</clustering>
</event>
<event>
 6    0  0.2036847E+002  0.8245145E+02  0.7546771E-02  0.1322235E+00
         21   -1    0    0  506  501  0.00000000000E+00  0.00000000000E+00  0.51728874093E+03  0.51728874093E+03  0.00000000000E+00 0.  1.
         21   -1    0    0  505  502 -0.00000000000E+00 -0.00000000000E+00 -0.84703856767E+03  0.84703856767E+03  0.00000000000E+00 0.  1.
         21    1    1    2  503  502  0.14453845644E+02 -0.51980599856E+02 -0.35303812157E+03  0.35713696489E+03  0.00000000000E+00 0.  1.
         21    1    1    2  504  503 -0.92600395033E+02  0.26269446840E+02 -0.47502590404E+03  0.48467981855E+03  0.00000000000E+00 0.  1.
         21    1    1    2  505  501  0.82113385617E+02  0.64011692570E+02  0.44328212308E+03  0.45534508400E+03  0.00000000000E+00 0.  1.
         21    1    1    2  506  504 -0.39668362276E+01 -0.38300539554E+02  0.55032075786E+02  0.67165441151E+02  0.00000000000E+00 0.  1.
<scales pt_clust_3="54.11376" pt_clust_4="82.45145" pt_clust_5="14000.00000" pt_clust_6="38.50542"></scales>
<clustering>
<clus scale="   38.505">  1  6  2 -1</clus>
<clus scale="   54.114">  2  3  1 -1</clus>
<clus scale="   82.451">  2  4  1 -1</clus>
<clus scale="   38.505">  1  3  2 -1</clus>
</clustering>
</event>
<event>
 6    0  0.2036847E+002  0.1835310E+03  0.7546771E-02  0.1164429E+00
         21   -1    0    0  506  501  0.00000000000E+00  0.00000000000E+00  0.60373702107E+03  0.60373702107E+03  0.00000000000E+00 0. -1.
         21   -1    0    0  504  502 -0.00000000000E+00 -0.00000000000E+00 -0.12267121998E+03  0.12267121998E+03  0.00000000000E+00 0. -1.
         21    1    1    2  503  501 -0.77313141451E+02 -0.29006320524E+01  0.18751526995E+03  0.20284898810E+03  0.00000000000E+00 0. -1.
         21    1    1    2  504  503 -0.71384198127E+02  0.73596243061E+02  0.13582117325E+03  0.17017491542E+03  0.00000000000E+00 0. -1.
         21    1    1    2  505  502  0.65580531024E+02  0.88156388545E+02 -0.67513726445E+01  0.11008149673E+03  0.00000000000E+00 0. -1.
         21    1    1    2  506  505  0.83116808554E+02 -0.15885199955E+03  0.16448073053E+03  0.24330284080E+03  0.00000000000E+00 0. -1.
<scales pt_clust_3="75.18729" pt_clust_4="75.18729" pt_clust_5="109.87427" pt_clust_6="161.83947"></scales>
<clustering>
<clus scale="   75.187">  3  4 -1 -1</clus>
<clus scale="  109.874">  2  5  1 -1</clus>
<clus scale="  161.839">  2  6  1 -1</clus>
<clus scale="  183.531">  1  3  2 -1</clus>
</clustering>
</event>
<event>
 6    0  0.2036847E+002  0.1470640E+03  0.7546771E-02  0.1204128E+00
         21   -1    0    0  506  501  0.00000000000E+00  0.00000000000E+00  0.10846197973E+04  0.10846197973E+04  0.00000000000E+00 0. -1.
         21   -1    0    0  505  502 -0.00000000000E+00 -0.00000000000E+00 -0.86845102545E+02  0.86845102545E+02  0.00000000000E+00 0.  1.
         21    1    1    2  503  501 -0.12475538403E+03  0.20863289855E+02  0.77040244368E+03  0.78071704730E+03  0.00000000000E+00 0. -1.
         21    1    1    2  504  503  0.38444983837E+02 -0.20654040500E+02  0.27329780310E+01  0.43727283704E+02  0.00000000000E+00 0.  1.
         21    1    1    2  505  504  0.97784065749E+02  0.35116415802E+02 -0.14596478441E+02  0.10491874645E+03  0.00000000000E+00 0.  1.
         21    1    1    2  506  502 -0.11473665553E+02 -0.35325665156E+02  0.23923575146E+03  0.24210182238E+03  0.00000000000E+00 0. -1.
<scales pt_clust_3="135.79559" pt_clust_4="36.59014" pt_clust_5="36.59014" pt_clust_6="37.14226"></scales>
<clustering>
<clus scale="   36.590">  4  5 -1 -1</clus>
<clus scale="   37.142">  1  6  2 -1</clus>
<clus scale="  135.796">  1  3  2 -1</clus>
<clus scale="   37.142">  1  3  2 -1</clus>
</clustering>
</event>
<event>
 6    0  0.2036847E+002  0.1539252E+03  0.7546771E-02  0.1195731E+00
         21   -1    0    0  504  501  0.00000000000E+00  0.00000000000E+00  0.58952473940E+02  0.58952473940E+02  0.00000000000E+00 0. -1.
         21   -1    0    0  505  502 -0.00000000000E+00 -0.00000000000E+00 -0.11766516245E+04  0.11766516245E+04  0.00000000000E+00 0. -1.
         21    1    1    2  503  501  0.13587217742E+02 -0.77088772822E+02 -0.44913491174E+02  0.90246956018E+02  0.00000000000E+00 0. -1.
         21    1    1    2  504  502 -0.14640971978E+01  0.40361028560E+02 -0.11955520326E+03  0.12619272100E+03  0.00000000000E+00 0. -1.
         21    1    1    2  505  506 -0.62962263347E+02  0.96336790904E+02 -0.93049856239E+03  0.93758871500E+03  0.00000000000E+00 0. -1.
         21    1    1    2  506  503  0.50839142803E+02 -0.59609046642E+02 -0.22731893713E+02  0.81575706397E+02  0.00000000000E+00 0. -1.
<scales pt_clust_3="45.61287" pt_clust_4="40.38757" pt_clust_5="146.91116" pt_clust_6="45.61287"></scales>
<clustering>
<clus scale="   40.388">  2  4  1 -1</clus>
<clus scale="   45.613">  3  6 -1 -1</clus>
<clus scale="  146.911">  2  5  1 -1</clus>
<clus scale="  153.925">  1  3  2 -1</clus>
</clustering>
</event>
<event>
 6    0  0.2036847E+002  0.1809645E+03  0.7546771E-02  0.1166873E+00
         21   -1    0    0  505  501  0.00000000000E+00  0.00000000000E+00  0.87022517720E+02  0.87022517720E+02  0.00000000000E+00 0. -1.
         21   -1    0    0  503  502 -0.00000000000E+00 -0.00000000000E+00 -0.14796772120E+04  0.14796772120E+04  0.00000000000E+00 0. -1.
         21    1    1    2  503  506  0.33523798625E+02 -0.11753994305E+03 -0.10684538387E+04  0.10754222839E+04  0.00000000000E+00 0. -1.
         21    1    1    2  504  501  0.92017758902E+02  0.11707210047E+03 -0.43524425451E+02  0.15513710153E+03  0.00000000000E+00 0. -1.
         21    1    1    2  505  502 -0.11394308964E+03 -0.38046860041E+02 -0.26844672924E+03  0.29409902699E+03  0.00000000000E+00 0. -1.
         21    1    1    2  506  504 -0.11598467892E+02  0.38514702622E+02 -0.12229700879E+02  0.42041317285E+02  0.00000000000E+00 0. -1.
<scales pt_clust_3="166.28853" pt_clust_4="37.10297" pt_clust_5="120.12740" pt_clust_6="37.10297"></scales>
<clustering>
<clus scale="   37.103">  4  6 -1 -1</clus>
<clus scale="  120.127">  2  5  1 -1</clus>
<clus scale="  166.289">  2  3  1 -1</clus>
<clus scale="  180.965">  1  3  2 -1</clus>
</clustering>
</event>
<event>
 6    0  0.2036847E+002  0.1785404E+03  0.7546771E-02  0.1169223E+00
         21   -1    0    0  505  501  0.00000000000E+00  0.00000000000E+00  0.19203383639E+03  0.19203383639E+03  0.00000000000E+00 0.  1.
         21   -1    0    0  504  502 -0.00000000000E+00 -0.00000000000E+00 -0.19928813339E+03  0.19928813339E+03  0.00000000000E+00 0.  1.
         21    1    1    2  503  502 -0.55029392215E+02  0.34175892074E+02 -0.57293237747E+02  0.86479712639E+02  0.00000000000E+00 0.  1.
         21    1    1    2  504  506  0.20469877547E+02 -0.39461608283E+02 -0.41134675021E+01  0.44644764866E+02  0.00000000000E+00 0.  1.
         21    1    1    2  505  503 -0.72940484314E+02  0.67086438883E+02 -0.37547833749E+02  0.10597520631E+03  0.00000000000E+00 0.  1.
         21    1    1    2  506  501  0.10749999898E+03 -0.61800722674E+02  0.91700242002E+02  0.15422228596E+03  0.00000000000E+00 0.  1.
<scales pt_clust_3="30.39893" pt_clust_4="43.36894" pt_clust_5="167.46363" pt_clust_6="43.36894"></scales>
<clustering>
<clus scale="   30.399">  3  5 -1 -1</clus>
<clus scale="   43.369">  4  6 -1 -1</clus>
<clus scale="  167.464">  2  3  1 -1</clus>
<clus scale="  178.540">  1  3  2 -1</clus>
</clustering>
</event>
<event>
 6    0  0.2036847E+002  0.1075090E+03  0.7546771E-02  0.1265254E+00
         21   -1    0    0  502  501  0.00000000000E+00  0.00000000000E+00  0.81376537306E+03  0.81376537306E+03  0.00000000000E+00 0. -1.
         21   -1    0    0  504  502 -0.00000000000E+00 -0.00000000000E+00 -0.50974824794E+02  0.50974824794E+02  0.00000000000E+00 0. -1.
         21    1    1    2  503  505 -0.42606275046E+02  0.19340065744E+02  0.30573734810E+03  0.30929703982E+03  0.00000000000E+00 0. -1.
         21    1    1    2  504  506 -0.11774851779E+02  0.29539342375E+02  0.50931394708E+01  0.32204967816E+02  0.00000000000E+00 0. -1.
         21    1    1    2  505  501 -0.24215774183E+02  0.52338955944E+02  0.36224010224E+03  0.36680193797E+03  0.00000000000E+00 0. -1.
         21    1    1    2  506  503  0.78596901008E+02 -0.10121836406E+03  0.89719958449E+02  0.15643625224E+03  0.00000000000E+00 0. -1.
<scales pt_clust_3="32.47920" pt_clust_4="31.79968" pt_clust_5="32.47920" pt_clust_6="101.21911"></scales>
<clustering>
<clus scale="   31.800">  2  4  1 -1</clus>
<clus scale="   32.479">  3  5 -1 -1</clus>
<clus scale="  101.219">  2  6  1 -1</clus>
<clus scale="  107.509">  1  3  2 -1</clus>
</clustering>
</event>
<event>
 6    0  0.2036847E+002  0.1339878E+03  0.7546771E-02  0.1221656E+00
         21   -1    0    0  504  501  0.00000000000E+00  0.00000000000E+00  0.35512101858E+02  0.35512101858E+02  0.00000000000E+00 0.  1.
         21   -1    0    0  506  502 -0.00000000000E+00 -0.00000000000E+00 -0.49078832229E+03  0.49078832229E+03  0.00000000000E+00 0.  1.
         21    1    1    2  503  501 -0.22502520159E+02 -0.65876364525E+02 -0.12761331188E+03  0.14536580129E+03  0.00000000000E+00 0.  1.
         21    1    1    2  504  505  0.50565629129E+02  0.50252595440E+02 -0.16199778309E+03  0.17699007861E+03  0.00000000000E+00 0.  1.
         21    1    1    2  505  502  0.16845748823E+02  0.55649880410E+02 -0.70823948746E+02  0.91633619152E+02  0.00000000000E+00 0.  1.
         21    1    1    2  506  503 -0.44908857793E+02 -0.40026111325E+02 -0.94841176718E+02  0.11231092510E+03  0.00000000000E+00 0.  1.
<scales pt_clust_3="130.04344" pt_clust_4="42.29293" pt_clust_5="42.29293" pt_clust_6="31.54717"></scales>
<clustering>
<clus scale="   31.547">  3  6 -1 -1</clus>
<clus scale="   42.293">  4  5 -1 -1</clus>
<clus scale="  130.043">  1  3  2 -1</clus>
<clus scale="  130.043">  1  3  2 -1</clus>
</clustering>
</event>
<event>
 6    0  0.2036847E+002  0.1236238E+03  0.7546771E-02  0.1237236E+00
         21   -1    0    0  503  501  0.00000000000E+00  0.00000000000E+00  0.48412994225E+03  0.48412994225E+03  0.00000000000E+00 0.  1.
         21   -1    0    0  505  502 -0.00000000000E+00 -0.00000000000E+00 -0.11742584194E+03  0.11742584194E+03  0.00000000000E+00 0. -1.
         21    1    1    2  503  504 -0.28968843411E+02 -0.86278108995E+01  0.33992964435E+02  0.45487961491E+02  0.00000000000E+00 0.  1.
         21    1    1    2  504  502  0.71379210080E+02  0.20645863932E+02 -0.59904884597E+02  0.95445474108E+02  0.00000000000E+00 0. -1.
         21    1    1    2  505  506  0.66291974275E+02 -0.24379159465E+01  0.15620328330E+02  0.68151037737E+02  0.00000000000E+00 0. -1.
         21    1    1    2  506  501 -0.10870234094E+03 -0.95801370862E+01  0.37699569214E+03  0.39247131086E+03  0.00000000000E+00 0.  1.
<scales pt_clust_3="30.22636" pt_clust_4="14000.00000" pt_clust_5="63.64462" pt_clust_6="123.62378"></scales>
<clustering>
<clus scale="   30.226">  1  3  2 -1</clus>
<clus scale="   63.645">  2  5  1 -1</clus>
<clus scale="  123.624">  1  6  2 -1</clus>
<clus scale="   30.226">  1  3  2 -1</clus>
</clustering>
</event>
<event>
 6    0  0.2036847E+002  0.2462244E+03  0.7546771E-02  0.1115714E+00
         21   -1    0    0  505  501  0.00000000000E+00  0.00000000000E+00  0.95673797558E+02  0.95673797558E+02  0.00000000000E+00 0.  1.
         21   -1    0    0  504  502 -0.00000000000E+00 -0.00000000000E+00 -0.26689476149E+04  0.26689476149E+04  0.00000000000E+00 0.  1.
         21    1    1    2  503  501 -0.87097825782E+02 -0.39513502769E+02 -0.16101030070E+03  0.18727430440E+03  0.00000000000E+00 0. -1.
         21    1    1    2  504  506  0.82285846577E+02  0.55448616770E+02 -0.11278390398E+04  0.11321953937E+04  0.00000000000E+00 0.  1.
         21    1    1    2  505  502 -0.14674700798E+03 -0.13150513177E+02  0.44418595734E+01  0.14740200292E+03  0.00000000000E+00 0.  1.
         21    1    1    2  506  503  0.15155898718E+03 -0.27846008238E+01 -0.12888663364E+04  0.12977497115E+04  0.00000000000E+00 0.  1.
<scales pt_clust_3="95.64177" pt_clust_4="66.28110" pt_clust_5="232.19609" pt_clust_6="66.28110"></scales>
<clustering>
<clus scale="   66.281">  4  6 -1 -1</clus>
<clus scale="   95.642">  1  3  2 -1</clus>
<clus scale="  232.196">  1  5  2 -1</clus>
<clus scale="   95.642">  1  3  2 -1</clus>
</clustering>
</event>
<event>
 6    0  0.2036847E+002  0.1302636E+03  0.7546771E-02  0.1227065E+00
         21   -1    0    0  503  501  0.00000000000E+00  0.00000000000E+00  0.14825485438E+04  0.14825485438E+04  0.00000000000E+00 0.  1.
         21   -1    0    0  505  502 -0.00000000000E+00 -0.00000000000E+00 -0.10422119672E+03  0.10422119672E+03  0.00000000000E+00 0.  1.
         21    1    1    2  503  502  0.17537093677E+02 -0.42645427729E+02  0.99258525784E+01  0.47166775491E+02  0.00000000000E+00 0. -1.
         21    1    1    2  504  501 -0.31788330823E+02 -0.67029139587E+01  0.82989031754E+03  0.83052595755E+03  0.00000000000E+00 0.  1.
         21    1    1    2  505  506  0.86388158673E+02  0.12604186339E+03 -0.75172157201E+01  0.15299011019E+03  0.00000000000E+00 0.  1.
         21    1    1    2  506  504 -0.72136921527E+02 -0.76693521700E+02  0.54602839271E+03  0.55608689731E+03  0.00000000000E+00 0.  1.
<scales pt_clust_3="45.87407" pt_clust_4="32.48734" pt_clust_5="130.26364" pt_clust_6="14000.00000"></scales>
<clustering>
<clus scale="   32.487">  1  4  2 -1</clus>
<clus scale="   45.874">  2  3  1 -1</clus>
<clus scale="  130.264">  2  5  1 -1</clus>
<clus scale="   32.487">  1  3  2 -1</clus>
</clustering>
</event>
<event>
 6    0  0.2036847E+002  0.1039955E+03  0.7546771E-02  0.1272111E+00
         21   -1    0    0  505  501  0.00000000000E+00  0.00000000000E+00  0.32671224180E+03  0.32671224180E+03  0.00000000000E+00 0. -1.
         21   -1    0    0  503  502 -0.00000000000E+00 -0.00000000000E+00 -0.24531629299E+03  0.24531629299E+03  0.00000000000E+00 0. -1.
         21    1    1    2  503  506  0.80361491629E+02 -0.12410062712E+02 -0.26415836608E+02  0.85497224616E+02  0.00000000000E+00 0. -1.
         21    1    1    2  504  502  0.21417439290E+02 -0.46705109963E+02 -0.16564077721E+03  0.17342704828E+03  0.00000000000E+00 0. -1.
         21    1    1    2  505  504 -0.29532196603E+02 -0.12467890343E+02  0.15061886766E+02  0.35418347770E+02  0.00000000000E+00 0. -1.
         21    1    1    2  506  501 -0.72246734316E+02  0.71583063019E+02  0.25839067586E+03  0.27768591412E+03  0.00000000000E+00 0. -1.
<scales pt_clust_3="14000.00000" pt_clust_4="51.37070" pt_clust_5="32.05618" pt_clust_6="103.99552"></scales>
<clustering>
<clus scale="   32.056">  1  5  2 -1</clus>
<clus scale="   51.371">  2  4  1 -1</clus>
<clus scale="  103.996">  1  6  2 -1</clus>
<clus scale="   32.056">  1  3  2 -1</clus>
</clustering>
</event>
<event>
 6    0  0.2036847E+002  0.1376380E+03  0.7546771E-02  0.1216543E+00
         21   -1    0    0  504  501  0.00000000000E+00  0.00000000000E+00  0.10102129903E+03  0.10102129903E+03  0.00000000000E+00 0.  1.
         21   -1    0    0  506  502 -0.00000000000E+00 -0.00000000000E+00 -0.49182835964E+03  0.49182835964E+03  0.00000000000E+00 0.  1.
         21    1    1    2  503  501 -0.19110456118E+02 -0.25352187768E+02 -0.43727891917E+01  0.32047843032E+02  0.00000000000E+00 0.  1.
         21    1    1    2  504  505 -0.39505329593E+02  0.42913241967E+01  0.32997840691E+02  0.51652144388E+02  0.00000000000E+00 0.  1.
         21    1    1    2  505  502  0.24686965746E+02 -0.12441620774E+03 -0.12041834285E+03  0.17489830280E+03  0.00000000000E+00 0.  1.
         21    1    1    2  506  503  0.33928819966E+02  0.14547707131E+03 -0.29901376927E+03  0.33425136845E+03  0.00000000000E+00 0.  1.
<scales pt_clust_3="31.74812" pt_clust_4="49.43713" pt_clust_5="137.63800" pt_clust_6="14000.00000"></scales>
<clustering>
<clus scale="   31.748">  1  3  2 -1</clus>
<clus scale="   49.437">  1  4  2 -1</clus>
<clus scale="  137.638">  1  5  2 -1</clus>
<clus scale="   31.748">  1  3  2 -1</clus>
</clustering>
</event>
<event>
 6    0  0.2036847E+002  0.7714155E+02  0.7546771E-02  0.1337365E+00
         21   -1    0    0  503  501  0.00000000000E+00  0.00000000000E+00  0.31984657098E+03  0.31984657098E+03  0.00000000000E+00 0. -1.
         21   -1    0    0  501  502 -0.00000000000E+00 -0.00000000000E+00 -0.64657087472E+03  0.64657087472E+03  0.00000000000E+00 0. -1.
         21    1    1    2  503  506  0.13493656626E+01 -0.76372381044E+02  0.28382673381E+03  0.29392546028E+03  0.00000000000E+00 0. -1.
         21    1    1    2  504  502  0.15927119884E+02  0.35539675583E+02 -0.25238051697E+03  0.25536770946E+03  0.00000000000E+00 0.  1.
         21    1    1    2  505  504 -0.61507338463E+02 -0.54327307370E+02 -0.26283108890E+03  0.27534485705E+03  0.00000000000E+00 0. -1.
         21    1    1    2  506  505  0.44230852917E+02  0.95160012831E+02 -0.95339431687E+02  0.14177941891E+03  0.00000000000E+00 0. -1.
<scales pt_clust_3="14000.00000" pt_clust_4="38.94537" pt_clust_5="58.80626" pt_clust_6="77.14155"></scales>
<clustering>
<clus scale="   38.945">  2  4  1 -1</clus>
<clus scale="   58.806">  2  5  1 -1</clus>
<clus scale="   77.142">  2  6  1 -1</clus>
<clus scale="   77.142">  1  3  2 -1</clus>
</clustering>
</event>
<event>
 6    0  0.2036847E+002  0.1908733E+03  0.7546771E-02  0.1157676E+00
         21   -1    0    0  504  501  0.00000000000E+00  0.00000000000E+00  0.12849264797E+03  0.12849264797E+03  0.00000000000E+00 0. -1.
         21   -1    0    0  501  502 -0.00000000000E+00 -0.00000000000E+00 -0.30297239810E+03  0.30297239810E+03  0.00000000000E+00 0. -1.
         21    1    1    2  503  502  0.91892633555E+02  0.69297607128E+02 -0.10889854394E+03  0.15844654407E+03  0.00000000000E+00 0. -1.
         21    1    1    2  504  506 -0.66427593464E+02 -0.72287698129E+02 -0.10183831589E+02  0.98700794830E+02  0.00000000000E+00 0. -1.
         21    1    1    2  505  503  0.66999105330E+02  0.95227698372E+01 -0.44481604417E+02  0.80982568445E+02  0.00000000000E+00 0. -1.
         21    1    1    2  506  505 -0.92464145421E+02 -0.65326788356E+01 -0.10915770185E+02  0.93335138720E+02  0.00000000000E+00 0. -1.
<scales pt_clust_3="183.85002" pt_clust_4="68.52585" pt_clust_5="37.10541" pt_clust_6="68.52585"></scales>
<clustering>
<clus scale="   37.105">  3  5 -1 -1</clus>
<clus scale="   68.526">  4  6 -1 -1</clus>
<clus scale="  183.850">  2  3  1 -1</clus>
<clus scale="  190.873">  1  3  2 -1</clus>
</clustering>
</event>
<event>
 6    0  0.2036847E+002  0.6216730E+02  0.7546771E-02  0.1388955E+00
         21   -1    0    0  506  501  0.00000000000E+00  0.00000000000E+00  0.21242345465E+04  0.21242345465E+04  0.00000000000E+00 0. -1.
         21   -1    0    0  504  502 -0.00000000000E+00 -0.00000000000E+00 -0.24358501611E+03  0.24358501611E+03  0.00000000000E+00 0.  1.
         21    1    1    2  503  502  0.49668270256E+02 -0.34172997703E+02 -0.31997140820E+02  0.68253555679E+02  0.00000000000E+00 0.  1.
         21    1    1    2  504  505 -0.10012661116E+03 -0.10950243968E+01 -0.17756295164E+03  0.20385077664E+03  0.00000000000E+00 0.  1.
         21    1    1    2  505  501 -0.42588504701E+02  0.31554554509E+02  0.50532124644E+03  0.50809352756E+03  0.00000000000E+00 0. -1.
         21    1    1    2  506  503  0.93046845609E+02  0.37134675908E+01  0.15848883764E+04  0.15876217028E+04  0.00000000000E+00 0. -1.
<scales pt_clust_3="59.69506" pt_clust_4="62.16730" pt_clust_5="53.00444" pt_clust_6="14000.00000"></scales>
<clustering>
<clus scale="   53.004">  1  5  2 -1</clus>
<clus scale="   59.695">  2  3  1 -1</clus>
<clus scale="   62.167">  2  4  1 -1</clus>
<clus scale="   53.004">  1  3  2 -1</clus>
</clustering>
</event>
<event>
 6    0  0.2036847E+002  0.1567006E+03  0.7546771E-02  0.1192473E+00
         21   -1    0    0  503  501  0.00000000000E+00  0.00000000000E+00  0.10473454359E+04  0.10473454359E+04  0.00000000000E+00 0. -1.
         21   -1    0    0  504  502 -0.00000000000E+00 -0.00000000000E+00 -0.44709065536E+02  0.44709065536E+02  0.00000000000E+00 0. -1.
         21    1    1    2  503  505 -0.72236281883E+02  0.82896484554E+01  0.39139627971E+03  0.39809276113E+03  0.00000000000E+00 0. -1.
         21    1    1    2  504  506  0.96156951258E+02  0.28043004144E+02  0.60616169930E+02  0.11707642552E+03  0.00000000000E+00 0. -1.
         21    1    1    2  505  502 -0.76860962803E+02 -0.32654377428E+02  0.48666148107E+03  0.49377455698E+03  0.00000000000E+00 0. -1.
         21    1    1    2  506  501  0.52940293429E+02 -0.36782751717E+01  0.63962439683E+02  0.83110757828E+02  0.00000000000E+00 0. -1.
<scales pt_clust_3="37.53637" pt_clust_4="30.28782" pt_clust_5="156.33900" pt_clust_6="30.28782"></scales>
<clustering>
<clus scale="   30.288">  4  6 -1 -1</clus>
<clus scale="   37.536">  3  5 -1 -1</clus>
<clus scale="  156.339">  1  3  2 -1</clus>
<clus scale="  156.339">  1  3  2 -1</clus>
</clustering>
</event>
<event>
 6    0  0.2036847E+002  0.1520857E+03  0.7546771E-02  0.1197933E+00
         21   -1    0    0  502  501  0.00000000000E+00  0.00000000000E+00  0.30835351627E+03  0.30835351627E+03  0.00000000000E+00 0.  1.
         21   -1    0    0  504  502 -0.00000000000E+00 -0.00000000000E+00 -0.17061056370E+03  0.17061056370E+03  0.00000000000E+00 0.  1.
         21    1    1    2  503  506  0.24108011020E+02  0.96366465327E+02  0.12729500814E+03  0.16146736801E+03  0.00000000000E+00 0.  1.
         21    1    1    2  504  505 -0.16664177478E+02 -0.89081174263E+02 -0.10447116062E+03  0.13830174916E+03  0.00000000000E+00 0.  1.
         21    1    1    2  505  503 -0.92418099129E+01 -0.48931389038E+02 -0.70557171600E+01  0.50293886590E+02  0.00000000000E+00 0.  1.
         21    1    1    2  506  501  0.17979763715E+01  0.41646097974E+02  0.12197482221E+03  0.12890107621E+03  0.00000000000E+00 0.  1.
<scales pt_clust_3="148.92409" pt_clust_4="43.29557" pt_clust_5="43.29557" pt_clust_6="32.12810"></scales>
<clustering>
<clus scale="   32.128">  3  6 -1 -1</clus>
<clus scale="   43.296">  4  5 -1 -1</clus>
<clus scale="  148.924">  1  3  2 -1</clus>
<clus scale="  148.924">  1  3  2 -1</clus>
</clustering>
</event>
<event>
 6    0  0.2036847E+002  0.2081464E+03  0.7546771E-02  0.1143042E+00
         21   -1    0    0  503  501  0.00000000000E+00  0.00000000000E+00  0.70246870523E+03  0.70246870523E+03  0.00000000000E+00 0.  1.
         21   -1    0    0  505  502 -0.00000000000E+00 -0.00000000000E+00 -0.10285287212E+03  0.10285287212E+03  0.00000000000E+00 0. -1.
         21    1    1    2  503  502  0.26179831512E+02  0.28441714147E+02  0.20934084141E+02  0.43960784347E+02  0.00000000000E+00 0.  1.
         21    1    1    2  504  501 -0.23144448071E+02 -0.21246132823E+02  0.35469439722E+02  0.47382958863E+02  0.00000000000E+00 0. -1.
         21    1    1    2  505  506 -0.10810262383E+03  0.17076137678E+03  0.10116468535E+03  0.22600866939E+03  0.00000000000E+00 0. -1.
         21    1    1    2  506  504  0.10506724039E+03 -0.17795695810E+03  0.44204762390E+03  0.48796916474E+03  0.00000000000E+00 0.  1.
<scales pt_clust_3="37.11991" pt_clust_4="31.41757" pt_clust_5="208.14641" pt_clust_6="14000.00000"></scales>
<clustering>
<clus scale="   31.418">  1  4  2 -1</clus>
<clus scale="   37.120">  2  3  1 -1</clus>
<clus scale="  208.146">  2  5  1 -1</clus>
<clus scale="   31.418">  1  3  2 -1</clus>
</clustering>
</event>
<event>
 6    0  0.2036847E+002  0.1149005E+03  0.7546771E-02  0.1251755E+00
         21   -1    0    0  505  501  0.00000000000E+00  0.00000000000E+00  0.12419715693E+03  0.12419715693E+03  0.00000000000E+00 0.  1.
         21   -1    0    0  506  502 -0.00000000000E+00 -0.00000000000E+00 -0.67761342742E+03  0.67761342742E+03  0.00000000000E+00 0.  1.
         21    1    1    2  503  501  0.36242766981E+02  0.14718550299E+02  0.98384880427E+01  0.40335712815E+02  0.00000000000E+00 0.  1.
         21    1    1    2  504  503 -0.32814417187E+02 -0.14121777732E+03 -0.49937700671E+03  0.51999677061E+03  0.00000000000E+00 0.  1.
         21    1    1    2  505  502 -0.75242214539E+01  0.96327455331E+02  0.60119030787E+02  0.11379758531E+03  0.00000000000E+00 0.  1.
         21    1    1    2  506  504  0.40958716591E+01  0.30171771693E+02 -0.12399678261E+03  0.12768051562E+03  0.00000000000E+00 0.  1.
<scales pt_clust_3="39.54278" pt_clust_4="114.90053" pt_clust_5="14000.00000" pt_clust_6="30.44851"></scales>
<clustering>
<clus scale="   30.449">  2  6  1 -1</clus>
<clus scale="   39.543">  1  3  2 -1</clus>
<clus scale="  114.901">  2  4  1 -1</clus>
<clus scale="   39.543">  1  3  2 -1</clus>
</clustering>
</event>
<event>
 6    0  0.2036847E+002  0.1067953E+03  0.7546771E-02  0.1266622E+00
         21   -1    0    0  503  501  0.00000000000E+00  0.00000000000E+00  0.44368038593E+03  0.44368038593E+03  0.00000000000E+00 0.  1.
         21   -1    0    0  505  502 -0.00000000000E+00 -0.00000000000E+00 -0.37401405455E+03  0.37401405455E+03  0.00000000000E+00 0. -1.
         21    1    1    2  503  504  0.11887959726E+02 -0.35750033863E+02 -0.72038752795E+02  0.81295574368E+02  0.00000000000E+00 0. -1.
         21    1    1    2  504  502  0.43132342719E+02 -0.43772709299E+02 -0.24945013387E+03  0.25690819052E+03  0.00000000000E+00 0. -1.
         21    1    1    2  505  506 -0.11520110723E+03  0.69907394177E+02  0.68563989215E+02  0.15119311983E+03  0.00000000000E+00 0.  1.
         21    1    1    2  506  501  0.60180804786E+02  0.96153489850E+01  0.32259122882E+03  0.32829755576E+03  0.00000000000E+00 0.  1.
<scales pt_clust_3="32.05068" pt_clust_4="32.05068" pt_clust_5="98.63902" pt_clust_6="60.94411"></scales>
<clustering>
<clus scale="   32.051">  3  4 -1 -1</clus>
<clus scale="   60.944">  1  6  2 -1</clus>
<clus scale="   98.639">  1  5  2 -1</clus>
<clus scale="   60.944">  1  3  2 -1</clus>
</clustering>
</event>
<event>
 6    0  0.2036847E+002  0.1385612E+03  0.7546771E-02  0.1215278E+00
         21   -1    0    0  506  501  0.00000000000E+00  0.00000000000E+00  0.24265503467E+03  0.24265503467E+03  0.00000000000E+00 0. -1.
         21   -1    0    0  504  502 -0.00000000000E+00 -0.00000000000E+00 -0.12530396654E+03  0.12530396654E+03  0.00000000000E+00 0. -1.
         21    1    1    2  503  501 -0.85656766479E+01 -0.53001982003E+02  0.43977146353E+02  0.69401515215E+02  0.00000000000E+00 0. -1.
         21    1    1    2  504  505 -0.20169193933E+01 -0.30035944443E+02 -0.42813629625E+02  0.52337680538E+02  0.00000000000E+00 0. -1.
         21    1    1    2  505  503 -0.17882857439E+01 -0.59217383459E+02 -0.42801990425E+01  0.59398792694E+02  0.00000000000E+00 0. -1.
         21    1    1    2  506  502  0.12370881785E+02  0.14225530990E+03  0.12046775044E+03  0.18682101276E+03  0.00000000000E+00 0. -1.
<scales pt_clust_3="43.51884" pt_clust_4="30.10359" pt_clust_5="43.51884" pt_clust_6="129.94588"></scales>
<clustering>
<clus scale="   30.104">  2  4  1 -1</clus>
<clus scale="   43.519">  3  5 -1 -1</clus>
<clus scale="  129.946">  1  6  2 -1</clus>
<clus scale="  129.946">  1  3  2 -1</clus>
</clustering>
</event>
<event>
 6    0  0.2036847E+002  0.7864201E+02  0.7546771E-02  0.1332950E+00
         21   -1    0    0  506  501  0.00000000000E+00  0.00000000000E+00  0.53829165075E+03  0.53829165075E+03  0.00000000000E+00 0. -1.
         21   -1    0    0  504  502 -0.00000000000E+00 -0.00000000000E+00 -0.28971990912E+03  0.28971990912E+03  0.00000000000E+00 0.  1.
         21    1    1    2  503  502  0.28734983893E+02  0.75432303207E+02 -0.26041625259E+03  0.27263960879E+03  0.00000000000E+00 0.  1.
         21    1    1    2  504  505  0.70387277573E+01 -0.62551954649E+02  0.50268401720E+02  0.80555589070E+02  0.00000000000E+00 0. -1.
         21    1    1    2  505  501 -0.28051213952E+02 -0.61878745035E+02  0.32888135619E+03  0.33582554421E+03  0.00000000000E+00 0. -1.
         21    1    1    2  506  503 -0.77224976984E+01  0.48998396477E+02  0.12983823631E+03  0.13899081781E+03  0.00000000000E+00 0. -1.
<scales pt_clust_3="78.64201" pt_clust_4="14000.00000" pt_clust_5="40.60186" pt_clust_6="49.60322"></scales>
<clustering>
<clus scale="   49.603">  1  6  2 -1</clus>
<clus scale="   40.602">  1  5  2 -1</clus>
<clus scale="   78.642">  2  3  1 -1</clus>
<clus scale="   49.603">  1  3  2 -1</clus>
</clustering>
</event>
<event>
 6    0  0.2036847E+002  0.1426593E+03  0.7546771E-02  0.1209795E+00
         21   -1    0    0  503  501  0.00000000000E+00  0.00000000000E+00  0.24085895256E+03  0.24085895256E+03  0.00000000000E+00 0.  1.
         21   -1    0    0  505  502 -0.00000000000E+00 -0.00000000000E+00 -0.22059012773E+03  0.22059012773E+03  0.00000000000E+00 0.  1.
         21    1    1    2  503  506 -0.18957963966E+02 -0.12476474607E+03 -0.36260146289E+02  0.13130287304E+03  0.00000000000E+00 0.  1.
         21    1    1    2  504  501 -0.24617395517E+02  0.12224387324E+03  0.11289220512E+03  0.16820889003E+03  0.00000000000E+00 0.  1.
         21    1    1    2  505  504  0.49026013154E+02  0.61296467029E+02  0.25610433015E+01  0.78532577818E+02  0.00000000000E+00 0.  1.
         21    1    1    2  506  502 -0.54506536704E+01 -0.58775594201E+02 -0.58924277299E+02  0.83404739400E+02  0.00000000000E+00 0.  1.
<scales pt_clust_3="35.90698" pt_clust_4="132.64697" pt_clust_5="78.49081" pt_clust_6="35.90698"></scales>
<clustering>
<clus scale="   35.907">  3  6 -1 -1</clus>
<clus scale="   78.491">  2  5  1 -1</clus>
<clus scale="  132.647">  1  4  2 -1</clus>
<clus scale="  132.647">  1  3  2 -1</clus>
</clustering>
</event>
<event>
 6    0  0.2036847E+002  0.1243215E+03  0.7546771E-02  0.1236133E+00
         21   -1    0    0  506  501  0.00000000000E+00  0.00000000000E+00  0.59460486695E+03  0.59460486695E+03  0.00000000000E+00 0. -1.
         21   -1    0    0  503  502 -0.00000000000E+00 -0.00000000000E+00 -0.50656429947E+03  0.50656429947E+03  0.00000000000E+00 0. -1.
         21    1    1    2  503  505 -0.70399742680E+02  0.12014918449E+03 -0.29768568168E+03  0.32864679426E+03  0.00000000000E+00 0. -1.
         21    1    1    2  504  502 -0.24648033337E+02 -0.38028163145E+02 -0.17689840971E+03  0.18261082689E+03  0.00000000000E+00 0. -1.
         21    1    1    2  505  501  0.60459159129E+02 -0.22481046117E+01  0.84483712550E+02  0.10391275948E+03  0.00000000000E+00 0. -1.
         21    1    1    2  506  504  0.34588616887E+02 -0.79872916729E+02  0.47814094631E+03  0.48599878579E+03  0.00000000000E+00 0. -1.
<scales pt_clust_3="14000.00000" pt_clust_4="45.31740" pt_clust_5="59.82197" pt_clust_6="124.32151"></scales>
<clustering>
<clus scale="   45.317">  2  4  1 -1</clus>
<clus scale="   59.822">  1  5  2 -1</clus>
<clus scale="  124.322">  1  6  2 -1</clus>
<clus scale="   59.822">  1  3  2 -1</clus>
</clustering>
</event>
<event>
 6    0  0.2036847E+002  0.1158314E+03  0.7546771E-02  0.1250137E+00
         21   -1    0    0  503  501  0.00000000000E+00  0.00000000000E+00  0.52761539514E+03  0.52761539514E+03  0.00000000000E+00 0. -1.
         21   -1    0    0  504  502 -0.00000000000E+00 -0.00000000000E+00 -0.31891733294E+03  0.31891733294E+03  0.00000000000E+00 0. -1.
         21    1    1    2  503  505  0.54207889690E+02  0.31005738243E+02  0.10859475752E+03  0.12527039742E+03  0.00000000000E+00 0. -1.
         21    1    1    2  504  501  0.23821489744E+02 -0.67363724028E+02 -0.22623651410E+03  0.23725154373E+03  0.00000000000E+00 0. -1.
         21    1    1    2  505  506 -0.12311030390E+03  0.66581824915E+02  0.38165866284E+03  0.40651275657E+03  0.00000000000E+00 0. -1.
         21    1    1    2  506  502  0.45080924465E+02 -0.30223839130E+02 -0.55318844061E+02  0.77498030366E+02  0.00000000000E+00 0. -1.
<scales pt_clust_3="63.26579" pt_clust_4="115.83138" pt_clust_5="14000.00000" pt_clust_6="54.27495"></scales>
<clustering>
<clus scale="   54.275">  2  6  1 -1</clus>
<clus scale="   63.266">  1  3  2 -1</clus>
<clus scale="  115.831">  2  4  1 -1</clus>
<clus scale="   63.266">  1  3  2 -1</clus>
</clustering>
</event>
<event>
 6    0  0.2036847E+002  0.1424460E+03  0.7546771E-02  0.1210075E+00
         21   -1    0    0  505  501  0.00000000000E+00  0.00000000000E+00  0.40076951462E+03  0.40076951462E+03  0.00000000000E+00 0.  1.
         21   -1    0    0  503  502 -0.00000000000E+00 -0.00000000000E+00 -0.12292222385E+03  0.12292222385E+03  0.00000000000E+00 0. -1.
         21    1    1    2  503  506  0.36243334576E+02  0.13231468046E+02 -0.38730385668E+02  0.54668947510E+02  0.00000000000E+00 0. -1.
         21    1    1    2  504  501 -0.70552444298E+02 -0.99993832168E+02  0.20892795556E+03  0.24213075905E+03  0.00000000000E+00 0.  1.
         21    1    1    2  505  502 -0.57184870884E+02  0.52998105861E+02  0.10309904386E+03  0.12926067278E+03  0.00000000000E+00 0.  1.
         21    1    1    2  506  504  0.91493980606E+02  0.33764258261E+02  0.45506770302E+01  0.97631359125E+02  0.00000000000E+00 0. -1.
<scales pt_clust_3="37.22030" pt_clust_4="129.57301" pt_clust_5="77.96736" pt_clust_6="37.22030"></scales>
<clustering>
<clus scale="   37.220">  3  6 -1 -1</clus>
<clus scale="   77.967">  1  5  2 -1</clus>
<clus scale="  129.573">  1  4  2 -1</clus>
<clus scale="   77.967">  1  3  2 -1</clus>
</clustering>
</event>
<event>
 6    0  0.2036847E+002  0.1121119E+03  0.7546771E-02  0.1256708E+00
         21   -1    0    0  506  501  0.00000000000E+00  0.00000000000E+00  0.29062243429E+03  0.29062243429E+03  0.00000000000E+00 0.  1.
         21   -1    0    0  503  502 -0.00000000000E+00 -0.00000000000E+00 -0.36693925642E+03  0.36693925642E+03  0.00000000000E+00 0.  1.
         21    1    1    2  503  505  0.21988800039E+02  0.50009546777E+02 -0.11047386550E+03  0.12324340572E+03  0.00000000000E+00 0.  1.
         21    1    1    2  504  502 -0.54297074771E+02 -0.14827750620E+01 -0.31533395542E+02  0.62807053624E+02  0.00000000000E+00 0.  1.
         21    1    1    2  505  501  0.82933647345E+02  0.36509649893E+02 -0.18280665683E+03  0.20403239493E+03  0.00000000000E+00 0.  1.
         21    1    1    2  506  504 -0.50625372613E+02 -0.85036421608E+02  0.24849709573E+03  0.26747883644E+03  0.00000000000E+00 0.  1.
<scales pt_clust_3="39.60466" pt_clust_4="54.31732" pt_clust_5="39.60466" pt_clust_6="99.83675"></scales>
<clustering>
<clus scale="   39.605">  3  5 -1 -1</clus>
<clus scale="   54.317">  2  4  1 -1</clus>
<clus scale="   99.837">  1  6  2 -1</clus>
<clus scale="   99.837">  1  3  2 -1</clus>
</clustering>
</event>
<event>
 6    0  0.2036847E+002  0.1907015E+03  0.7546771E-02  0.1157830E+00
         21   -1    0    0  505  501  0.00000000000E+00  0.00000000000E+00  0.37916791190E+03  0.37916791190E+03  0.00000000000E+00 0. -1.
         21   -1    0    0  503  502 -0.00000000000E+00 -0.00000000000E+00 -0.95500477625E+03  0.95500477625E+03  0.00000000000E+00 0. -1.
         21    1    1    2  503  501  0.32002595887E+02  0.76137851204E+02  0.36808354390E+02  0.90421200403E+02  0.00000000000E+00 0. -1.
         21    1    1    2  504  502 -0.17037513611E+01 -0.11050946548E+03 -0.60845699438E+03  0.61841342057E+03  0.00000000000E+00 0. -1.
         21    1    1    2  505  506  0.21931814451E+02  0.94386208160E+02  0.29773576387E+03  0.31310756277E+03  0.00000000000E+00 0. -1.
         21    1    1    2  506  504 -0.52230658976E+02 -0.60014593880E+02 -0.30192398823E+03  0.31223050441E+03  0.00000000000E+00 0.  1.
<scales pt_clust_3="82.59018" pt_clust_4="61.86765" pt_clust_5="176.20970" pt_clust_6="61.86765"></scales>
<clustering>
<clus scale="   61.868">  4  6 -1 -1</clus>
<clus scale="   82.590">  1  3  2 -1</clus>
<clus scale="  176.210">  1  5  2 -1</clus>
<clus scale="   82.590">  1  3  2 -1</clus>
</clustering>
</event>
<event>
 6    0  0.2036847E+002  0.8116791E+02  0.7546771E-02  0.1325769E+00
         21   -1    0    0  503  501  0.00000000000E+00  0.00000000000E+00  0.31519534201E+03  0.31519534201E+03  0.00000000000E+00 0.  1.
         21   -1    0    0  506  502 -0.00000000000E+00 -0.00000000000E+00 -0.22641484491E+04  0.22641484491E+04  0.00000000000E+00 0. -1.
         21    1    1    2  503  502 -0.63031529392E+02 -0.12725968267E+02 -0.37651085767E+03  0.38196249804E+03  0.00000000000E+00 0. -1.
         21    1    1    2  504  501 -0.48657824855E+02  0.87415647635E+00  0.28787803808E+03  0.29196251965E+03  0.00000000000E+00 0.  1.
         21    1    1    2  505  504  0.51397933752E+02 -0.59532808445E+02 -0.51112562096E+02  0.93799770145E+02  0.00000000000E+00 0.  1.
         21    1    1    2  506  505  0.60291420495E+02  0.71384620235E+02 -0.18092077255E+04  0.18116190033E+04  0.00000000000E+00 0. -1.
<scales pt_clust_3="81.16791" pt_clust_4="48.66568" pt_clust_5="59.69151" pt_clust_6="14000.00000"></scales>
<clustering>
<clus scale="   48.666">  1  4  2 -1</clus>
<clus scale="   59.692">  1  5  2 -1</clus>
<clus scale="   81.168">  1  3  2 -1</clus>
<clus scale="   48.666">  1  3  2 -1</clus>
</clustering>
</event>
<event>
 6    0  0.2036847E+002  0.1242728E+03  0.7546771E-02  0.1236210E+00
         21   -1    0    0  505  501  0.00000000000E+00  0.00000000000E+00  0.38567177583E+03  0.38567177583E+03  0.00000000000E+00 0.  1.
         21   -1    0    0  506  502 -0.00000000000E+00 -0.00000000000E+00 -0.59921334375E+03  0.59921334375E+03  0.00000000000E+00 0.  1.
         21    1    1    2  503  501 -0.78100672728E+02  0.63221553185E+01  0.34001189179E+02  0.85415253872E+02  0.00000000000E+00 0. -1.
         21    1    1    2  504  503  0.10748446871E+02  0.72073549928E+02 -0.25050169212E+03  0.26088546043E+03  0.00000000000E+00 0.  1.
         21    1    1    2  505  502  0.32991612527E+02 -0.10887673833E+03  0.30891611434E+03  0.32919865787E+03  0.00000000000E+00 0.  1.
         21    1    1    2  506  504  0.34360613330E+02  0.30481033080E+02 -0.30595717932E+03  0.30938574742E+03  0.00000000000E+00 0.  1.
<scales pt_clust_3="78.35614" pt_clust_4="43.56131" pt_clust_5="111.50432" pt_clust_6="43.56131"></scales>
<clustering>
<clus scale="   43.561">  4  6 -1 -1</clus>
<clus scale="   78.356">  1  3  2 -1</clus>
<clus scale="  111.504">  1  5  2 -1</clus>
<clus scale="   78.356">  1  3  2 -1</clus>
</clustering>
</event>
<event>
 6    0  0.2036847E+002  0.1237294E+03  0.7546771E-02  0.1237069E+00
         21   -1    0    0  506  501  0.00000000000E+00  0.00000000000E+00  0.28141214585E+03  0.28141214585E+03  0.00000000000E+00 0.  1.
         21   -1    0    0  505  502 -0.00000000000E+00 -0.00000000000E+00 -0.22973723706E+03  0.22973723706E+03  0.00000000000E+00 0. -1.
         21    1    1    2  503  501 -0.79347699636E+02 -0.16258166623E+02 -0.41036016993E+02  0.90798348609E+02  0.00000000000E+00 0.  1.
         21    1    1    2  504  502  0.32025267636E+01  0.39338194326E+02 -0.94957930785E+02  0.10283364396E+03  0.00000000000E+00 0. -1.
         21    1    1    2  505  503 -0.29899125260E+02  0.18474084575E+02 -0.45810270254E+02  0.57739331075E+02  0.00000000000E+00 0. -1.
         21    1    1    2  506  504  0.10604429813E+03 -0.41554112278E+02  0.23347912683E+03  0.25977805927E+03  0.00000000000E+00 0.  1.
<scales pt_clust_3="33.46823" pt_clust_4="39.46834" pt_clust_5="33.46823" pt_clust_6="112.81652"></scales>
<clustering>
<clus scale="   33.468">  3  5 -1 -1</clus>
<clus scale="   39.468">  2  4  1 -1</clus>
<clus scale="  112.817">  1  6  2 -1</clus>
<clus scale="  112.817">  1  3  2 -1</clus>
</clustering>
</event>
<event>
 6    0  0.2036847E+002  0.2412357E+03  0.7546771E-02  0.1118972E+00
         21   -1    0    0  506  501  0.00000000000E+00  0.00000000000E+00  0.80940238648E+03  0.80940238648E+03  0.00000000000E+00 0.  1.
         21   -1    0    0  503  502 -0.00000000000E+00 -0.00000000000E+00 -0.84195077834E+03  0.84195077834E+03  0.00000000000E+00 0. -1.
         21    1    1    2  503  501 -0.14174721982E+03 -0.19244626310E+03  0.71884516383E+03  0.75753957525E+03  0.00000000000E+00 0.  1.
         21    1    1    2  504  505  0.15131062037E+02  0.63994681872E+02 -0.15548590284E+03  0.16881982801E+03  0.00000000000E+00 0. -1.
         21    1    1    2  505  502  0.86392667969E+02  0.14751474835E+03 -0.63994133949E+03  0.66238147018E+03  0.00000000000E+00 0. -1.
         21    1    1    2  506  504  0.40223489812E+02 -0.19063167127E+02  0.44033686627E+02  0.62612291377E+02  0.00000000000E+00 0.  1.
<scales pt_clust_3="234.62067" pt_clust_4="34.79728" pt_clust_5="34.79728" pt_clust_6="44.51217"></scales>
<clustering>
<clus scale="   34.797">  4  5 -1 -1</clus>
<clus scale="   44.512">  1  6  2 -1</clus>
<clus scale="  234.621">  1  3  2 -1</clus>
<clus scale="   44.512">  1  3  2 -1</clus>
</clustering>
</event>
<event>
 6    0  0.2036847E+002  0.1044911E+03  0.7546771E-02  0.1271126E+00
         21   -1    0    0  504  501  0.00000000000E+00  0.00000000000E+00  0.23926961293E+03  0.23926961293E+03  0.00000000000E+00 0. -1.
         21   -1    0    0  503  502 -0.00000000000E+00 -0.00000000000E+00 -0.38504294183E+03  0.38504294183E+03  0.00000000000E+00 0.  1.
         21    1    1    2  503  501  0.37367705392E+01 -0.99790028950E+02 -0.12531143755E+02  0.10064314629E+03  0.00000000000E+00 0. -1.
         21    1    1    2  504  505  0.91604865215E+02  0.80055459644E+02  0.16634119998E+03  0.20608183511E+03  0.00000000000E+00 0. -1.
         21    1    1    2  505  506 -0.56488584728E+02  0.10783221747E+02 -0.11300409085E+03  0.12679575160E+03  0.00000000000E+00 0.  1.
         21    1    1    2  506  502 -0.38853051027E+02  0.89513475596E+01 -0.18657929427E+03  0.19079182175E+03  0.00000000000E+00 0.  1.
<scales pt_clust_3="99.85997" pt_clust_4="96.36494" pt_clust_5="33.63920" pt_clust_6="33.63920"></scales>
<clustering>
<clus scale="   33.639">  5  6 -1 -1</clus>
<clus scale="   99.860">  1  3  2 -1</clus>
<clus scale="   96.365">  1  4  2 -1</clus>
<clus scale="   99.860">  1  3  2 -1</clus>
</clustering>
</event>
<event>
 6    0  0.2036847E+002  0.9374735E+02  0.7546771E-02  0.1294023E+00
         21   -1    0    0  505  501  0.00000000000E+00  0.00000000000E+00  0.14367913193E+03  0.14367913193E+03  0.00000000000E+00 0.  1.
         21   -1    0    0  506  502 -0.00000000000E+00 -0.00000000000E+00 -0.12953377023E+03  0.12953377023E+03  0.00000000000E+00 0.  1.
         21    1    1    2  503  502  0.29932239524E+02 -0.27905094154E+02 -0.25679696513E+01  0.41002776867E+02  0.00000000000E+00 0.  1.
         21    1    1    2  504  501 -0.45152723721E+02  0.62070828454E+02  0.27917070741E+02  0.81675694323E+02  0.00000000000E+00 0.  1.
         21    1    1    2  505  503  0.72515951763E+02 -0.21033297365E+01  0.23516615803E+02  0.76262824987E+02  0.00000000000E+00 0.  1.
         21    1    1    2  506  504 -0.57295467567E+02 -0.32062404564E+02 -0.34720355202E+02  0.74271605984E+02  0.00000000000E+00 0.  1.
<scales pt_clust_3="32.87733" pt_clust_4="82.89950" pt_clust_5="32.87733" pt_clust_6="65.65644"></scales>
<clustering>
<clus scale="   32.877">  3  5 -1 -1</clus>
<clus scale="   65.656">  2  6  1 -1</clus>
<clus scale="   82.899">  1  4  2 -1</clus>
<clus scale="   82.899">  1  3  2 -1</clus>
</clustering>
</event>
<event>
 6    0  0.2036847E+002  0.1010008E+03  0.7546771E-02  0.1278205E+00
         21   -1    0    0  506  501  0.00000000000E+00  0.00000000000E+00  0.29609179896E+04  0.29609179896E+04  0.00000000000E+00 0.  1.
         21   -1    0    0  503  502 -0.00000000000E+00 -0.00000000000E+00 -0.93811672289E+02  0.93811672289E+02  0.00000000000E+00 0. -1.
         21    1    1    2  503  504  0.18397452984E+02 -0.28952146457E+02  0.55911762341E+02  0.65595870517E+02  0.00000000000E+00 0. -1.
         21    1    1    2  504  501  0.13837662688E+03  0.30155582939E+02  0.23378890366E+04  0.23421747581E+04  0.00000000000E+00 0.  1.
         21    1    1    2  505  502 -0.96798013310E+02 -0.33264553692E+02 -0.53698487209E+02  0.11558509178E+03  0.00000000000E+00 0. -1.
         21    1    1    2  506  505 -0.59976066556E+02  0.32061117210E+02  0.52700400557E+03  0.53137394148E+03  0.00000000000E+00 0. -1.
<scales pt_clust_3="34.30296" pt_clust_4="101.00079" pt_clust_5="14000.00000" pt_clust_6="67.27529"></scales>
<clustering>
<clus scale="   34.303">  2  3  1 -1</clus>
<clus scale="   67.275">  1  6  2 -1</clus>
<clus scale="  101.001">  1  4  2 -1</clus>
<clus scale="   67.275">  1  3  2 -1</clus>
</clustering>
</event>
<event>
 6    0  0.2036847E+002  0.1270813E+03  0.7546771E-02  0.1231852E+00
         21   -1    0    0  506  501  0.00000000000E+00  0.00000000000E+00  0.75985410947E+03  0.75985410947E+03  0.00000000000E+00 0.  1.
         21   -1    0    0  503  502 -0.00000000000E+00 -0.00000000000E+00 -0.19593082567E+03  0.19593082567E+03  0.00000000000E+00 0. -1.
         21    1    1    2  503  505 -0.56029021953E+01  0.76810687941E+02  0.47000373262E+03  0.47627175328E+03  0.00000000000E+00 0.  1.
         21    1    1    2  504  502  0.50887003357E+02 -0.41618105590E+02 -0.95619118509E+02  0.11603693226E+03  0.00000000000E+00 0. -1.
         21    1    1    2  505  501 -0.53011401009E+02  0.27122734253E+02  0.26137060562E+03  0.26806798547E+03  0.00000000000E+00 0.  1.
         21    1    1    2  506  504  0.77272998479E+01 -0.62315316604E+02 -0.71831935928E+02  0.95408264136E+02  0.00000000000E+00 0. -1.
<scales pt_clust_3="117.12486" pt_clust_4="48.19195" pt_clust_5="59.54705" pt_clust_6="48.19195"></scales>
<clustering>
<clus scale="   48.192">  4  6 -1 -1</clus>
<clus scale="   59.547">  1  5  2 -1</clus>
<clus scale="  117.125">  1  3  2 -1</clus>
<clus scale="   59.547">  1  3  2 -1</clus>
</clustering>
</event>
<event>
 6    0  0.2036847E+002  0.2986425E+03  0.7546771E-02  0.1085921E+00
         21   -1    0    0  504  501  0.00000000000E+00  0.00000000000E+00  0.54433336984E+03  0.54433336984E+03  0.00000000000E+00 0.  1.
         21   -1    0    0  506  502 -0.00000000000E+00 -0.00000000000E+00 -0.21095573990E+04  0.21095573990E+04  0.00000000000E+00 0.  1.
         21    1    1    2  503  505  0.88900440199E+02 -0.23740354928E+03  0.40728097990E+03  0.47973068493E+03  0.00000000000E+00 0.  1.
         21    1    1    2  504  502 -0.11539968479E+02  0.56439649109E+02 -0.70825245782E+02  0.91295237028E+02  0.00000000000E+00 0.  1.
         21    1    1    2  505  501 -0.25046085734E+02 -0.38884283253E+02  0.77808946127E+02  0.90518097594E+02  0.00000000000E+00 0.  1.
         21    1    1    2  506  503 -0.52314385986E+02  0.21984818342E+03 -0.19794887094E+04  0.19923467493E+04  0.00000000000E+00 0.  1.
<scales pt_clust_3="41.54329" pt_clust_4="57.60733" pt_clust_5="41.54329" pt_clust_6="282.36188"></scales>
<clustering>
<clus scale="   41.543">  3  5 -1 -1</clus>
<clus scale="   57.607">  2  4  1 -1</clus>
<clus scale="  282.362">  2  6  1 -1</clus>
<clus scale="  298.642">  1  3  2 -1</clus>
</clustering>
</event>
<event>
 6    0  0.2036847E+002  0.1576782E+03  0.7546771E-02  0.1191343E+00
         21   -1    0    0  504  501  0.00000000000E+00  0.00000000000E+00  0.14365009558E+04  0.14365009558E+04  0.00000000000E+00 0.  1.
         21   -1    0    0  501  502 -0.00000000000E+00 -0.00000000000E+00 -0.16976272868E+02  0.16976272868E+02  0.00000000000E+00 0.  1.
         21    1    1    2  503  506  0.19579033882E+02  0.79321448037E+02  0.52978775164E+03  0.53605064357E+03  0.00000000000E+00 0.  1.
         21    1    1    2  504  503  0.10451801987E+02  0.64591653916E+02  0.23167756885E+03  0.24074014586E+03  0.00000000000E+00 0.  1.
         21    1    1    2  505  502 -0.29989582201E+02 -0.86479547538E+02  0.28796361538E+03  0.30216077006E+03  0.00000000000E+00 0.  1.
         21    1    1    2  506  505 -0.41253667732E-01 -0.57433554415E+02  0.37009574703E+03  0.37452566914E+03  0.00000000000E+00 0.  1.
<scales pt_clust_3="153.53988" pt_clust_4="39.63604" pt_clust_5="45.15547" pt_clust_6="45.15547"></scales>
<clustering>
<clus scale="   39.636">  3  4 -1 -1</clus>
<clus scale="   45.155">  5  6 -1 -1</clus>
<clus scale="  153.540">  1  3  2 -1</clus>
<clus scale="  153.540">  1  3  2 -1</clus>
</clustering>
</event>
<event>
 6    0  0.2036847E+002  0.1091918E+03  0.7546771E-02  0.1262074E+00
         21   -1    0    0  505  501  0.00000000000E+00  0.00000000000E+00  0.18670550592E+03  0.18670550592E+03  0.00000000000E+00 0.  1.
         21   -1    0    0  503  502 -0.00000000000E+00 -0.00000000000E+00 -0.15911738110E+04  0.15911738110E+04  0.00000000000E+00 0. -1.
         21    1    1    2  503  506  0.35624482764E+02  0.35478648714E+02 -0.10317333927E+03  0.11477184420E+03  0.00000000000E+00 0. -1.
         21    1    1    2  504  502 -0.29470672583E+02 -0.38056050923E+02 -0.64907459134E+03  0.65085682656E+03  0.00000000000E+00 0. -1.
         21    1    1    2  505  504 -0.87849125818E+02 -0.53029577117E+02 -0.81520923141E+03  0.82164207288E+03  0.00000000000E+00 0. -1.
         21    1    1    2  506  501  0.81695315637E+02  0.55606979327E+02  0.16298885690E+03  0.19060857331E+03  0.00000000000E+00 0.  1.
<scales pt_clust_3="50.27761" pt_clust_4="31.12556" pt_clust_5="31.12556" pt_clust_6="99.28482"></scales>
<clustering>
<clus scale="   31.126">  4  5 -1 -1</clus>
<clus scale="   50.278">  2  3  1 -1</clus>
<clus scale="   99.285">  1  6  2 -1</clus>
<clus scale="   99.285">  1  3  2 -1</clus>
</clustering>
</event>
<event>
 6    0  0.2036847E+002  0.1345262E+03  0.7546771E-02  0.1220890E+00
         21   -1    0    0  505  501  0.00000000000E+00  0.00000000000E+00  0.33013433016E+03  0.33013433016E+03  0.00000000000E+00 0. -1.
         21   -1    0    0  506  502 -0.00000000000E+00 -0.00000000000E+00 -0.71682174086E+02  0.71682174086E+02  0.00000000000E+00 0.  1.
         21    1    1    2  503  501 -0.11662389043E+03  0.41585560611E+02  0.15249780648E+03  0.19643337713E+03  0.00000000000E+00 0. -1.
         21    1    1    2  504  502  0.52461643970E+02 -0.41018701131E+02  0.24947875578E+02  0.71113672570E+02  0.00000000000E+00 0.  1.
         21    1    1    2  505  504  0.65400418779E+02 -0.30747832383E+02  0.73641737559E+02  0.10317824133E+03  0.00000000000E+00 0.  1.
         21    1    1    2  506  503 -0.12381723209E+01  0.30180972902E+02  0.73647364512E+01  0.31091213212E+02  0.00000000000E+00 0. -1.
<scales pt_clust_3="128.38005" pt_clust_4="37.35598" pt_clust_5="37.35598" pt_clust_6="30.20636"></scales>
<clustering>
<clus scale="   30.206">  2  6  1 -1</clus>
<clus scale="   37.356">  4  5 -1 -1</clus>
<clus scale="  128.380">  1  3  2 -1</clus>
<clus scale="  128.380">  1  3  2 -1</clus>
</clustering>
</event>
<event>
 6    0  0.2036847E+002  0.1335411E+03  0.7546771E-02  0.1222294E+00
         21   -1    0    0  504  501  0.00000000000E+00  0.00000000000E+00  0.17298020096E+03  0.17298020096E+03  0.00000000000E+00 0. -1.
         21   -1    0    0  506  502 -0.00000000000E+00 -0.00000000000E+00 -0.73499254819E+03  0.73499254819E+03  0.00000000000E+00 0.  1.
         21    1    1    2  503  505  0.15660783973E+02 -0.58764563063E+02 -0.25168897585E+03  0.25893218145E+03  0.00000000000E+00 0.  1.
         21    1    1    2  504  502  0.37792127266E+02 -0.17474144388E+01 -0.14810918281E+02  0.40628335443E+02  0.00000000000E+00 0. -1.
         21    1    1    2  505  501 -0.30728960956E+02  0.12739369004E+03  0.12553959983E+03  0.18147620348E+03  0.00000000000E+00 0. -1.
         21    1    1    2  506  503 -0.22723950284E+02 -0.66881712534E+02 -0.42105205293E+03  0.42693602877E+03  0.00000000000E+00 0.  1.
<scales pt_clust_3="41.61947" pt_clust_4="37.83250" pt_clust_5="125.83877" pt_clust_6="41.61947"></scales>
<clustering>
<clus scale="   37.833">  1  4  2 -1</clus>
<clus scale="   41.619">  3  6 -1 -1</clus>
<clus scale="  125.839">  1  5  2 -1</clus>
<clus scale="   37.833">  1  3  2 -1</clus>
</clustering>
</event>
<event>
 6    0  0.2036847E+002  0.9859355E+02  0.7546771E-02  0.1283282E+00
         21   -1    0    0  506  501  0.00000000000E+00  0.00000000000E+00  0.15961673365E+03  0.15961673365E+03  0.00000000000E+00 0. -1.
         21   -1    0    0  505  502 -0.00000000000E+00 -0.00000000000E+00 -0.12628368947E+03  0.12628368947E+03  0.00000000000E+00 0. -1.
         21    1    1    2  503  502  0.38334126236E+02  0.59364833382E+02  0.12753010590E+02  0.71807575895E+02  0.00000000000E+00 0. -1.
         21    1    1    2  504  501 -0.46432517309E+02 -0.36860490772E+02 -0.29166288684E+02  0.66070771444E+02  0.00000000000E+00 0. -1.
         21    1    1    2  505  504 -0.58922768011E+02 -0.28611529998E+02  0.20478066270E+01  0.65534004538E+02  0.00000000000E+00 0. -1.
         21    1    1    2  506  503  0.67021159084E+02  0.61071873876E+01  0.47698515641E+02  0.82488071241E+02  0.00000000000E+00 0. -1.
<scales pt_clust_3="92.31795" pt_clust_4="32.92968" pt_clust_5="32.92968" pt_clust_6="67.29884"></scales>
<clustering>
<clus scale="   32.930">  4  5 -1 -1</clus>
<clus scale="   67.299">  1  6  2 -1</clus>
<clus scale="   92.318">  2  3  1 -1</clus>
<clus scale="   67.299">  1  3  2 -1</clus>
</clustering>
</event>
<event>
 6    0  0.2036847E+002  0.1139589E+03  0.7546771E-02  0.1253409E+00
         21   -1    0    0  504  501  0.00000000000E+00  0.00000000000E+00  0.69629286319E+02  0.69629286319E+02  0.00000000000E+00 0.  1.
         21   -1    0    0  506  502 -0.00000000000E+00 -0.00000000000E+00 -0.95235272772E+03  0.95235272772E+03  0.00000000000E+00 0.  1.
         21    1    1    2  503  505  0.64798727618E+02 -0.60175480421E+02  0.14473779346E+02  0.89607219761E+02  0.00000000000E+00 0.  1.
         21    1    1    2  504  502 -0.65832804421E+02  0.50879773988E+02 -0.33548828017E+03  0.34565169705E+03  0.00000000000E+00 0.  1.
         21    1    1    2  505  501  0.48687080526E+02 -0.93709161168E+01 -0.43396504060E+02  0.65890078491E+02  0.00000000000E+00 0.  1.
         21    1    1    2  506  503 -0.47653003722E+02  0.18666622550E+02 -0.51831243651E+03  0.52083301874E+03  0.00000000000E+00 0.  1.
<scales pt_clust_3="14000.00000" pt_clust_4="113.95887" pt_clust_5="49.58070" pt_clust_6="50.12663"></scales>
<clustering>
<clus scale="   49.581">  1  5  2 -1</clus>
<clus scale="   50.127">  2  6  1 -1</clus>
<clus scale="  113.959">  2  4  1 -1</clus>
<clus scale="   49.581">  1  3  2 -1</clus>
</clustering>
</event>
<event>
 6    0  0.2036847E+002  0.1061326E+03  0.7546771E-02  0.1267904E+00
         21   -1    0    0  502  501  0.00000000000E+00  0.00000000000E+00  0.13864476663E+02  0.13864476663E+02  0.00000000000E+00 0. -1.
         21   -1    0    0  505  502 -0.00000000000E+00 -0.00000000000E+00 -0.22869711294E+04  0.22869711294E+04  0.00000000000E+00 0. -1.
         21    1    1    2  503  504 -0.71176081086E+02 -0.40514904636E+02 -0.14435998938E+04  0.14459212100E+04  0.00000000000E+00 0. -1.
         21    1    1    2  504  506  0.93378161837E+02  0.73300736911E+02 -0.42119858592E+03  0.43760796145E+03  0.00000000000E+00 0. -1.
         21    1    1    2  505  503 -0.38196590426E+02  0.48242125355E+01 -0.28031360177E+03  0.28294516762E+03  0.00000000000E+00 0. -1.
         21    1    1    2  506  501  0.15994509675E+02 -0.37610044811E+02 -0.12799457126E+03  0.13436126704E+03  0.00000000000E+00 0. -1.
<scales pt_clust_3="106.13264" pt_clust_4="14000.00000" pt_clust_5="38.50003" pt_clust_6="39.66128"></scales>
<clustering>
<clus scale="   38.500">  2  5  1 -1</clus>
<clus scale="   39.661">  1  6  2 -1</clus>
<clus scale="  106.133">  2  3  1 -1</clus>
<clus scale="   39.661">  1  3  2 -1</clus>
</clustering>
</event>
<event>
 6    0  0.2036847E+002  0.1590802E+03  0.7546771E-02  0.1189739E+00
         21   -1    0    0  504  501  0.00000000000E+00  0.00000000000E+00  0.10169046585E+04  0.10169046585E+04  0.00000000000E+00 0.  1.
         21   -1    0    0  506  502 -0.00000000000E+00 -0.00000000000E+00 -0.50030192468E+02  0.50030192468E+02  0.00000000000E+00 0.  1.
         21    1    1    2  503  502 -0.59818953941E+02  0.32216208492E+02  0.55454197722E+02  0.87700395582E+02  0.00000000000E+00 0.  1.
         21    1    1    2  504  503 -0.31545642829E+02  0.95858706818E+02  0.78669725404E+02  0.12795680892E+03  0.00000000000E+00 0.  1.
         21    1    1    2  505  501  0.46640027526E+02 -0.31134766434E+02  0.14824857834E+03  0.15850017927E+03  0.00000000000E+00 0.  1.
         21    1    1    2  506  505  0.44724569244E+02 -0.96940148876E+02  0.68450196457E+03  0.69277746720E+03  0.00000000000E+00 0.  1.
<scales pt_clust_3="50.36793" pt_clust_4="50.36793" pt_clust_5="56.07732" pt_clust_6="146.75965"></scales>
<clustering>
<clus scale="   50.368">  3  4 -1 -1</clus>
<clus scale="   56.077">  1  5  2 -1</clus>
<clus scale="  146.760">  1  6  2 -1</clus>
<clus scale="   56.077">  1  3  2 -1</clus>
</clustering>
</event>
<event>
 6    0  0.2036847E+002  0.1528051E+03  0.7546771E-02  0.1197068E+00
         21   -1    0    0  505  501  0.00000000000E+00  0.00000000000E+00  0.12052888486E+04  0.12052888486E+04  0.00000000000E+00 0.  1.
         21   -1    0    0  504  502 -0.00000000000E+00 -0.00000000000E+00 -0.16063780178E+04  0.16063780178E+04  0.00000000000E+00 0. -1.
         21    1    1    2  503  502 -0.24708056353E+02  0.10921944070E+03 -0.13923745118E+04  0.13968701283E+04  0.00000000000E+00 0. -1.
         21    1    1    2  504  501 -0.11363659553E+03 -0.75707308734E+02 -0.18419523132E+03  0.22928749569E+03  0.00000000000E+00 0. -1.
         21    1    1    2  505  506  0.41063055863E+02 -0.38678232916E+02  0.44508207397E+03  0.44864265605E+03  0.00000000000E+00 0. -1.
         21    1    1    2  506  503  0.97281596020E+02  0.51661009512E+01  0.73039849987E+03  0.73686658639E+03  0.00000000000E+00 0.  1.
<scales pt_clust_3="111.97935" pt_clust_4="141.18820" pt_clust_5="44.47062" pt_clust_6="44.47062"></scales>
<clustering>
<clus scale="   44.471">  5  6 -1 -1</clus>
<clus scale="  111.979">  2  3  1 -1</clus>
<clus scale="  141.188">  2  4  1 -1</clus>
<clus scale="  152.805">  1  3  2 -1</clus>
</clustering>
</event>
<event>
 6    0  0.2036847E+002  0.5945368E+02  0.7546771E-02  0.1400139E+00
         21   -1    0    0  505  501  0.00000000000E+00  0.00000000000E+00  0.25192840637E+03  0.25192840637E+03  0.00000000000E+00 0.  1.
         21   -1    0    0  503  502 -0.00000000000E+00 -0.00000000000E+00 -0.82463018676E+03  0.82463018676E+03  0.00000000000E+00 0.  1.
         21    1    1    2  503  504  0.24328184561E+02  0.66980859996E+02 -0.65588006006E+03  0.65974006196E+03  0.00000000000E+00 0.  1.
         21    1    1    2  504  501  0.55620725595E+02 -0.86729551277E+02  0.20725403516E+03  0.23145175582E+03  0.00000000000E+00 0.  1.
         21    1    1    2  505  506 -0.48233263244E+02  0.28597054103E+02  0.94626939784E+00  0.56081499733E+02  0.00000000000E+00 0. -1.
         21    1    1    2  506  502 -0.31715646912E+02 -0.88483628222E+01 -0.12502202489E+03  0.12928527562E+03  0.00000000000E+00 0.  1.
<scales pt_clust_3="59.45368" pt_clust_4="14000.00000" pt_clust_5="56.98119" pt_clust_6="32.92682"></scales>
<clustering>
<clus scale="   32.927">  2  6  1 -1</clus>
<clus scale="   56.981">  1  5  2 -1</clus>
<clus scale="   59.454">  2  3  1 -1</clus>
<clus scale="   56.981">  1  3  2 -1</clus>
</clustering>
</event>
<event>
 6    0  0.2036847E+002  0.7761017E+02  0.7546771E-02  0.1335974E+00
         21   -1    0    0  506  501  0.00000000000E+00  0.00000000000E+00  0.79063510995E+02  0.79063510995E+02  0.00000000000E+00 0.  1.
         21   -1    0    0  504  502 -0.00000000000E+00 -0.00000000000E+00 -0.45081447201E+03  0.45081447201E+03  0.00000000000E+00 0.  1.
         21    1    1    2  503  501 -0.25179213325E+02 -0.61689270895E+02 -0.10306235013E+02  0.67422380612E+02  0.00000000000E+00 0.  1.
         21    1    1    2  504  503 -0.45010191153E+02  0.44462532064E+02 -0.10520631030E+03  0.12276482311E+03  0.00000000000E+00 0.  1.
         21    1    1    2  505  502  0.44526726363E+02 -0.88119420209E+02 -0.18577081230E+03  0.21037693857E+03  0.00000000000E+00 0.  1.
         21    1    1    2  506  505  0.25662678115E+02  0.10534615904E+03 -0.70467603401E+02  0.12931384072E+03  0.00000000000E+00 0.  1.
<scales pt_clust_3="64.19831" pt_clust_4="63.26795" pt_clust_5="14000.00000" pt_clust_6="77.61017"></scales>
<clustering>
<clus scale="   63.268">  2  4  1 -1</clus>
<clus scale="   64.198">  1  3  2 -1</clus>
<clus scale="   77.610">  1  6  2 -1</clus>
<clus scale="   64.198">  1  3  2 -1</clus>
</clustering>
</event>
<event>
 6    0  0.2036847E+002  0.1092570E+03  0.7546771E-02  0.1261952E+00
         21   -1    0    0  504  501  0.00000000000E+00  0.00000000000E+00  0.28986374294E+03  0.28986374294E+03  0.00000000000E+00 0. -1.
         21   -1    0    0  503  502 -0.00000000000E+00 -0.00000000000E+00 -0.58730013967E+03  0.58730013967E+03  0.00000000000E+00 0. -1.
         21    1    1    2  503  505  0.23183163469E+02 -0.70306978240E+02 -0.39839104624E+03  0.40521100181E+03  0.00000000000E+00 0. -1.
         21    1    1    2  504  506  0.43234647741E+02  0.44684014420E+02  0.13899178141E+03  0.15226493756E+03  0.00000000000E+00 0. -1.
         21    1    1    2  505  501  0.72023636516E+02 -0.19271212980E+02  0.96190196462E+02  0.12170183960E+03  0.00000000000E+00 0. -1.
         21    1    1    2  506  502 -0.13844144773E+03  0.44894176800E+02 -0.13422732836E+03  0.19798610365E+03  0.00000000000E+00 0. -1.
<scales pt_clust_3="73.35897" pt_clust_4="62.17633" pt_clust_5="14000.00000" pt_clust_6="109.25705"></scales>
<clustering>
<clus scale="   62.176">  1  4  2 -1</clus>
<clus scale="   73.359">  2  3  1 -1</clus>
<clus scale="  109.257">  2  6  1 -1</clus>
<clus scale="   62.176">  1  3  2 -1</clus>
</clustering>
</event>
<event>
 6    0  0.2036847E+002  0.2310728E+03  0.7546771E-02  0.1125887E+00
         21   -1    0    0  504  501  0.00000000000E+00  0.00000000000E+00  0.63354332939E+03  0.63354332939E+03  0.00000000000E+00 0. -1.
         21   -1    0    0  505  502 -0.00000000000E+00 -0.00000000000E+00 -0.41725838616E+03  0.41725838616E+03  0.00000000000E+00 0. -1.
         21    1    1    2  503  501  0.68033304543E+02 -0.12971693940E+02  0.10605537583E+03  0.12666703641E+03  0.00000000000E+00 0.  1.
         21    1    1    2  504  506  0.43078603924E+02 -0.89435913059E+02  0.33186895468E+03  0.34639796729E+03  0.00000000000E+00 0. -1.
         21    1    1    2  505  503 -0.25251223463E+03 -0.38894803971E+02 -0.27036339635E+03  0.37198333363E+03  0.00000000000E+00 0. -1.
         21    1    1    2  506  502  0.14140032617E+03  0.14130241097E+03  0.48724009069E+02  0.20575337821E+03  0.00000000000E+00 0. -1.
<scales pt_clust_3="69.25890" pt_clust_4="131.46178" pt_clust_5="231.07281" pt_clust_6="14000.00000"></scales>
<clustering>
<clus scale="   69.259">  1  3  2 -1</clus>
<clus scale="  131.462">  1  4  2 -1</clus>
<clus scale="  231.073">  2  5  1 -1</clus>
<clus scale="   69.259">  1  3  2 -1</clus>
</clustering>
</event>
<event>
 6    0  0.2036847E+002  0.9742646E+02  0.7546771E-02  0.1285803E+00
         21   -1    0    0  503  501  0.00000000000E+00  0.00000000000E+00  0.49751202531E+03  0.49751202531E+03  0.00000000000E+00 0. -1.
         21   -1    0    0  506  502 -0.00000000000E+00 -0.00000000000E+00 -0.19907627655E+04  0.19907627655E+04  0.00000000000E+00 0. -1.
         21    1    1    2  503  504  0.84215552639E+02 -0.48476954486E+02  0.44045168896E+03  0.45104319608E+03  0.00000000000E+00 0. -1.
         21    1    1    2  504  505 -0.60798312226E+02  0.17804013533E+02 -0.81809882738E+03  0.82054805406E+03  0.00000000000E+00 0. -1.
         21    1    1    2  505  502 -0.31294830524E+01  0.56560562204E+02 -0.11600272148E+04  0.11614095014E+04  0.00000000000E+00 0. -1.
         21    1    1    2  506  501 -0.20287757361E+02 -0.25887621250E+02  0.44423612982E+02  0.55274039324E+02  0.00000000000E+00 0.  1.
<scales pt_clust_3="14000.00000" pt_clust_4="97.42646" pt_clust_5="56.60891" pt_clust_6="32.89015"></scales>
<clustering>
<clus scale="   32.890">  1  6  2 -1</clus>
<clus scale="   56.609">  2  5  1 -1</clus>
<clus scale="   97.426">  2  4  1 -1</clus>
<clus scale="   32.890">  1  3  2 -1</clus>
</clustering>
</event>
<event>
 6    0  0.2036847E+002  0.1414627E+03  0.7546771E-02  0.1211374E+00
         21   -1    0    0  503  501  0.00000000000E+00  0.00000000000E+00  0.10145942808E+03  0.10145942808E+03  0.00000000000E+00 0.  1.
         21   -1    0    0  505  502 -0.00000000000E+00 -0.00000000000E+00 -0.87185720647E+03  0.87185720647E+03  0.00000000000E+00 0.  1.
         21    1    1    2  503  502 -0.47732331264E+02 -0.82692278698E+02  0.57778483976E+02  0.11160081368E+03  0.00000000000E+00 0.  1.
         21    1    1    2  504  501 -0.25815697455E+02 -0.21825522301E+02 -0.16795334595E+02  0.37747674404E+02  0.00000000000E+00 0. -1.
         21    1    1    2  505  506  0.48707642882E+02  0.17466803017E+02 -0.24570631683E+03  0.25109583392E+03  0.00000000000E+00 0.  1.
         21    1    1    2  506  504  0.24840385837E+02  0.87050997982E+02 -0.56567461094E+03  0.57287231254E+03  0.00000000000E+00 0.  1.
<scales pt_clust_3="125.54077" pt_clust_4="33.80538" pt_clust_5="49.14835" pt_clust_6="49.14835"></scales>
<clustering>
<clus scale="   33.805">  1  4  2 -1</clus>
<clus scale="   49.148">  5  6 -1 -1</clus>
<clus scale="  125.541">  1  3  2 -1</clus>
<clus scale="   33.805">  1  3  2 -1</clus>
</clustering>
</event>
<event>
 6    0  0.2036847E+002  0.8076067E+02  0.7546771E-02  0.1326907E+00
         21   -1    0    0  504  501  0.00000000000E+00  0.00000000000E+00  0.10360782885E+04  0.10360782885E+04  0.00000000000E+00 0. -1.
         21   -1    0    0  503  502 -0.00000000000E+00 -0.00000000000E+00 -0.23887241499E+02  0.23887241499E+02  0.00000000000E+00 0. -1.
         21    1    1    2  503  506 -0.86472325947E+01  0.54515830155E+02  0.62143369627E+02  0.83117680175E+02  0.00000000000E+00 0. -1.
         21    1    1    2  504  502 -0.11847967360E+02 -0.33274899994E+02  0.40233973615E+03  0.40388718299E+03  0.00000000000E+00 0. -1.
         21    1    1    2  505  501  0.66772713501E+02  0.49467298978E+02  0.24700399844E+03  0.26060810460E+03  0.00000000000E+00 0. -1.
         21    1    1    2  506  505 -0.46277513546E+02 -0.70708229139E+02  0.30070394276E+03  0.31235256221E+03  0.00000000000E+00 0. -1.
<scales pt_clust_3="51.67578" pt_clust_4="35.32129" pt_clust_5="14000.00000" pt_clust_6="80.76067"></scales>
<clustering>
<clus scale="   35.321">  1  4  2 -1</clus>
<clus scale="   51.676">  2  3  1 -1</clus>
<clus scale="   80.761">  2  6  1 -1</clus>
<clus scale="   35.321">  1  3  2 -1</clus>
</clustering>
</event>
<event>
 6    0  0.2036847E+002  0.1212968E+03  0.7546771E-02  0.1240973E+00
         21   -1    0    0  505  501  0.00000000000E+00  0.00000000000E+00  0.87935483420E+03  0.87935483420E+03  0.00000000000E+00 0. -1.
         21   -1    0    0  506  502 -0.00000000000E+00 -0.00000000000E+00 -0.99717154288E+02  0.99717154288E+02  0.00000000000E+00 0. -1.
         21    1    1    2  503  504  0.69340835512E+02 -0.66647029110E+02  0.22760921444E+03  0.24709498671E+03  0.00000000000E+00 0. -1.
         21    1    1    2  504  502 -0.16996577875E+02 -0.24839147079E+02  0.86011981934E+01  0.31302515832E+02  0.00000000000E+00 0. -1.
         21    1    1    2  505  503 -0.93767454896E+02  0.10784832786E+03  0.60669666719E+03  0.62330124611E+03  0.00000000000E+00 0. -1.
         21    1    1    2  506  501  0.41423197259E+02 -0.16362151675E+02 -0.63269399910E+02  0.77373239841E+02  0.00000000000E+00 0. -1.
<scales pt_clust_3="14000.00000" pt_clust_4="30.09762" pt_clust_5="121.29675" pt_clust_6="45.64612"></scales>
<clustering>
<clus scale="   30.098">  2  4  1 -1</clus>
<clus scale="   45.646">  2  6  1 -1</clus>
<clus scale="  121.297">  1  5  2 -1</clus>
<clus scale="  121.297">  1  3  2 -1</clus>
</clustering>
</event>
<event>
 6    0  0.2036847E+002  0.6118349E+02  0.7546771E-02  0.1392931E+00
         21   -1    0    0  504  501  0.00000000000E+00  0.00000000000E+00  0.92627116139E+03  0.92627116139E+03  0.00000000000E+00 0. -1.
         21   -1    0    0  506  502 -0.00000000000E+00 -0.00000000000E+00 -0.88173589517E+02  0.88173589517E+02  0.00000000000E+00 0. -1.
         21    1    1    2  503  501  0.53030109585E+02 -0.19177822068E+02  0.50571054872E+03  0.50884490807E+03  0.00000000000E+00 0. -1.
         21    1    1    2  504  505 -0.99559679795E+02  0.19856171431E+01  0.33464055538E+03  0.34914234034E+03  0.00000000000E+00 0. -1.
         21    1    1    2  505  502 -0.49521919994E+02 -0.47126673348E+01  0.22924073602E+02  0.54773560627E+02  0.00000000000E+00 0. -1.
         21    1    1    2  506  503  0.96051490204E+02  0.21904872259E+02 -0.25177605824E+02  0.10168394187E+03  0.00000000000E+00 0. -1.
<scales pt_clust_3="55.41784" pt_clust_4="14000.00000" pt_clust_5="49.74565" pt_clust_6="61.18349"></scales>
<clustering>
<clus scale="   49.746">  2  5  1 -1</clus>
<clus scale="   55.418">  1  3  2 -1</clus>
<clus scale="   61.183">  2  6  1 -1</clus>
<clus scale="   55.418">  1  3  2 -1</clus>
</clustering>
</event>
<event>
 6    0  0.2036847E+002  0.1019247E+03  0.7546771E-02  0.1276300E+00
         21   -1    0    0  504  501  0.00000000000E+00  0.00000000000E+00  0.51091592555E+03  0.51091592555E+03  0.00000000000E+00 0.  1.
         21   -1    0    0  506  502 -0.00000000000E+00 -0.00000000000E+00 -0.42523626177E+03  0.42523626177E+03  0.00000000000E+00 0. -1.
         21    1    1    2  503  501 -0.74817323836E+02  0.59385729304E+00  0.26732864484E+03  0.27760149309E+03  0.00000000000E+00 0.  1.
         21    1    1    2  504  502 -0.12615656263E+02  0.54489977847E+02  0.20687739155E+03  0.21430484736E+03  0.00000000000E+00 0.  1.
         21    1    1    2  505  503  0.11905258699E+03 -0.99619939576E+02 -0.32698292205E+03  0.36196060856E+03  0.00000000000E+00 0. -1.
         21    1    1    2  506  505 -0.31619606893E+02  0.44536104436E+02 -0.61543450556E+02  0.82285238316E+02  0.00000000000E+00 0.  1.
<scales pt_clust_3="101.92474" pt_clust_4="56.46276" pt_clust_5="14000.00000" pt_clust_6="54.61927"></scales>
<clustering>
<clus scale="   54.619">  2  6  1 -1</clus>
<clus scale="   56.463">  1  4  2 -1</clus>
<clus scale="  101.925">  1  3  2 -1</clus>
<clus scale="   56.463">  1  3  2 -1</clus>
</clustering>
</event>
<event>
 6    0  0.2036847E+002  0.1863142E+03  0.7546771E-02  0.1161828E+00
         21   -1    0    0  504  501  0.00000000000E+00  0.00000000000E+00  0.62433921962E+03  0.62433921962E+03  0.00000000000E+00 0. -1.
         21   -1    0    0  503  502 -0.00000000000E+00 -0.00000000000E+00 -0.11845634079E+03  0.11845634079E+03  0.00000000000E+00 0. -1.
         21    1    1    2  503  505 -0.10761142590E+03 -0.50715687572E+02  0.20429924972E+03  0.23641168200E+03  0.00000000000E+00 0. -1.
         21    1    1    2  504  506  0.72413906475E+02  0.44235158760E+01  0.52694966616E+02  0.89666609450E+02  0.00000000000E+00 0. -1.
         21    1    1    2  505  501 -0.85008899330E+02  0.43798724406E+02  0.27717040936E+03  0.29320347380E+03  0.00000000000E+00 0. -1.
         21    1    1    2  506  502  0.12020641875E+03  0.24934472895E+01 -0.28281746873E+02  0.12351379516E+03  0.00000000000E+00 0. -1.
<scales pt_clust_3="164.35796" pt_clust_4="68.16078" pt_clust_5="95.62866" pt_clust_6="68.16078"></scales>
<clustering>
<clus scale="   68.161">  4  6 -1 -1</clus>
<clus scale="   95.629">  1  5  2 -1</clus>
<clus scale="  164.358">  1  3  2 -1</clus>
<clus scale="   95.629">  1  3  2 -1</clus>
</clustering>
</event>
<event>
 6    0  0.2036847E+002  0.1442426E+03  0.7546771E-02  0.1207732E+00
         21   -1    0    0  502  501  0.00000000000E+00  0.00000000000E+00  0.65322163784E+03  0.65322163784E+03  0.00000000000E+00 0. -1.
         21   -1    0    0  503  502 -0.00000000000E+00 -0.00000000000E+00 -0.15126678612E+03  0.15126678612E+03  0.00000000000E+00 0.  1.
         21    1    1    2  503  504  0.19935470480E+02  0.52708071798E+02 -0.45742381488E+02  0.72580502065E+02  0.00000000000E+00 0.  1.
         21    1    1    2  504  506 -0.45940345385E+02  0.74762424281E+02 -0.61257221737E+02  0.10701580553E+03  0.00000000000E+00 0.  1.
         21    1    1    2  505  501 -0.13890571972E+02 -0.61839895762E+02  0.26748012986E+03  0.27488677773E+03  0.00000000000E+00 0.  1.
         21    1    1    2  506  505  0.39895446877E+02 -0.65630600317E+02  0.34147432508E+03  0.35000533863E+03  0.00000000000E+00 0. -1.
<scales pt_clust_3="49.92313" pt_clust_4="49.92313" pt_clust_5="47.54787" pt_clust_6="140.23063"></scales>
<clustering>
<clus scale="   47.548">  5  6 -1 -1</clus>
<clus scale="   49.923">  3  4 -1 -1</clus>
<clus scale="  140.231">  1  5  2 -1</clus>
<clus scale="  140.231">  1  3  2 -1</clus>
</clustering>
</event>
<event>
 6    0  0.2036847E+002  0.1664799E+03  0.7546771E-02  0.1181569E+00
         21   -1    0    0  505  501  0.00000000000E+00  0.00000000000E+00  0.35565076026E+03  0.35565076026E+03  0.00000000000E+00 0.  1.
         21   -1    0    0  501  502 -0.00000000000E+00 -0.00000000000E+00 -0.67427294222E+03  0.67427294222E+03  0.00000000000E+00 0. -1.
         21    1    1    2  503  506  0.22243311323E+02 -0.87688146340E+02 -0.32655575068E+03  0.33885488665E+03  0.00000000000E+00 0. -1.
         21    1    1    2  504  503 -0.47578134910E+02  0.12178387244E+03  0.28780427652E+03  0.31611120209E+03  0.00000000000E+00 0.  1.
         21    1    1    2  505  504 -0.39482601560E+02  0.67025251730E+01  0.33594115374E+02  0.52272021746E+02  0.00000000000E+00 0.  1.
         21    1    1    2  506  502  0.64817425148E+02 -0.40798251273E+02 -0.31346482318E+03  0.32268559199E+03  0.00000000000E+00 0.  1.
<scales pt_clust_3="57.51165" pt_clust_4="154.25439" pt_clust_5="40.04747" pt_clust_6="57.51165"></scales>
<clustering>
<clus scale="   40.047">  1  5  2 -1</clus>
<clus scale="   57.512">  3  6 -1 -1</clus>
<clus scale="  154.254">  1  4  2 -1</clus>
<clus scale="   40.047">  1  3  2 -1</clus>
</clustering>
</event>
<event>
 6    0  0.2036847E+002  0.2035977E+03  0.7546771E-02  0.1146739E+00
         21   -1    0    0  503  501  0.00000000000E+00  0.00000000000E+00  0.19630604862E+03  0.19630604862E+03  0.00000000000E+00 0.  1.
         21   -1    0    0  504  502 -0.00000000000E+00 -0.00000000000E+00 -0.48924387345E+03  0.48924387345E+03  0.00000000000E+00 0. -1.
         21    1    1    2  503  506  0.47324868767E+02 -0.13507691615E+03  0.42161955068E+02  0.14920806592E+03  0.00000000000E+00 0.  1.
         21    1    1    2  504  501 -0.11365322301E+03 -0.10392162435E+03 -0.83197840392E+02  0.17503896639E+03  0.00000000000E+00 0. -1.
         21    1    1    2  505  502  0.21968057887E+02  0.13883821930E+03 -0.18712545372E+03  0.23403970205E+03  0.00000000000E+00 0. -1.
         21    1    1    2  506  505  0.44360296360E+02  0.10016032120E+03 -0.64776485789E+02  0.12726318771E+03  0.00000000000E+00 0. -1.
<scales pt_clust_3="143.12727" pt_clust_4="189.43760" pt_clust_5="65.85747" pt_clust_6="65.85747"></scales>
<clustering>
<clus scale="   65.857">  5  6 -1 -1</clus>
<clus scale="  143.127">  1  3  2 -1</clus>
<clus scale="  189.438">  2  4  1 -1</clus>
<clus scale="  143.127">  1  3  2 -1</clus>
</clustering>
</event>
<event>
 6    0  0.2036847E+002  0.9790803E+02  0.7546771E-02  0.1284758E+00
         21   -1    0    0  504  501  0.00000000000E+00  0.00000000000E+00  0.54950870286E+03  0.54950870286E+03  0.00000000000E+00 0. -1.
         21   -1    0    0  506  502 -0.00000000000E+00 -0.00000000000E+00 -0.17931311062E+03  0.17931311062E+03  0.00000000000E+00 0.  1.
         21    1    1    2  503  501  0.74104765126E+02  0.18835259412E+02  0.18265899880E+03  0.19801664843E+03  0.00000000000E+00 0. -1.
         21    1    1    2  504  505 -0.47284755519E+02 -0.68004274387E+01  0.30677651117E+02  0.56773340538E+02  0.00000000000E+00 0.  1.
         21    1    1    2  505  502  0.38057561119E+02 -0.85932668273E+02  0.29208396959E+03  0.30683195193E+03  0.00000000000E+00 0. -1.
         21    1    1    2  506  503 -0.64877570726E+02  0.73897836300E+02 -0.13522502727E+03  0.16719987259E+03  0.00000000000E+00 0.  1.
<scales pt_clust_3="58.61549" pt_clust_4="47.77127" pt_clust_5="14000.00000" pt_clust_6="97.90803"></scales>
<clustering>
<clus scale="   47.771">  1  4  2 -1</clus>
<clus scale="   58.615">  1  3  2 -1</clus>
<clus scale="   97.908">  2  6  1 -1</clus>
<clus scale="   47.771">  1  3  2 -1</clus>
</clustering>
</event>
<event>
 6    0  0.3377643E+002  0.1123923E+03  0.7546771E-02  0.1256203E+00
         21   -1    0    0  505  501  0.00000000000E+00  0.00000000000E+00  0.80495807183E+03  0.80495807183E+03  0.00000000000E+00 0. -1.
         21   -1    0    0  506  502 -0.00000000000E+00 -0.00000000000E+00 -0.21045259773E+04  0.21045259773E+04  0.00000000000E+00 0.  1.
         21    1    1    2  503  504  0.56300112350E+02 -0.27684435011E+02  0.11134117661E+03  0.12780057981E+03  0.00000000000E+00 0.  1.
         21    1    1    2  504  502 -0.65807689376E+02 -0.31715175958E+02 -0.15284346604E+03  0.16940374694E+03  0.00000000000E+00 0.  1.
         21    1    1    2  505  503  0.57718641998E+02  0.42400323923E+00  0.67512551668E+03  0.67758843311E+03  0.00000000000E+00 0. -1.
         21    1    1    2  506  501 -0.48211064971E+02  0.58975607729E+02 -0.19331911327E+04  0.19346912892E+04  0.00000000000E+00 0.  1.
<scales pt_clust_3="14000.00000" pt_clust_4="69.70985" pt_clust_5="57.72020" pt_clust_6="112.39231"></scales>
<clustering>
<clus scale="   57.720">  1  5  2 -1</clus>
<clus scale="   69.710">  2  4  1 -1</clus>
<clus scale="  112.392">  2  6  1 -1</clus>
<clus scale="   57.720">  1  3  2 -1</clus>
</clustering>
</event>
<event>
 6    0  0.2036847E+002  0.1222132E+03  0.7546771E-02  0.1239490E+00
         21   -1    0    0  503  501  0.00000000000E+00  0.00000000000E+00  0.41912283553E+03  0.41912283553E+03  0.00000000000E+00 0.  1.
         21   -1    0    0  506  502 -0.00000000000E+00 -0.00000000000E+00 -0.11052960551E+03  0.11052960551E+03  0.00000000000E+00 0.  1.
         21    1    1    2  503  504 -0.33379236938E+02  0.85591466394E+02  0.31583585411E+03  0.32892606969E+03  0.00000000000E+00 0.  1.
         21    1    1    2  504  505  0.20110860188E+02 -0.60751280406E+02 -0.46692294485E+02  0.79217012899E+02  0.00000000000E+00 0.  1.
         21    1    1    2  505  502 -0.20237563548E+02 -0.52889401552E+02 -0.77859573957E+01  0.57161778379E+02  0.00000000000E+00 0.  1.
         21    1    1    2  506  501  0.33505940299E+02  0.28049215564E+02  0.47235627785E+02  0.64347580073E+02  0.00000000000E+00 0.  1.
<scales pt_clust_3="110.53958" pt_clust_4="48.16914" pt_clust_5="48.16914" pt_clust_6="43.69676"></scales>
<clustering>
<clus scale="   43.697">  1  6  2 -1</clus>
<clus scale="   48.169">  4  5 -1 -1</clus>
<clus scale="  110.540">  1  3  2 -1</clus>
<clus scale="   43.697">  1  3  2 -1</clus>
</clustering>
</event>
<event>
 6    0  0.2036847E+002  0.1506436E+03  0.7546771E-02  0.1199684E+00
         21   -1    0    0  502  501  0.00000000000E+00  0.00000000000E+00  0.38079260343E+02  0.38079260343E+02  0.00000000000E+00 0. -1.
         21   -1    0    0  503  502 -0.00000000000E+00 -0.00000000000E+00 -0.63926143968E+03  0.63926143968E+03  0.00000000000E+00 0. -1.
         21    1    1    2  503  506  0.21432706635E+02  0.65826120601E+02 -0.16543369535E+03  0.17933417584E+03  0.00000000000E+00 0. -1.
         21    1    1    2  504  501 -0.16133779240E+02 -0.10152510967E+03 -0.14885345205E+03  0.18090051661E+03  0.00000000000E+00 0. -1.
         21    1    1    2  505  504 -0.39498772748E+02 -0.21480535796E+02 -0.36244678241E+02  0.57751564199E+02  0.00000000000E+00 0. -1.
         21    1    1    2  506  505  0.34199845352E+02  0.57179524861E+02 -0.25065035369E+03  0.25935444336E+03  0.00000000000E+00 0. -1.
<scales pt_clust_3="139.00277" pt_clust_4="44.20692" pt_clust_5="44.20692" pt_clust_6="32.48401"></scales>
<clustering>
<clus scale="   32.484">  3  6 -1 -1</clus>
<clus scale="   44.207">  4  5 -1 -1</clus>
<clus scale="  139.003">  2  3  1 -1</clus>
<clus scale="  150.644">  1  3  2 -1</clus>
</clustering>
</event>
<event>
 6    0  0.2036847E+002  0.7541258E+02  0.7546771E-02  0.1342598E+00
         21   -1    0    0  506  501  0.00000000000E+00  0.00000000000E+00  0.57439705262E+03  0.57439705262E+03  0.00000000000E+00 0.  1.
         21   -1    0    0  505  502 -0.00000000000E+00 -0.00000000000E+00 -0.79603822085E+02  0.79603822085E+02  0.00000000000E+00 0.  1.
         21    1    1    2  503  502 -0.10952856565E+02 -0.85325349326E+02 -0.43883836668E+01  0.86137321851E+02  0.00000000000E+00 0.  1.
         21    1    1    2  504  501  0.47589651259E+02  0.12896612855E+02  0.41890776736E+03  0.42179949631E+03  0.00000000000E+00 0.  1.
         21    1    1    2  505  504  0.30081583170E+02  0.15533666127E+02  0.28364452863E+02  0.44167166714E+02  0.00000000000E+00 0. -1.
         21    1    1    2  506  503 -0.66718377864E+02  0.56895070344E+02  0.51909393980E+02  0.10189688983E+03  0.00000000000E+00 0.  1.
<scales pt_clust_3="75.41258" pt_clust_4="49.97377" pt_clust_5="33.85552" pt_clust_6="14000.00000"></scales>
<clustering>
<clus scale="   33.856">  2  5  1 -1</clus>
<clus scale="   49.974">  1  4  2 -1</clus>
<clus scale="   75.413">  2  3  1 -1</clus>
<clus scale="   49.974">  1  3  2 -1</clus>
</clustering>
</event>
<event>
 6    0  0.2036847E+002  0.8406281E+02  0.7546771E-02  0.1317902E+00
         21   -1    0    0  506  501  0.00000000000E+00  0.00000000000E+00  0.56830109303E+03  0.56830109303E+03  0.00000000000E+00 0.  1.
         21   -1    0    0  504  502 -0.00000000000E+00 -0.00000000000E+00 -0.81695094211E+03  0.81695094211E+03  0.00000000000E+00 0.  1.
         21    1    1    2  503  502 -0.56567892571E+02  0.29764998782E+02 -0.38005647619E+03  0.38539435221E+03  0.00000000000E+00 0.  1.
         21    1    1    2  504  505  0.33508300694E+02  0.51979643829E+02 -0.42331470652E+03  0.42780840378E+03  0.00000000000E+00 0.  1.
         21    1    1    2  505  501  0.36576631249E+02  0.11680288235E+02  0.90179553281E+02  0.98013422126E+02  0.00000000000E+00 0.  1.
         21    1    1    2  506  503 -0.13517039372E+02 -0.93424930847E+02  0.46454178035E+03  0.47403585703E+03  0.00000000000E+00 0.  1.
<scales pt_clust_3="14000.00000" pt_clust_4="61.98460" pt_clust_5="38.39634" pt_clust_6="84.06281"></scales>
<clustering>
<clus scale="   38.396">  1  5  2 -1</clus>
<clus scale="   61.985">  2  4  1 -1</clus>
<clus scale="   84.063">  1  6  2 -1</clus>
<clus scale="   38.396">  1  3  2 -1</clus>
</clustering>
</event>
<event>
 6    0  0.2036847E+002  0.1096734E+03  0.7546771E-02  0.1261176E+00
         21   -1    0    0  505  501  0.00000000000E+00  0.00000000000E+00  0.14430676721E+04  0.14430676721E+04  0.00000000000E+00 0. -1.
         21   -1    0    0  503  502 -0.00000000000E+00 -0.00000000000E+00 -0.27013289915E+02  0.27013289915E+02  0.00000000000E+00 0. -1.
         21    1    1    2  503  506 -0.39687405051E+02 -0.51770964663E+02  0.47741393327E+02  0.80836647250E+02  0.00000000000E+00 0. -1.
         21    1    1    2  504  502  0.61502497239E+02  0.49256445815E+02  0.79872238832E+03  0.80259965626E+03  0.00000000000E+00 0. -1.
         21    1    1    2  505  504  0.47346495260E+02  0.23765701270E+01  0.40974419871E+03  0.41247745038E+03  0.00000000000E+00 0. -1.
         21    1    1    2  506  501 -0.69161587448E+02  0.13794872104E+00  0.15984640184E+03  0.17416720814E+03  0.00000000000E+00 0.  1.
<scales pt_clust_3="65.23284" pt_clust_4="30.10894" pt_clust_5="30.10894" pt_clust_6="102.57407"></scales>
<clustering>
<clus scale="   30.109">  4  5 -1 -1</clus>
<clus scale="   65.233">  2  3  1 -1</clus>
<clus scale="  102.574">  2  6  1 -1</clus>
<clus scale="  109.673">  1  3  2 -1</clus>
</clustering>
</event>
<event>
 6    0  0.2036847E+002  0.1985799E+03  0.7546771E-02  0.1150943E+00
         21   -1    0    0  503  501  0.00000000000E+00  0.00000000000E+00  0.23586424014E+03  0.23586424014E+03  0.00000000000E+00 0. -1.
         21   -1    0    0  506  502 -0.00000000000E+00 -0.00000000000E+00 -0.17817600839E+03  0.17817600839E+03  0.00000000000E+00 0. -1.
         21    1    1    2  503  505  0.63922265846E+02 -0.74504531256E+02  0.65340293595E+02  0.11792512546E+03  0.00000000000E+00 0. -1.
         21    1    1    2  504  501 -0.64490454825E+02  0.71012201262E+02  0.12378708188E+02  0.96721165771E+02  0.00000000000E+00 0. -1.
         21    1    1    2  505  502  0.46505834378E+02 -0.79046556170E+02  0.24549822350E+02  0.94941268429E+02  0.00000000000E+00 0.  1.
         21    1    1    2  506  504 -0.45937645399E+02  0.82538886163E+02 -0.44580592386E+02  0.10445268887E+03  0.00000000000E+00 0. -1.
<scales pt_clust_3="192.95561" pt_clust_4="60.04794" pt_clust_5="36.92671" pt_clust_6="60.04794"></scales>
<clustering>
<clus scale="   36.927">  3  5 -1 -1</clus>
<clus scale="   60.048">  4  6 -1 -1</clus>
<clus scale="  192.956">  1  3  2 -1</clus>
<clus scale="  192.956">  1  3  2 -1</clus>
</clustering>
</event>
<event>
 6    0  0.2036847E+002  0.1418335E+03  0.7546771E-02  0.1210883E+00
         21   -1    0    0  506  501  0.00000000000E+00  0.00000000000E+00  0.54621903208E+03  0.54621903208E+03  0.00000000000E+00 0.  1.
         21   -1    0    0  504  502 -0.00000000000E+00 -0.00000000000E+00 -0.46959544935E+02  0.46959544935E+02  0.00000000000E+00 0. -1.
         21    1    1    2  503  501  0.65638757572E+02  0.32354924078E+02  0.34522885888E+02  0.80914258680E+02  0.00000000000E+00 0. -1.
         21    1    1    2  504  503  0.54390257066E+02  0.25099639842E+02  0.66386282696E+02  0.89417171248E+02  0.00000000000E+00 0.  1.
         21    1    1    2  505  502 -0.52991018861E+02 -0.21091171649E+02  0.10222968331E+03  0.11706320409E+03  0.00000000000E+00 0.  1.
         21    1    1    2  506  505 -0.67037995777E+02 -0.36363392272E+02  0.29612063525E+03  0.30578394300E+03  0.00000000000E+00 0.  1.
<scales pt_clust_3="137.22294" pt_clust_4="30.30754" pt_clust_5="42.44231" pt_clust_6="42.44231"></scales>
<clustering>
<clus scale="   30.308">  3  4 -1 -1</clus>
<clus scale="   42.442">  5  6 -1 -1</clus>
<clus scale="  137.223">  2  3  1 -1</clus>
<clus scale="  141.833">  1  3  2 -1</clus>
</clustering>
</event>
<event>
 6    0  0.2036847E+002  0.9100593E+02  0.7546771E-02  0.1300434E+00
         21   -1    0    0  503  501  0.00000000000E+00  0.00000000000E+00  0.60182259419E+03  0.60182259419E+03  0.00000000000E+00 0.  1.
         21   -1    0    0  505  502 -0.00000000000E+00 -0.00000000000E+00 -0.28892973663E+03  0.28892973663E+03  0.00000000000E+00 0. -1.
         21    1    1    2  503  504  0.11536596208E+02 -0.12834180106E+03  0.10741609369E+03  0.16775854117E+03  0.00000000000E+00 0. -1.
         21    1    1    2  504  502 -0.23091054341E+02  0.25204977760E+02 -0.13986744617E+02  0.36933950769E+02  0.00000000000E+00 0. -1.
         21    1    1    2  505  506  0.70321164754E+01  0.62625248935E+02 -0.22809927557E+03  0.23664456888E+03  0.00000000000E+00 0. -1.
         21    1    1    2  506  501  0.45223416574E+01  0.40511574361E+02  0.44756278406E+03  0.44941527000E+03  0.00000000000E+00 0.  1.
<scales pt_clust_3="91.00593" pt_clust_4="34.18315" pt_clust_5="14000.00000" pt_clust_6="40.84237"></scales>
<clustering>
<clus scale="   34.183">  2  4  1 -1</clus>
<clus scale="   40.842">  1  6  2 -1</clus>
<clus scale="   91.006">  1  3  2 -1</clus>
<clus scale="   40.842">  1  3  2 -1</clus>
</clustering>
</event>
<event>
 6    0  0.2036847E+002  0.7676332E+02  0.7546771E-02  0.1338496E+00
         21   -1    0    0  505  501  0.00000000000E+00  0.00000000000E+00  0.10539317341E+03  0.10539317341E+03  0.00000000000E+00 0. -1.
         21   -1    0    0  506  502 -0.00000000000E+00 -0.00000000000E+00 -0.21314556209E+03  0.21314556209E+03  0.00000000000E+00 0. -1.
         21    1    1    2  503  502 -0.34498629084E+02  0.34060163831E+02 -0.19421787422E+02  0.52225051417E+02  0.00000000000E+00 0. -1.
         21    1    1    2  504  501  0.84010666549E+02 -0.84675466881E+01 -0.99072145337E+02  0.13017212229E+03  0.00000000000E+00 0. -1.
         21    1    1    2  505  503 -0.73597374438E+02  0.15606054951E+02  0.34575427092E+02  0.82798445842E+02  0.00000000000E+00 0. -1.
         21    1    1    2  506  504  0.24085336973E+02 -0.41198672094E+02 -0.23833883019E+02  0.53343115950E+02  0.00000000000E+00 0. -1.
<scales pt_clust_3="39.10455" pt_clust_4="76.76332" pt_clust_5="14000.00000" pt_clust_6="47.72247"></scales>
<clustering>
<clus scale="   47.722">  2  6  1 -1</clus>
<clus scale="   39.105">  2  3  1 -1</clus>
<clus scale="   76.763">  2  4  1 -1</clus>
<clus scale="   76.763">  1  3  2 -1</clus>
</clustering>
</event>
<event>
 6    0  0.2036847E+002  0.2209872E+03  0.7546771E-02  0.1133149E+00
         21   -1    0    0  506  501  0.00000000000E+00  0.00000000000E+00  0.79152737327E+02  0.79152737327E+02  0.00000000000E+00 0.  1.
         21   -1    0    0  504  502 -0.00000000000E+00 -0.00000000000E+00 -0.16622612495E+04  0.16622612495E+04  0.00000000000E+00 0.  1.
         21    1    1    2  503  502  0.27082578105E+01 -0.43249405633E+02 -0.58039950563E+02  0.72432600459E+02  0.00000000000E+00 0.  1.
         21    1    1    2  504  505 -0.44707162869E+02  0.63232128933E+02 -0.53951436790E+03  0.54504383834E+03  0.00000000000E+00 0.  1.
         21    1    1    2  505  501  0.29969315937E+02  0.14031293938E+03 -0.94808742522E+03  0.95888249891E+03  0.00000000000E+00 0.  1.
         21    1    1    2  506  503  0.12029589121E+02 -0.16029566268E+03 -0.37466768444E+02  0.16505504907E+03  0.00000000000E+00 0.  1.
<scales pt_clust_3="38.96181" pt_clust_4="62.28475" pt_clust_5="62.28475" pt_clust_6="217.43700"></scales>
<clustering>
<clus scale="   38.962">  3  6 -1 -1</clus>
<clus scale="   62.285">  4  5 -1 -1</clus>
<clus scale="  217.437">  1  3  2 -1</clus>
<clus scale="  217.437">  1  3  2 -1</clus>
</clustering>
</event>
<event>
 6    0  0.2036847E+002  0.9280723E+02  0.7546771E-02  0.1296193E+00
         21   -1    0    0  503  501  0.00000000000E+00  0.00000000000E+00  0.21412108736E+04  0.21412108736E+04  0.00000000000E+00 0. -1.
         21   -1    0    0  504  502 -0.00000000000E+00 -0.00000000000E+00 -0.12389357941E+03  0.12389357941E+03  0.00000000000E+00 0. -1.
         21    1    1    2  503  502 -0.10759286048E+03  0.66620395187E+02  0.19134053300E+04  0.19175855802E+04  0.00000000000E+00 0. -1.
         21    1    1    2  504  505  0.81146557305E+01 -0.30951598855E+02 -0.12851247406E+00  0.31997900318E+02  0.00000000000E+00 0. -1.
         21    1    1    2  505  506  0.77294289746E+02 -0.55217772115E+01 -0.89505072078E+02  0.11838942173E+03  0.00000000000E+00 0. -1.
         21    1    1    2  506  501  0.22183915001E+02 -0.30147019121E+02  0.19354554872E+03  0.19713155068E+03  0.00000000000E+00 0. -1.
<scales pt_clust_3="14000.00000" pt_clust_4="31.99764" pt_clust_5="92.80723" pt_clust_6="37.92452"></scales>
<clustering>
<clus scale="   31.998">  2  4  1 -1</clus>
<clus scale="   37.925">  1  6  2 -1</clus>
<clus scale="   92.807">  2  5  1 -1</clus>
<clus scale="   37.925">  1  3  2 -1</clus>
</clustering>
</event>
<event>
 6    0  0.2036847E+002  0.1133926E+03  0.7546771E-02  0.1254413E+00
         21   -1    0    0  505  501  0.00000000000E+00  0.00000000000E+00  0.17762555052E+03  0.17762555052E+03  0.00000000000E+00 0. -1.
         21   -1    0    0  504  502 -0.00000000000E+00 -0.00000000000E+00 -0.96240964084E+03  0.96240964084E+03  0.00000000000E+00 0.  1.
         21    1    1    2  503  502  0.53445244938E+02  0.21141995654E+02 -0.10271405821E+03  0.11770112973E+03  0.00000000000E+00 0.  1.
         21    1    1    2  504  506 -0.59221088142E+02 -0.13144846945E+03  0.81640727749E+02  0.16568357139E+03  0.00000000000E+00 0. -1.
         21    1    1    2  505  503  0.25424229880E+02  0.62165482370E+02 -0.79375954869E+03  0.79659598279E+03  0.00000000000E+00 0.  1.
         21    1    1    2  506  501 -0.19648386675E+02  0.48140991422E+02  0.30048788833E+02  0.60054507444E+02  0.00000000000E+00 0.  1.
<scales pt_clust_3="57.51837" pt_clust_4="14000.00000" pt_clust_5="113.39257" pt_clust_6="51.99629"></scales>
<clustering>
<clus scale="   51.996">  1  6  2 -1</clus>
<clus scale="   57.518">  2  3  1 -1</clus>
<clus scale="  113.393">  2  5  1 -1</clus>
<clus scale="   51.996">  1  3  2 -1</clus>
</clustering>
</event>
<event>
 6    0  0.2036847E+002  0.1140252E+03  0.7546771E-02  0.1253292E+00
         21   -1    0    0  504  501  0.00000000000E+00  0.00000000000E+00  0.22605068465E+03  0.22605068465E+03  0.00000000000E+00 0. -1.
         21   -1    0    0  506  502 -0.00000000000E+00 -0.00000000000E+00 -0.86435277760E+03  0.86435277760E+03  0.00000000000E+00 0.  1.
         21    1    1    2  503  505 -0.42521803418E+02  0.28852953725E+02 -0.26633406778E+03  0.27124607346E+03  0.00000000000E+00 0.  1.
         21    1    1    2  504  502  0.59685857043E+02 -0.92602745117E+02 -0.19053252699E+01  0.11018756826E+03  0.00000000000E+00 0. -1.
         21    1    1    2  505  501  0.22663322439E+02  0.20986217239E+02  0.16644613362E+03  0.16928781083E+03  0.00000000000E+00 0. -1.
         21    1    1    2  506  503 -0.39827376064E+02  0.42763574153E+02 -0.53650883352E+03  0.53968200971E+03  0.00000000000E+00 0.  1.
<scales pt_clust_3="31.53749" pt_clust_4="108.92396" pt_clust_5="30.88766" pt_clust_6="31.53749"></scales>
<clustering>
<clus scale="   30.888">  1  5  2 -1</clus>
<clus scale="   31.537">  3  6 -1 -1</clus>
<clus scale="  108.924">  1  4  2 -1</clus>
<clus scale="   30.888">  1  3  2 -1</clus>
</clustering>
</event>
<event>
 6    0  0.2036847E+002  0.1394472E+03  0.7546771E-02  0.1214075E+00
         21   -1    0    0  504  501  0.00000000000E+00  0.00000000000E+00  0.51174802240E+03  0.51174802240E+03  0.00000000000E+00 0. -1.
         21   -1    0    0  506  502 -0.00000000000E+00 -0.00000000000E+00 -0.12785300113E+03  0.12785300113E+03  0.00000000000E+00 0. -1.
         21    1    1    2  503  502  0.44677039996E+01 -0.65650145231E+02  0.35309486108E+02  0.74677049734E+02  0.00000000000E+00 0. -1.
         21    1    1    2  504  503  0.22282927451E+02  0.68846955352E+02  0.25844712084E+03  0.26838656149E+03  0.00000000000E+00 0. -1.
         21    1    1    2  505  501 -0.15382226797E+03 -0.14601105682E+01  0.64965010821E+02  0.16698465402E+03  0.00000000000E+00 0. -1.
         21    1    1    2  506  505  0.12707163652E+03 -0.17366995529E+01  0.25173403493E+02  0.12955275828E+03  0.00000000000E+00 0. -1.
<scales pt_clust_3="65.80199" pt_clust_4="69.56582" pt_clust_5="139.44723" pt_clust_6="14000.00000"></scales>
<clustering>
<clus scale="   65.802">  2  3  1 -1</clus>
<clus scale="   69.566">  1  4  2 -1</clus>
<clus scale="  139.447">  1  5  2 -1</clus>
<clus scale="   69.566">  1  3  2 -1</clus>
</clustering>
</event>
<event>
 6    0  0.2036847E+002  0.1559702E+03  0.7546771E-02  0.1193323E+00
         21   -1    0    0  502  501  0.00000000000E+00  0.00000000000E+00  0.39717115915E+02  0.39717115915E+02  0.00000000000E+00 0.  1.
         21   -1    0    0  503  502 -0.00000000000E+00 -0.00000000000E+00 -0.10477321038E+04  0.10477321038E+04  0.00000000000E+00 0.  1.
         21    1    1    2  503  505 -0.76052859314E+02  0.41263214256E+02 -0.42019558568E+03  0.42901167873E+03  0.00000000000E+00 0.  1.
         21    1    1    2  504  506  0.10442306053E+03 -0.72700364574E+02 -0.22889536280E+03  0.26188280908E+03  0.00000000000E+00 0.  1.
         21    1    1    2  505  504 -0.83180880314E+02  0.13292938019E+02 -0.30884366645E+03  0.32012524324E+03  0.00000000000E+00 0. -1.
         21    1    1    2  506  501  0.54810679101E+02  0.18144212298E+02 -0.50080372958E+02  0.76429488675E+02  0.00000000000E+00 0.  1.
<scales pt_clust_3="36.60231" pt_clust_4="151.49444" pt_clust_5="36.60231" pt_clust_6="57.73580"></scales>
<clustering>
<clus scale="   36.602">  3  5 -1 -1</clus>
<clus scale="   57.736">  1  6  2 -1</clus>
<clus scale="  151.494">  1  4  2 -1</clus>
<clus scale="   57.736">  1  3  2 -1</clus>
</clustering>
</event>
<event>
 6    0  0.2036847E+002  0.2411594E+03  0.7546771E-02  0.1119023E+00
         21   -1    0    0  502  501  0.00000000000E+00  0.00000000000E+00  0.59869119980E+03  0.59869119980E+03  0.00000000000E+00 0. -1.
         21   -1    0    0  503  502 -0.00000000000E+00 -0.00000000000E+00 -0.61614669194E+03  0.61614669194E+03  0.00000000000E+00 0. -1.
         21    1    1    2  503  506 -0.93315270036E+02  0.78061462018E+02 -0.38599501615E+03  0.40471407681E+03  0.00000000000E+00 0. -1.
         21    1    1    2  504  501  0.32548026936E+02  0.23316499019E+02  0.71384736564E+02  0.81846281517E+02  0.00000000000E+00 0. -1.
         21    1    1    2  505  504  0.21424761148E+03 -0.11649248434E+03  0.44956584724E+03  0.51145086659E+03  0.00000000000E+00 0. -1.
         21    1    1    2  506  505 -0.15348036838E+03  0.15114523301E+02 -0.15241105980E+03  0.21682666681E+03  0.00000000000E+00 0. -1.
<scales pt_clust_3="121.48336" pt_clust_4="40.03790" pt_clust_5="14000.00000" pt_clust_6="241.15942"></scales>
<clustering>
<clus scale="   40.038">  1  4  2 -1</clus>
<clus scale="  121.483">  2  3  1 -1</clus>
<clus scale="  241.159">  2  6  1 -1</clus>
<clus scale="   40.038">  1  3  2 -1</clus>
</clustering>
</event>
<event>
 6    0  0.2036847E+002  0.1317926E+03  0.7546771E-02  0.1224820E+00
         21   -1    0    0  506  501  0.00000000000E+00  0.00000000000E+00  0.13410899784E+04  0.13410899784E+04  0.00000000000E+00 0.  1.
         21   -1    0    0  505  502 -0.00000000000E+00 -0.00000000000E+00 -0.97143834681E+02  0.97143834681E+02  0.00000000000E+00 0. -1.
         21    1    1    2  503  504 -0.28132356986E+02  0.44375398159E+02  0.73464901223E+01  0.53052581355E+02  0.00000000000E+00 0. -1.
         21    1    1    2  504  502 -0.70763788117E+01  0.68649342968E+02 -0.47538889727E+02  0.83801870286E+02  0.00000000000E+00 0. -1.
         21    1    1    2  505  501  0.26382193325E+02 -0.14537928605E+03  0.12208108884E+04  0.12297196356E+04  0.00000000000E+00 0.  1.
         21    1    1    2  506  503  0.88265424732E+01  0.32354544922E+02  0.63327654884E+02  0.71659725803E+02  0.00000000000E+00 0. -1.
<scales pt_clust_3="48.66853" pt_clust_4="48.66853" pt_clust_5="119.45637" pt_clust_6="33.53691"></scales>
<clustering>
<clus scale="   33.537">  1  6  2 -1</clus>
<clus scale="   48.669">  3  4 -1 -1</clus>
<clus scale="  119.456">  1  5  2 -1</clus>
<clus scale="   33.537">  1  3  2 -1</clus>
</clustering>
</event>
<event>
 6    0  0.2036847E+002  0.1368085E+03  0.7546771E-02  0.1217689E+00
         21   -1    0    0  503  501  0.00000000000E+00  0.00000000000E+00  0.65658673279E+03  0.65658673279E+03  0.00000000000E+00 0. -1.
         21   -1    0    0  506  502 -0.00000000000E+00 -0.00000000000E+00 -0.95719215645E+02  0.95719215645E+02  0.00000000000E+00 0.  1.
         21    1    1    2  503  502  0.49578148950E+02  0.52603163538E+02  0.12788230406E+03  0.14689781945E+03  0.00000000000E+00 0.  1.
         21    1    1    2  504  501  0.80664200844E+02 -0.12664889360E+02  0.45284118337E+03  0.46014372763E+03  0.00000000000E+00 0. -1.
         21    1    1    2  505  504 -0.48860937952E+02 -0.30261833996E+02 -0.25998129617E+02  0.63079890599E+02  0.00000000000E+00 0. -1.
         21    1    1    2  506  505 -0.81381411842E+02 -0.96764401821E+01  0.61421593386E+01  0.82184510763E+02  0.00000000000E+00 0.  1.
<scales pt_clust_3="72.28475" pt_clust_4="128.71366" pt_clust_5="38.82394" pt_clust_6="38.82394"></scales>
<clustering>
<clus scale="   38.824">  5  6 -1 -1</clus>
<clus scale="   72.285">  1  3  2 -1</clus>
<clus scale="  128.714">  1  4  2 -1</clus>
<clus scale="   72.285">  1  3  2 -1</clus>
</clustering>
</event>
<event>
 6    0  0.2036847E+002  0.1057225E+03  0.7546771E-02  0.1268703E+00
         21   -1    0    0  505  501  0.00000000000E+00  0.00000000000E+00  0.23052186336E+03  0.23052186336E+03  0.00000000000E+00 0. -1.
         21   -1    0    0  506  502 -0.00000000000E+00 -0.00000000000E+00 -0.30448000420E+03  0.30448000420E+03  0.00000000000E+00 0. -1.
         21    1    1    2  503  502  0.52920887895E+02 -0.45014419237E-01  0.93553474452E+01  0.53741463766E+02  0.00000000000E+00 0. -1.
         21    1    1    2  504  501 -0.11813465503E+03 -0.14930547964E+02 -0.54602345883E+02  0.13099669522E+03  0.00000000000E+00 0. -1.
         21    1    1    2  505  503  0.10324933173E+03  0.46995414983E+01  0.14168204442E+03  0.17537477556E+03  0.00000000000E+00 0. -1.
         21    1    1    2  506  504 -0.38035564597E+02  0.10276020885E+02 -0.17039318681E+03  0.17488893301E+03  0.00000000000E+00 0. -1.
<scales pt_clust_3="46.54869" pt_clust_4="14000.00000" pt_clust_5="105.72254" pt_clust_6="39.39925"></scales>
<clustering>
<clus scale="   39.399">  2  6  1 -1</clus>
<clus scale="   46.549">  2  3  1 -1</clus>
<clus scale="  105.723">  1  5  2 -1</clus>
<clus scale="  105.723">  1  3  2 -1</clus>
</clustering>
</event>
<event>
 6    0  0.2036847E+002  0.1695799E+03  0.7546771E-02  0.1178287E+00
         21   -1    0    0  504  501  0.00000000000E+00  0.00000000000E+00  0.74942468297E+03  0.74942468297E+03  0.00000000000E+00 0. -1.
         21   -1    0    0  503  502 -0.00000000000E+00 -0.00000000000E+00 -0.45107254770E+03  0.45107254770E+03  0.00000000000E+00 0.  1.
         21    1    1    2  503  506 -0.17628530393E+01  0.15034713487E+03 -0.20336491044E+03  0.25291234729E+03  0.00000000000E+00 0.  1.
         21    1    1    2  504  502 -0.15975985539E+03 -0.17599079841E+03 -0.14558808584E+03  0.27873260171E+03  0.00000000000E+00 0.  1.
         21    1    1    2  505  501  0.93746747227E+02  0.33327371744E+02  0.41341530049E+03  0.42521921053E+03  0.00000000000E+00 0. -1.
         21    1    1    2  506  505  0.67775961198E+02 -0.76837082036E+01  0.23388983105E+03  0.24363307115E+03  0.00000000000E+00 0. -1.
<scales pt_clust_3="150.35747" pt_clust_4="164.75770" pt_clust_5="33.24621" pt_clust_6="33.24621"></scales>
<clustering>
<clus scale="   33.246">  5  6 -1 -1</clus>
<clus scale="  150.357">  2  3  1 -1</clus>
<clus scale="  164.758">  2  4  1 -1</clus>
<clus scale="  169.580">  1  3  2 -1</clus>
</clustering>
</event>
<event>
 6    0  0.2036847E+002  0.1289930E+03  0.7546771E-02  0.1228958E+00
         21   -1    0    0  504  501  0.00000000000E+00  0.00000000000E+00  0.21006078061E+03  0.21006078061E+03  0.00000000000E+00 0.  1.
         21   -1    0    0  503  502 -0.00000000000E+00 -0.00000000000E+00 -0.21254055896E+03  0.21254055896E+03  0.00000000000E+00 0.  1.
         21    1    1    2  503  505  0.88308899588E+01  0.30219874061E+02 -0.23626354219E+02  0.39362799944E+02  0.00000000000E+00 0.  1.
         21    1    1    2  504  502 -0.14600015939E+03  0.21226269967E+02 -0.35588061954E+02  0.15176663412E+03  0.00000000000E+00 0.  1.
         21    1    1    2  505  506  0.16248662758E+02 -0.83224855728E+02 -0.16770262446E+02  0.86438633462E+02  0.00000000000E+00 0. -1.
         21    1    1    2  506  501  0.12092060667E+03  0.31778711700E+02  0.73504900265E+02  0.14503327204E+03  0.00000000000E+00 0.  1.
<scales pt_clust_3="31.48373" pt_clust_4="128.99295" pt_clust_5="76.93488" pt_clust_6="14000.00000"></scales>
<clustering>
<clus scale="   31.484">  2  3  1 -1</clus>
<clus scale="   76.935">  2  5  1 -1</clus>
<clus scale="  128.993">  2  4  1 -1</clus>
<clus scale="  128.993">  1  3  2 -1</clus>
</clustering>
</event>
<event>
 6    0  0.2036847E+002  0.1381434E+03  0.7546771E-02  0.1215849E+00
         21   -1    0    0  503  501  0.00000000000E+00  0.00000000000E+00  0.71638737057E+03  0.71638737057E+03  0.00000000000E+00 0.  1.
         21   -1    0    0  505  502 -0.00000000000E+00 -0.00000000000E+00 -0.19462696898E+03  0.19462696898E+03  0.00000000000E+00 0.  1.
         21    1    1    2  503  506  0.50760551391E+02 -0.79409122227E+02  0.60115039789E+03  0.60849342079E+03  0.00000000000E+00 0.  1.
         21    1    1    2  504  501  0.28996515008E+02 -0.37757309788E+02  0.64513180674E+02  0.80177071571E+02  0.00000000000E+00 0.  1.
         21    1    1    2  505  504  0.19228507214E+02  0.23369365506E+02 -0.11799151077E+02  0.32482036573E+02  0.00000000000E+00 0.  1.
         21    1    1    2  506  502 -0.98985573613E+02  0.93797066510E+02 -0.13210402589E+03  0.18986181061E+03  0.00000000000E+00 0.  1.
<scales pt_clust_3="138.14336" pt_clust_4="47.31600" pt_clust_5="30.26322" pt_clust_6="14000.00000"></scales>
<clustering>
<clus scale="   30.263">  2  5  1 -1</clus>
<clus scale="   47.316">  1  4  2 -1</clus>
<clus scale="  138.143">  1  3  2 -1</clus>
<clus scale="   47.316">  1  3  2 -1</clus>
</clustering>
</event>
<event>
 6    0  0.2036847E+002  0.1536265E+03  0.7546771E-02  0.1196086E+00
         21   -1    0    0  504  501  0.00000000000E+00  0.00000000000E+00  0.20815543953E+03  0.20815543953E+03  0.00000000000E+00 0. -1.
         21   -1    0    0  503  502 -0.00000000000E+00 -0.00000000000E+00 -0.22190278532E+03  0.22190278532E+03  0.00000000000E+00 0. -1.
         21    1    1    2  503  501  0.13462649116E+03 -0.11679083400E+03 -0.11690138773E+02  0.17860865145E+03  0.00000000000E+00 0. -1.
         21    1    1    2  504  505 -0.13456447503E+03  0.50705077661E+02  0.47219304898E+02  0.15135476733E+03  0.00000000000E+00 0. -1.
         21    1    1    2  505  506  0.24156038523E+02  0.35582343523E+02 -0.87533317687E+01  0.43888930094E+02  0.00000000000E+00 0. -1.
         21    1    1    2  506  502 -0.24218054658E+02  0.30503412819E+02 -0.40523180136E+02  0.56205875969E+02  0.00000000000E+00 0.  1.
<scales pt_clust_3="14000.00000" pt_clust_4="153.62647" pt_clust_5="45.12539" pt_clust_6="38.94833"></scales>
<clustering>
<clus scale="   38.948">  2  6  1 -1</clus>
<clus scale="   45.125">  2  5  1 -1</clus>
<clus scale="  153.626">  1  4  2 -1</clus>
<clus scale="  153.626">  1  3  2 -1</clus>
</clustering>
</event>
<event>
 6    0  0.2036847E+002  0.1308631E+03  0.7546771E-02  0.1226181E+00
         21   -1    0    0  505  501  0.00000000000E+00  0.00000000000E+00  0.64467607018E+02  0.64467607018E+02  0.00000000000E+00 0.  1.
         21   -1    0    0  504  502 -0.00000000000E+00 -0.00000000000E+00 -0.16162255960E+04  0.16162255960E+04  0.00000000000E+00 0. -1.
         21    1    1    2  503  506 -0.38956290332E+02 -0.21233587247E+01 -0.82063202406E+02  0.90865122009E+02  0.00000000000E+00 0.  1.
         21    1    1    2  504  503 -0.31305175989E+02 -0.28520880815E+02 -0.17635587371E+03  0.18136937139E+03  0.00000000000E+00 0.  1.
         21    1    1    2  505  502 -0.57022276194E+02 -0.30668010462E+02 -0.12621070730E+04  0.12637667232E+04  0.00000000000E+00 0. -1.
         21    1    1    2  506  501  0.12728374251E+03  0.61312250002E+02 -0.31231839797E+02  0.14469198639E+03  0.00000000000E+00 0.  1.
<scales pt_clust_3="36.61744" pt_clust_4="36.61744" pt_clust_5="64.74617" pt_clust_6="125.17861"></scales>
<clustering>
<clus scale="   36.617">  3  4 -1 -1</clus>
<clus scale="   64.746">  2  5  1 -1</clus>
<clus scale="  125.179">  1  6  2 -1</clus>
<clus scale="  125.179">  1  3  2 -1</clus>
</clustering>
</event>
<event>
 6    0  0.2036847E+002  0.9463065E+02  0.7546771E-02  0.1292010E+00
         21   -1    0    0  505  501  0.00000000000E+00  0.00000000000E+00  0.28338923858E+03  0.28338923858E+03  0.00000000000E+00 0.  1.
         21   -1    0    0  506  502 -0.00000000000E+00 -0.00000000000E+00 -0.13491625041E+04  0.13491625041E+04  0.00000000000E+00 0.  1.
         21    1    1    2  503  504 -0.10198313632E+03  0.69248453081E+02 -0.11252139323E+03  0.16690408108E+03  0.00000000000E+00 0.  1.
         21    1    1    2  504  501  0.37094490397E+02 -0.86335388120E+02  0.24415309851E+03  0.26161142172E+03  0.00000000000E+00 0.  1.
         21    1    1    2  505  502  0.30424877394E+02  0.32081697214E+02 -0.10768741687E+04  0.10777814638E+04  0.00000000000E+00 0.  1.
         21    1    1    2  506  503  0.34463768526E+02 -0.14994762174E+02 -0.12053080207E+03  0.12625477607E+03  0.00000000000E+00 0.  1.
<scales pt_clust_3="94.63065" pt_clust_4="14000.00000" pt_clust_5="63.58957" pt_clust_6="37.58449"></scales>
<clustering>
<clus scale="   37.584">  2  6  1 -1</clus>
<clus scale="   63.590">  2  5  1 -1</clus>
<clus scale="   94.631">  2  3  1 -1</clus>
<clus scale="   94.631">  1  3  2 -1</clus>
</clustering>
</event>
<event>
 6    0  0.2036847E+002  0.1110434E+03  0.7546771E-02  0.1258650E+00
         21   -1    0    0  504  501  0.00000000000E+00  0.00000000000E+00  0.11933068486E+04  0.11933068486E+04  0.00000000000E+00 0.  1.
         21   -1    0    0  503  502 -0.00000000000E+00 -0.00000000000E+00 -0.20439005708E+02  0.20439005708E+02  0.00000000000E+00 0.  1.
         21    1    1    2  503  506  0.10448948893E+03 -0.24413266548E+02  0.38153617298E+03  0.39633812859E+03  0.00000000000E+00 0.  1.
         21    1    1    2  504  505 -0.23251945214E+02 -0.38048960590E+02  0.21947430791E+03  0.22395836263E+03  0.00000000000E+00 0.  1.
         21    1    1    2  505  502 -0.10633837134E+03  0.43635937141E+02  0.32748913676E+03  0.34707503357E+03  0.00000000000E+00 0.  1.
         21    1    1    2  506  501  0.25100827619E+02  0.18826289996E+02  0.24436822523E+03  0.24637432952E+03  0.00000000000E+00 0.  1.
<scales pt_clust_3="111.04335" pt_clust_4="37.86986" pt_clust_5="14000.00000" pt_clust_6="31.37644"></scales>
<clustering>
<clus scale="   31.376">  1  6  2 -1</clus>
<clus scale="   37.870">  1  4  2 -1</clus>
<clus scale="  111.043">  1  3  2 -1</clus>
<clus scale="   31.376">  1  3  2 -1</clus>
</clustering>
</event>
<event>
 6    0  0.2036847E+002  0.1926675E+03  0.7546771E-02  0.1156077E+00
         21   -1    0    0  505  501  0.00000000000E+00  0.00000000000E+00  0.35889905931E+03  0.35889905931E+03  0.00000000000E+00 0. -1.
         21   -1    0    0  506  502 -0.00000000000E+00 -0.00000000000E+00 -0.47562452976E+03  0.47562452976E+03  0.00000000000E+00 0. -1.
         21    1    1    2  503  504  0.77857310944E+02 -0.11550337512E+03  0.23398360232E+03  0.27230702651E+03  0.00000000000E+00 0. -1.
         21    1    1    2  504  502 -0.35950341905E+02  0.17456414320E+03 -0.38386486986E+03  0.42322252479E+03  0.00000000000E+00 0. -1.
         21    1    1    2  505  503  0.45978485767E+01 -0.52696798138E+02  0.63846710921E+02  0.82912575892E+02  0.00000000000E+00 0. -1.
         21    1    1    2  506  501 -0.46504817616E+02 -0.63639699478E+01 -0.30690913821E+02  0.56081461876E+02  0.00000000000E+00 0. -1.
<scales pt_clust_3="30.11336" pt_clust_4="186.36754" pt_clust_5="30.11336" pt_clust_6="46.93824"></scales>
<clustering>
<clus scale="   30.113">  3  5 -1 -1</clus>
<clus scale="   46.938">  2  6  1 -1</clus>
<clus scale="  186.368">  2  4  1 -1</clus>
<clus scale="  192.668">  1  3  2 -1</clus>
</clustering>
</event>
<event>
 6    0  0.2036847E+002  0.1861282E+03  0.7546771E-02  0.1162000E+00
         21   -1    0    0  504  501  0.00000000000E+00  0.00000000000E+00  0.99528492105E+02  0.99528492105E+02  0.00000000000E+00 0. -1.
         21   -1    0    0  506  502 -0.00000000000E+00 -0.00000000000E+00 -0.99068467543E+03  0.99068467543E+03  0.00000000000E+00 0. -1.
         21    1    1    2  503  501  0.16818451601E+03  0.90242422982E+02 -0.27684147920E+02  0.19286300417E+03  0.00000000000E+00 0. -1.
         21    1    1    2  504  505 -0.40815076414E+02 -0.53320544886E+02 -0.26336150067E+03  0.27178710603E+03  0.00000000000E+00 0. -1.
         21    1    1    2  505  502 -0.33726387615E+02 -0.27573376751E+02 -0.42087426772E+03  0.42312280671E+03  0.00000000000E+00 0. -1.
         21    1    1    2  506  503 -0.93643051979E+02 -0.93485013445E+01 -0.17923626702E+03  0.20244025063E+03  0.00000000000E+00 0. -1.
<scales pt_clust_3="178.94910" pt_clust_4="41.23541" pt_clust_5="41.23541" pt_clust_6="94.10853"></scales>
<clustering>
<clus scale="   41.235">  4  5 -1 -1</clus>
<clus scale="   94.109">  2  6  1 -1</clus>
<clus scale="  178.949">  1  3  2 -1</clus>
<clus scale="  178.949">  1  3  2 -1</clus>
</clustering>
</event>
<event>
 6    0  0.2036847E+002  0.8794547E+02  0.7546771E-02  0.1307905E+00
         21   -1    0    0  506  501  0.00000000000E+00  0.00000000000E+00  0.16123888920E+03  0.16123888920E+03  0.00000000000E+00 0.  1.
         21   -1    0    0  503  502 -0.00000000000E+00 -0.00000000000E+00 -0.75238727899E+03  0.75238727899E+03  0.00000000000E+00 0.  1.
         21    1    1    2  503  501 -0.64232614192E+02 -0.20082800001E+02  0.33605358251E+02  0.75222787006E+02  0.00000000000E+00 0.  1.
         21    1    1    2  504  502  0.88746962267E+02  0.37495428782E+02 -0.61623228573E+03  0.62371801358E+03  0.00000000000E+00 0.  1.
         21    1    1    2  505  504 -0.45519094674E+02 -0.51489389035E+02 -0.96243016974E+02  0.11826184287E+03  0.00000000000E+00 0.  1.
         21    1    1    2  506  505  0.21004746598E+02  0.34076760254E+02  0.87721554662E+02  0.96423524730E+02  0.00000000000E+00 0.  1.
<scales pt_clust_3="48.17967" pt_clust_4="87.94547" pt_clust_5="14000.00000" pt_clust_6="40.03030"></scales>
<clustering>
<clus scale="   40.030">  1  6  2 -1</clus>
<clus scale="   48.180">  1  3  2 -1</clus>
<clus scale="   87.945">  2  4  1 -1</clus>
<clus scale="   40.030">  1  3  2 -1</clus>
</clustering>
</event>
<event>
 6    0  0.2036847E+002  0.1016219E+03  0.7546771E-02  0.1276922E+00
         21   -1    0    0  506  501  0.00000000000E+00  0.00000000000E+00  0.16611826611E+03  0.16611826611E+03  0.00000000000E+00 0.  1.
         21   -1    0    0  503  502 -0.00000000000E+00 -0.00000000000E+00 -0.15257910231E+03  0.15257910231E+03  0.00000000000E+00 0.  1.
         21    1    1    2  503  505  0.62484105402E+02  0.20694490090E+02 -0.21221862386E+02  0.69158461457E+02  0.00000000000E+00 0.  1.
         21    1    1    2  504  502 -0.70386846160E+02 -0.14875650023E+02 -0.57564271248E+02  0.92137063119E+02  0.00000000000E+00 0.  1.
         21    1    1    2  505  501  0.59745628454E+02  0.38491817662E+01  0.85279361293E+02  0.10419657279E+03  0.00000000000E+00 0.  1.
         21    1    1    2  506  504 -0.51842887696E+02 -0.96680218331E+01  0.70459361429E+01  0.53205271045E+02  0.00000000000E+00 0. -1.
<scales pt_clust_3="85.42375" pt_clust_4="47.12732" pt_clust_5="59.86949" pt_clust_6="47.12732"></scales>
<clustering>
<clus scale="   47.127">  4  6 -1 -1</clus>
<clus scale="   59.869">  1  5  2 -1</clus>
<clus scale="   85.424">  2  3  1 -1</clus>
<clus scale="   59.869">  1  3  2 -1</clus>
</clustering>
</event>
<event>
 6    0  0.2036847E+002  0.7238908E+02  0.7546771E-02  0.1352152E+00
         21   -1    0    0  504  501  0.00000000000E+00  0.00000000000E+00  0.65073840734E+03  0.65073840734E+03  0.00000000000E+00 0.  1.
         21   -1    0    0  506  502 -0.00000000000E+00 -0.00000000000E+00 -0.26491961329E+03  0.26491961329E+03  0.00000000000E+00 0.  1.
         21    1    1    2  503  501 -0.62635978472E+02 -0.34685184753E+02  0.46845848925E+03  0.47389838994E+03  0.00000000000E+00 0.  1.
         21    1    1    2  504  505  0.33656191352E+02  0.88170002199E+02  0.14792680116E+03  0.17546802275E+03  0.00000000000E+00 0.  1.
         21    1    1    2  505  502 -0.30027712846E+02 -0.22533325109E+01 -0.91219201950E+01  0.31463478418E+02  0.00000000000E+00 0.  1.
         21    1    1    2  506  503  0.59007499966E+02 -0.51231484935E+02 -0.22144457617E+03  0.23482812953E+03  0.00000000000E+00 0.  1.
<scales pt_clust_3="72.38908" pt_clust_4="14000.00000" pt_clust_5="30.11214" pt_clust_6="61.68993"></scales>
<clustering>
<clus scale="   30.112">  2  5  1 -1</clus>
<clus scale="   61.690">  2  6  1 -1</clus>
<clus scale="   72.389">  1  3  2 -1</clus>
<clus scale="   72.389">  1  3  2 -1</clus>
</clustering>
</event>
<event>
 6    0  0.2036847E+002  0.8557095E+02  0.7546771E-02  0.1313946E+00
         21   -1    0    0  503  501  0.00000000000E+00  0.00000000000E+00  0.12195935456E+04  0.12195935456E+04  0.00000000000E+00 0.  1.
         21   -1    0    0  505  502 -0.00000000000E+00 -0.00000000000E+00 -0.17846272223E+03  0.17846272223E+03  0.00000000000E+00 0.  1.
         21    1    1    2  503  506 -0.98788182926E+02  0.32557962954E+02  0.83386345111E+03  0.84032575893E+03  0.00000000000E+00 0.  1.
         21    1    1    2  504  501  0.14168542497E+02 -0.52264386693E+02  0.36357785296E+03  0.36758831439E+03  0.00000000000E+00 0.  1.
         21    1    1    2  505  504  0.54551957650E+02 -0.12636512890E+02 -0.12194057448E+03  0.13418308852E+03  0.00000000000E+00 0.  1.
         21    1    1    2  506  502  0.30067682779E+02  0.32342936629E+02 -0.34369906177E+02  0.55959106034E+02  0.00000000000E+00 0.  1.
<scales pt_clust_3="14000.00000" pt_clust_4="53.80255" pt_clust_5="85.57095" pt_clust_6="44.16029"></scales>
<clustering>
<clus scale="   44.160">  2  6  1 -1</clus>
<clus scale="   53.803">  1  4  2 -1</clus>
<clus scale="   85.571">  2  5  1 -1</clus>
<clus scale="   53.803">  1  3  2 -1</clus>
</clustering>
</event>
<event>
 6    0  0.2036847E+002  0.1143790E+03  0.7546771E-02  0.1252669E+00
         21   -1    0    0  506  501  0.00000000000E+00  0.00000000000E+00  0.30534541489E+04  0.30534541489E+04  0.00000000000E+00 0.  1.
         21   -1    0    0  503  502 -0.00000000000E+00 -0.00000000000E+00 -0.24728204606E+02  0.24728204606E+02  0.00000000000E+00 0.  1.
         21    1    1    2  503  505  0.10509756348E+03 -0.74658059779E+02  0.24005134843E+03  0.27247747361E+03  0.00000000000E+00 0.  1.
         21    1    1    2  504  501  0.43752069000E+00  0.46613013255E+02  0.14436815552E+04  0.14444339366E+04  0.00000000000E+00 0.  1.
         21    1    1    2  505  504 -0.11347771023E+03 -0.20593679390E+02  0.12392748331E+04  0.12446298254E+04  0.00000000000E+00 0.  1.
         21    1    1    2  506  502  0.79426260571E+01  0.48638725914E+02  0.10571820754E+03  0.11664111785E+03  0.00000000000E+00 0.  1.
<scales pt_clust_3="14000.00000" pt_clust_4="46.61507" pt_clust_5="114.37904" pt_clust_6="52.46813"></scales>
<clustering>
<clus scale="   46.615">  1  4  2 -1</clus>
<clus scale="   52.468">  2  6  1 -1</clus>
<clus scale="  114.379">  1  5  2 -1</clus>
<clus scale="   46.615">  1  3  2 -1</clus>
</clustering>
</event>
<event>
 6    0  0.2036847E+002  0.1389043E+03  0.7546771E-02  0.1214811E+00
         21   -1    0    0  506  501  0.00000000000E+00  0.00000000000E+00  0.38659377403E+03  0.38659377403E+03  0.00000000000E+00 0.  1.
         21   -1    0    0  504  502 -0.00000000000E+00 -0.00000000000E+00 -0.41930187564E+03  0.41930187564E+03  0.00000000000E+00 0.  1.
         21    1    1    2  503  502 -0.50457870651E+01  0.29723998485E+02 -0.82574738818E+02  0.87906561438E+02  0.00000000000E+00 0. -1.
         21    1    1    2  504  501  0.10471986065E+02 -0.41046881467E+02  0.65351589758E+02  0.77880287969E+02  0.00000000000E+00 0. -1.
         21    1    1    2  505  503  0.11180149141E+03  0.62196726497E+02 -0.30113030846E+03  0.32718109502E+03  0.00000000000E+00 0.  1.
         21    1    1    2  506  505 -0.11722769041E+03 -0.50873843516E+02  0.28564535591E+03  0.31292770523E+03  0.00000000000E+00 0.  1.
<scales pt_clust_3="30.14923" pt_clust_4="41.79819" pt_clust_5="138.90430" pt_clust_6="14000.00000"></scales>
<clustering>
<clus scale="   30.149">  2  3  1 -1</clus>
<clus scale="   41.798">  1  4  2 -1</clus>
<clus scale="  138.904">  2  5  1 -1</clus>
<clus scale="   41.798">  1  3  2 -1</clus>
</clustering>
</event>
<event>
 6    0  0.2036847E+002  0.1310006E+03  0.7546771E-02  0.1225979E+00
         21   -1    0    0  505  501  0.00000000000E+00  0.00000000000E+00  0.77314326635E+03  0.77314326635E+03  0.00000000000E+00 0. -1.
         21   -1    0    0  503  502 -0.00000000000E+00 -0.00000000000E+00 -0.13134272957E+03  0.13134272957E+03  0.00000000000E+00 0. -1.
         21    1    1    2  503  504  0.30360467801E+02 -0.18549248535E+02  0.24090924542E+02  0.42967490868E+02  0.00000000000E+00 0.  1.
         21    1    1    2  504  506 -0.21602405603E+02  0.71913535439E+02  0.36315246899E+03  0.37083410879E+03  0.00000000000E+00 0. -1.
         21    1    1    2  505  502 -0.30822115231E+02 -0.10466110754E+03 -0.90120920698E+02  0.14151229828E+03  0.00000000000E+00 0. -1.
         21    1    1    2  506  501  0.22064053033E+02  0.51296820632E+02  0.34467806395E+03  0.34917209799E+03  0.00000000000E+00 0. -1.
<scales pt_clust_3="35.57854" pt_clust_4="40.67737" pt_clust_5="122.30001" pt_clust_6="40.67737"></scales>
<clustering>
<clus scale="   35.579">  2  3  1 -1</clus>
<clus scale="   40.677">  4  6 -1 -1</clus>
<clus scale="  122.300">  2  5  1 -1</clus>
<clus scale="  131.001">  1  3  2 -1</clus>
</clustering>
</event>
<event>
 6    0  0.2036847E+002  0.1044818E+03  0.7546771E-02  0.1271144E+00
         21   -1    0    0  503  501  0.00000000000E+00  0.00000000000E+00  0.64047829223E+02  0.64047829223E+02  0.00000000000E+00 0. -1.
         21   -1    0    0  505  502 -0.00000000000E+00 -0.00000000000E+00 -0.16212164170E+04  0.16212164170E+04  0.00000000000E+00 0.  1.
         21    1    1    2  503  506  0.76974634923E+02  0.88367679517E+02 -0.60728853691E+02  0.13199217733E+03  0.00000000000E+00 0. -1.
         21    1    1    2  504  501 -0.12918588621E+01 -0.10468406598E+03 -0.79861644932E+02  0.13167499725E+03  0.00000000000E+00 0. -1.
         21    1    1    2  505  504 -0.30354758721E+02 -0.28219861187E+01 -0.11567322652E+04  0.11571339198E+04  0.00000000000E+00 0.  1.
         21    1    1    2  506  502 -0.45328017340E+02  0.19138372583E+02 -0.25984582397E+03  0.26446315187E+03  0.00000000000E+00 0.  1.
<scales pt_clust_3="104.48180" pt_clust_4="14000.00000" pt_clust_5="30.48565" pt_clust_6="64.88475"></scales>
<clustering>
<clus scale="   30.486">  2  5  1 -1</clus>
<clus scale="   64.885">  2  6  1 -1</clus>
<clus scale="  104.482">  1  3  2 -1</clus>
<clus scale="  104.482">  1  3  2 -1</clus>
</clustering>
</event>
<event>
 6    0  0.2036847E+002  0.1845653E+03  0.7546771E-02  0.1163456E+00
         21   -1    0    0  503  501  0.00000000000E+00  0.00000000000E+00  0.82885274753E+03  0.82885274753E+03  0.00000000000E+00 0. -1.
         21   -1    0    0  505  502 -0.00000000000E+00 -0.00000000000E+00 -0.14244999682E+03  0.14244999682E+03  0.00000000000E+00 0. -1.
         21    1    1    2  503  506 -0.19252488808E+02  0.36558991162E+02  0.10664787676E+03  0.11437214599E+03  0.00000000000E+00 0.  1.
         21    1    1    2  504  502 -0.11680642686E+03  0.17797777049E+02 -0.65116393800E+02  0.13490977342E+03  0.00000000000E+00 0. -1.
         21    1    1    2  505  501  0.19130529028E+03 -0.51700618231E+02  0.63580567261E+03  0.66597261306E+03  0.00000000000E+00 0. -1.
         21    1    1    2  506  504 -0.55246374608E+02 -0.26561499798E+01  0.90655951371E+01  0.56048211882E+02  0.00000000000E+00 0. -1.
<scales pt_clust_3="41.31850" pt_clust_4="40.42998" pt_clust_5="174.85004" pt_clust_6="40.42998"></scales>
<clustering>
<clus scale="   40.430">  4  6 -1 -1</clus>
<clus scale="   41.318">  1  3  2 -1</clus>
<clus scale="  174.850">  1  5  2 -1</clus>
<clus scale="   41.318">  1  3  2 -1</clus>
</clustering>
</event>
<event>
 6    0  0.2036847E+002  0.1268815E+03  0.7546771E-02  0.1232158E+00
         21   -1    0    0  506  501  0.00000000000E+00  0.00000000000E+00  0.76785793009E+02  0.76785793009E+02  0.00000000000E+00 0.  1.
         21   -1    0    0  504  502 -0.00000000000E+00 -0.00000000000E+00 -0.92728318397E+03  0.92728318397E+03  0.00000000000E+00 0. -1.
         21    1    1    2  503  502  0.55224379365E+02 -0.54421405587E+02 -0.42674111778E+03  0.43372733724E+03  0.00000000000E+00 0. -1.
         21    1    1    2  504  505  0.58141685348E+02  0.14550406765E+03 -0.31758681784E+03  0.35413736903E+03  0.00000000000E+00 0. -1.
         21    1    1    2  505  501 -0.11871541488E+02 -0.66753569290E+02 -0.86652186493E+02  0.11002533315E+03  0.00000000000E+00 0.  1.
         21    1    1    2  506  503 -0.10149452322E+03 -0.24329092775E+02 -0.19517268854E+02  0.10617893757E+03  0.00000000000E+00 0.  1.
<scales pt_clust_3="79.65025" pt_clust_4="126.88146" pt_clust_5="67.80098" pt_clust_6="14000.00000"></scales>
<clustering>
<clus scale="   67.801">  1  5  2 -1</clus>
<clus scale="   79.650">  2  3  1 -1</clus>
<clus scale="  126.881">  2  4  1 -1</clus>
<clus scale="   67.801">  1  3  2 -1</clus>
</clustering>
</event>
<event>
 6    0  0.2036847E+002  0.1367633E+03  0.7546771E-02  0.1217752E+00
         21   -1    0    0  503  501  0.00000000000E+00  0.00000000000E+00  0.23807983008E+03  0.23807983008E+03  0.00000000000E+00 0.  1.
         21   -1    0    0  504  502 -0.00000000000E+00 -0.00000000000E+00 -0.17009705217E+03  0.17009705217E+03  0.00000000000E+00 0.  1.
         21    1    1    2  503  506  0.12008287322E+03 -0.63899647150E+02  0.10892675475E+03  0.17426445204E+03  0.00000000000E+00 0.  1.
         21    1    1    2  504  501 -0.45740869292E+02 -0.38789151566E+02  0.42439040403E+02  0.73470385551E+02  0.00000000000E+00 0.  1.
         21    1    1    2  505  502 -0.33094811452E+02  0.98948954867E+01 -0.29819695519E+02  0.45633208770E+02  0.00000000000E+00 0. -1.
         21    1    1    2  506  505 -0.41247192472E+02  0.92793903229E+02 -0.53563321721E+02  0.11480883588E+03  0.00000000000E+00 0.  1.
<scales pt_clust_3="126.43968" pt_clust_4="59.97354" pt_clust_5="30.40190" pt_clust_6="30.40190"></scales>
<clustering>
<clus scale="   30.402">  5  6 -1 -1</clus>
<clus scale="   59.974">  1  4  2 -1</clus>
<clus scale="  126.440">  1  3  2 -1</clus>
<clus scale="   59.974">  1  3  2 -1</clus>
</clustering>
</event>
<event>
 6    0  0.2036847E+002  0.8674842E+02  0.7546771E-02  0.1310923E+00
         21   -1    0    0  503  501  0.00000000000E+00  0.00000000000E+00  0.75030202056E+03  0.75030202056E+03  0.00000000000E+00 0.  1.
         21   -1    0    0  506  502 -0.00000000000E+00 -0.00000000000E+00 -0.83713454395E+02  0.83713454395E+02  0.00000000000E+00 0.  1.
         21    1    1    2  503  502  0.20934208209E+02 -0.50074385054E+02  0.18133658693E+03  0.18928455529E+03  0.00000000000E+00 0.  1.
         21    1    1    2  504  501  0.71187621642E+02  0.51818245939E+02  0.48445493233E+03  0.49239150027E+03  0.00000000000E+00 0.  1.
         21    1    1    2  505  504 -0.71240431162E+02 -0.47158024126E+02  0.34410084379E+02  0.92103920539E+02  0.00000000000E+00 0.  1.
         21    1    1    2  506  505 -0.20881398688E+02  0.45414163242E+02 -0.33613037470E+02  0.60235498853E+02  0.00000000000E+00 0.  1.
<scales pt_clust_3="48.87846" pt_clust_4="86.74842" pt_clust_5="14000.00000" pt_clust_6="49.98479"></scales>
<clustering>
<clus scale="   49.985">  2  6  1 -1</clus>
<clus scale="   48.878">  1  3  2 -1</clus>
<clus scale="   86.748">  1  4  2 -1</clus>
<clus scale="   48.878">  1  3  2 -1</clus>
</clustering>
</event>
<event>
 6    0  0.2036847E+002  0.1942771E+03  0.7546771E-02  0.1154659E+00
         21   -1    0    0  503  501  0.00000000000E+00  0.00000000000E+00  0.22943316910E+04  0.22943316910E+04  0.00000000000E+00 0.  1.
         21   -1    0    0  501  502 -0.00000000000E+00 -0.00000000000E+00 -0.65268255986E+02  0.65268255986E+02  0.00000000000E+00 0. -1.
         21    1    1    2  503  505  0.89548581997E+02 -0.78270732785E+02  0.12054673698E+04  0.12113202862E+04  0.00000000000E+00 0.  1.
         21    1    1    2  504  506 -0.12876315828E+03  0.40155999592E+02  0.20758565060E+03  0.24755657448E+03  0.00000000000E+00 0. -1.
         21    1    1    2  505  504  0.84857787752E+02 -0.32563527346E+02  0.81138602917E+03  0.81646097016E+03  0.00000000000E+00 0.  1.
         21    1    1    2  506  502 -0.45643211471E+02  0.70678260539E+02  0.46243853933E+01  0.84262116081E+02  0.00000000000E+00 0. -1.
<scales pt_clust_3="33.82781" pt_clust_4="190.38440" pt_clust_5="33.82781" pt_clust_6="84.13513"></scales>
<clustering>
<clus scale="   33.828">  3  5 -1 -1</clus>
<clus scale="   84.135">  2  6  1 -1</clus>
<clus scale="  190.384">  2  4  1 -1</clus>
<clus scale="  194.277">  1  3  2 -1</clus>
</clustering>
</event>
<event>
 6    0  0.2036847E+002  0.1835406E+03  0.7546771E-02  0.1164420E+00
         21   -1    0    0  504  501  0.00000000000E+00  0.00000000000E+00  0.42764313329E+03  0.42764313329E+03  0.00000000000E+00 0.  1.
         21   -1    0    0  506  502 -0.00000000000E+00 -0.00000000000E+00 -0.60340647808E+03  0.60340647808E+03  0.00000000000E+00 0.  1.
         21    1    1    2  503  501 -0.55148998363E+02 -0.10197900989E+03  0.34654246129E+03  0.36542141146E+03  0.00000000000E+00 0.  1.
         21    1    1    2  504  502 -0.40134977704E+02 -0.37801393597E+02  0.43475742616E+02  0.70213260779E+02  0.00000000000E+00 0.  1.
         21    1    1    2  505  503  0.55610327718E+02  0.13430164249E+03 -0.45104480113E+03  0.47388907178E+03  0.00000000000E+00 0.  1.
         21    1    1    2  506  505  0.39673648349E+02  0.54787609994E+01 -0.11473674757E+03  0.12152586736E+03  0.00000000000E+00 0.  1.
<scales pt_clust_3="167.01662" pt_clust_4="55.13403" pt_clust_5="39.94998" pt_clust_6="39.94998"></scales>
<clustering>
<clus scale="   39.950">  5  6 -1 -1</clus>
<clus scale="   55.134">  1  4  2 -1</clus>
<clus scale="  167.017">  1  3  2 -1</clus>
<clus scale="   55.134">  1  3  2 -1</clus>
</clustering>
</event>
<event>
 6    0  0.2036847E+002  0.1784394E+03  0.7546771E-02  0.1169322E+00
         21   -1    0    0  506  501  0.00000000000E+00  0.00000000000E+00  0.12750287679E+04  0.12750287679E+04  0.00000000000E+00 0.  1.
         21   -1    0    0  503  502 -0.00000000000E+00 -0.00000000000E+00 -0.26347771645E+03  0.26347771645E+03  0.00000000000E+00 0.  1.
         21    1    1    2  503  504  0.15757366152E+03 -0.11650301354E+02 -0.20311035816E+03  0.25733053826E+03  0.00000000000E+00 0.  1.
         21    1    1    2  504  505 -0.15349085970E+03  0.30550752574E+02  0.11484785712E+04  0.11590926714E+04  0.00000000000E+00 0.  1.
         21    1    1    2  505  501 -0.27037411094E+02 -0.43249837624E+02  0.71880274370E+02  0.88138209063E+02  0.00000000000E+00 0. -1.
         21    1    1    2  506  502  0.22954609266E+02  0.24349386405E+02 -0.56974359041E+01  0.33945065631E+02  0.00000000000E+00 0.  1.
<scales pt_clust_3="14000.00000" pt_clust_4="178.43943" pt_clust_5="49.91129" pt_clust_6="33.46351"></scales>
<clustering>
<clus scale="   33.464">  2  6  1 -1</clus>
<clus scale="   49.911">  1  5  2 -1</clus>
<clus scale="  178.439">  1  4  2 -1</clus>
<clus scale="   49.911">  1  3  2 -1</clus>
</clustering>
</event>
<event>
 6    0  0.2036847E+002  0.1171798E+03  0.7546771E-02  0.1247823E+00
         21   -1    0    0  506  501  0.00000000000E+00  0.00000000000E+00  0.14465571781E+03  0.14465571781E+03  0.00000000000E+00 0.  1.
         21   -1    0    0  504  502 -0.00000000000E+00 -0.00000000000E+00 -0.26616770802E+03  0.26616770802E+03  0.00000000000E+00 0.  1.
         21    1    1    2  503  501  0.44663498892E+02  0.45940023723E+02  0.48618772310E+02  0.80430708898E+02  0.00000000000E+00 0.  1.
         21    1    1    2  504  503  0.73883665057E+02  0.25699801860E+02  0.19439787942E+02  0.80605093717E+02  0.00000000000E+00 0.  1.
         21    1    1    2  505  502 -0.87836330893E+02 -0.56013852989E+02 -0.18843070062E+03  0.21531117409E+03  0.00000000000E+00 0.  1.
         21    1    1    2  506  505 -0.30710833055E+02 -0.15625972595E+02 -0.11398498414E+01  0.34476449123E+02  0.00000000000E+00 0.  1.
<scales pt_clust_3="39.53073" pt_clust_4="39.53073" pt_clust_5="107.77866" pt_clust_6="34.45760"></scales>
<clustering>
<clus scale="   34.458">  1  6  2 -1</clus>
<clus scale="   39.531">  3  4 -1 -1</clus>
<clus scale="  107.779">  2  5  1 -1</clus>
<clus scale="   34.458">  1  3  2 -1</clus>
</clustering>
</event>
<event>
 6    0  0.2036847E+002  0.1668536E+03  0.7546771E-02  0.1181169E+00
         21   -1    0    0  506  501  0.00000000000E+00  0.00000000000E+00  0.75975934351E+03  0.75975934351E+03  0.00000000000E+00 0.  1.
         21   -1    0    0  504  502 -0.00000000000E+00 -0.00000000000E+00 -0.27042200443E+03  0.27042200443E+03  0.00000000000E+00 0.  1.
         21    1    1    2  503  501 -0.26095071070E+02 -0.30192291986E+02  0.17639787464E+03  0.18085557057E+03  0.00000000000E+00 0.  1.
         21    1    1    2  504  505  0.11705357938E+03 -0.12312654185E+03 -0.21757078657E+03  0.27604117976E+03  0.00000000000E+00 0.  1.
         21    1    1    2  505  503 -0.14170585352E+02  0.64167995632E+02  0.62425609004E+02  0.90638257994E+02  0.00000000000E+00 0. -1.
         21    1    1    2  506  502 -0.76787922960E+02  0.89150838203E+02  0.46808464201E+03  0.48264633962E+03  0.00000000000E+00 0.  1.
<scales pt_clust_3="39.90648" pt_clust_4="14000.00000" pt_clust_5="62.71419" pt_clust_6="166.85359"></scales>
<clustering>
<clus scale="   39.906">  1  3  2 -1</clus>
<clus scale="   62.714">  1  5  2 -1</clus>
<clus scale="  166.854">  1  6  2 -1</clus>
<clus scale="   39.906">  1  3  2 -1</clus>
</clustering>
</event>
<event>
 6    0  0.2036847E+002  0.1705589E+03  0.7546771E-02  0.1177266E+00
         21   -1    0    0  505  501  0.00000000000E+00  0.00000000000E+00  0.27201507105E+03  0.27201507105E+03  0.00000000000E+00 0.  1.
         21   -1    0    0  504  502 -0.00000000000E+00 -0.00000000000E+00 -0.18684242289E+03  0.18684242289E+03  0.00000000000E+00 0. -1.
         21    1    1    2  503  502  0.33218293164E+02 -0.31411160457E+02  0.36172298190E+02  0.58297093909E+02  0.00000000000E+00 0. -1.
         21    1    1    2  504  506 -0.46553586971E+02 -0.19975527782E+02 -0.30266374372E+02  0.59011114103E+02  0.00000000000E+00 0. -1.
         21    1    1    2  505  503  0.12284253800E+03  0.45278828221E+01  0.15693877527E+03  0.19935037007E+03  0.00000000000E+00 0.  1.
         21    1    1    2  506  501 -0.10950724419E+03  0.46858805416E+02 -0.77672050922E+02  0.14219891585E+03  0.00000000000E+00 0. -1.
<scales pt_clust_3="38.63097" pt_clust_4="39.97359" pt_clust_5="38.63097" pt_clust_6="169.80805"></scales>
<clustering>
<clus scale="   38.631">  3  5 -1 -1</clus>
<clus scale="   39.974">  4  6 -1 -1</clus>
<clus scale="  169.808">  2  4  1 -1</clus>
<clus scale="  170.559">  1  3  2 -1</clus>
</clustering>
</event>
<event>
 6    0  0.2036847E+002  0.1147384E+03  0.7546771E-02  0.1252038E+00
         21   -1    0    0  504  501  0.00000000000E+00  0.00000000000E+00  0.19465853834E+04  0.19465853834E+04  0.00000000000E+00 0.  1.
         21   -1    0    0  506  502 -0.00000000000E+00 -0.00000000000E+00 -0.37560273214E+02  0.37560273214E+02  0.00000000000E+00 0.  1.
         21    1    1    2  503  501  0.11508376337E+02 -0.58653376239E+02  0.73525361012E+03  0.73767915279E+03  0.00000000000E+00 0.  1.
         21    1    1    2  504  502 -0.11453713454E+03 -0.79848977028E+01  0.59024717800E+03  0.60131043972E+03  0.00000000000E+00 0.  1.
         21    1    1    2  505  503  0.41765632469E+02 -0.33884396959E+02  0.49487847138E+03  0.49779234812E+03  0.00000000000E+00 0.  1.
         21    1    1    2  506  505  0.61263125733E+02  0.10052267090E+03  0.88645850651E+02  0.14736371595E+03  0.00000000000E+00 0.  1.
<scales pt_clust_3="114.73836" pt_clust_4="14000.00000" pt_clust_5="39.83482" pt_clust_6="110.33141"></scales>
<clustering>
<clus scale="   39.835">  3  5 -1 -1</clus>
<clus scale="  114.738">  1  3  2 -1</clus>
<clus scale="  110.331">  2  6  1 -1</clus>
<clus scale="  114.738">  1  3  2 -1</clus>
</clustering>
</event>
<event>
 6    0  0.2036847E+002  0.1363265E+03  0.7546771E-02  0.1218359E+00
         21   -1    0    0  506  501  0.00000000000E+00  0.00000000000E+00  0.55379975615E+03  0.55379975615E+03  0.00000000000E+00 0.  1.
         21   -1    0    0  504  502 -0.00000000000E+00 -0.00000000000E+00 -0.30815375651E+03  0.30815375651E+03  0.00000000000E+00 0.  1.
         21    1    1    2  503  502 -0.13501974005E+02 -0.43808097265E+02  0.10806071611E+01  0.45854338942E+02  0.00000000000E+00 0.  1.
         21    1    1    2  504  505 -0.97322413416E+02 -0.45572494003E+02 -0.20352501481E+03  0.23015415707E+03  0.00000000000E+00 0.  1.
         21    1    1    2  505  501  0.20568492572E+03 -0.10560701364E+01  0.39340586311E+03  0.44393195096E+03  0.00000000000E+00 0.  1.
         21    1    1    2  506  503 -0.94860538300E+02  0.90436661404E+02  0.54684544179E+02  0.14201306568E+03  0.00000000000E+00 0.  1.
<scales pt_clust_3="45.84160" pt_clust_4="136.32648" pt_clust_5="14000.00000" pt_clust_6="128.09005"></scales>
<clustering>
<clus scale="   45.842">  2  3  1 -1</clus>
<clus scale="  128.090">  1  6  2 -1</clus>
<clus scale="  136.326">  2  4  1 -1</clus>
<clus scale="  128.090">  1  3  2 -1</clus>
</clustering>
</event>
<event>
 6    0  0.2558069E+002  0.1102764E+03  0.7546771E-02  0.1260059E+00
         21   -1    0    0  503  501  0.00000000000E+00  0.00000000000E+00  0.35975665725E+03  0.35975665725E+03  0.00000000000E+00 0.  1.
         21   -1    0    0  504  502 -0.00000000000E+00 -0.00000000000E+00 -0.77568223194E+03  0.77568223194E+03  0.00000000000E+00 0. -1.
         21    1    1    2  503  506  0.95061699991E+02  0.11251031417E+02  0.31890030890E+03  0.33295753412E+03  0.00000000000E+00 0.  1.
         21    1    1    2  504  505  0.35122587215E+02 -0.32582194655E+01 -0.80138743319E+02  0.87558153861E+02  0.00000000000E+00 0. -1.
         21    1    1    2  505  501  0.12100345675E+02 -0.34543909268E+02  0.72782689070E+01  0.37318537368E+02  0.00000000000E+00 0. -1.
         21    1    1    2  506  502 -0.14228463288E+03  0.26551097317E+02 -0.66196540917E+03  0.67760466385E+03  0.00000000000E+00 0. -1.
<scales pt_clust_3="110.27637" pt_clust_4="35.27339" pt_clust_5="36.92733" pt_clust_6="14000.00000"></scales>
<clustering>
<clus scale="   35.273">  2  4  1 -1</clus>
<clus scale="   36.927">  1  5  2 -1</clus>
<clus scale="  110.276">  1  3  2 -1</clus>
<clus scale="   36.927">  1  3  2 -1</clus>
</clustering>
</event>
<event>
 6    0  0.2036847E+002  0.1141371E+03  0.7546771E-02  0.1253095E+00
         21   -1    0    0  504  501  0.00000000000E+00  0.00000000000E+00  0.15667792179E+04  0.15667792179E+04  0.00000000000E+00 0. -1.
         21   -1    0    0  503  502 -0.00000000000E+00 -0.00000000000E+00 -0.16781037818E+03  0.16781037818E+03  0.00000000000E+00 0. -1.
         21    1    1    2  503  505 -0.85072174377E+01  0.55596520799E+02  0.14126059511E+01  0.56261366221E+02  0.00000000000E+00 0. -1.
         21    1    1    2  504  502 -0.16216461628E+02  0.42920326815E+02  0.80290723263E+02  0.92475555276E+02  0.00000000000E+00 0. -1.
         21    1    1    2  505  506 -0.10375925565E+03 -0.73823217759E+02 -0.10040139595E+03  0.16216131142E+03  0.00000000000E+00 0. -1.
         21    1    1    2  506  501  0.12848293472E+03 -0.24693629855E+02  0.14176669064E+04  0.14236913631E+04  0.00000000000E+00 0. -1.
<scales pt_clust_3="57.11815" pt_clust_4="45.88167" pt_clust_5="14000.00000" pt_clust_6="114.13710"></scales>
<clustering>
<clus scale="   45.882">  1  4  2 -1</clus>
<clus scale="   57.118">  2  3  1 -1</clus>
<clus scale="  114.137">  1  6  2 -1</clus>
<clus scale="   45.882">  1  3  2 -1</clus>
</clustering>
</event>
<event>
 6    0  0.2036847E+002  0.2220795E+03  0.7546771E-02  0.1132342E+00
         21   -1    0    0  503  501  0.00000000000E+00  0.00000000000E+00  0.79814328637E+03  0.79814328637E+03  0.00000000000E+00 0.  1.
         21   -1    0    0  506  502 -0.00000000000E+00 -0.00000000000E+00 -0.33682257916E+03  0.33682257916E+03  0.00000000000E+00 0. -1.
         21    1    1    2  503  504 -0.21917955070E+03 -0.56741214481E+02  0.66365916792E+03  0.70121518240E+03  0.00000000000E+00 0.  1.
         21    1    1    2  504  502  0.19613023883E+03  0.38132345247E+02  0.36357569880E+01  0.19983584530E+03  0.00000000000E+00 0. -1.
         21    1    1    2  505  501  0.53315032605E+02 -0.21630755145E+02 -0.82618624015E+02  0.10067879272E+03  0.00000000000E+00 0. -1.
         21    1    1    2  506  505 -0.30265720734E+02  0.40239624378E+02 -0.12335559368E+03  0.13323604510E+03  0.00000000000E+00 0. -1.
<scales pt_clust_3="14000.00000" pt_clust_4="222.07946" pt_clust_5="40.20710" pt_clust_6="50.35118"></scales>
<clustering>
<clus scale="   50.351">  2  6  1 -1</clus>
<clus scale="   40.207">  2  5  1 -1</clus>
<clus scale="  222.079">  2  4  1 -1</clus>
<clus scale="  222.079">  1  3  2 -1</clus>
</clustering>
</event>
<event>
 6    0  0.2036847E+002  0.1064933E+03  0.7546771E-02  0.1267205E+00
         21   -1    0    0  506  501  0.00000000000E+00  0.00000000000E+00  0.21995229956E+03  0.21995229956E+03  0.00000000000E+00 0.  1.
         21   -1    0    0  503  502 -0.00000000000E+00 -0.00000000000E+00 -0.41277768162E+03  0.41277768162E+03  0.00000000000E+00 0.  1.
         21    1    1    2  503  504  0.66257064919E+02  0.89982981454E+01 -0.20290270017E+03  0.21363631189E+03  0.00000000000E+00 0. -1.
         21    1    1    2  504  501  0.40153341725E+02 -0.52846265680E+02 -0.17888321500E+03  0.19079890790E+03  0.00000000000E+00 0.  1.
         21    1    1    2  505  502 -0.77053484797E+02  0.56807278242E+02  0.13464013064E+03  0.16520372623E+03  0.00000000000E+00 0.  1.
         21    1    1    2  506  505 -0.29356921847E+02 -0.12959310707E+02  0.54320402463E+02  0.63091035164E+02  0.00000000000E+00 0.  1.
<scales pt_clust_3="65.83971" pt_clust_4="14000.00000" pt_clust_5="106.49328" pt_clust_6="32.09007"></scales>
<clustering>
<clus scale="   32.090">  1  6  2 -1</clus>
<clus scale="   65.840">  2  3  1 -1</clus>
<clus scale="  106.493">  1  5  2 -1</clus>
<clus scale="   32.090">  1  3  2 -1</clus>
</clustering>
</event>
<event>
 6    0  0.2036847E+002  0.1547131E+03  0.7546771E-02  0.1194798E+00
         21   -1    0    0  503  501  0.00000000000E+00  0.00000000000E+00  0.15765240131E+03  0.15765240131E+03  0.00000000000E+00 0. -1.
         21   -1    0    0  504  502 -0.00000000000E+00 -0.00000000000E+00 -0.18585667192E+03  0.18585667192E+03  0.00000000000E+00 0. -1.
         21    1    1    2  503  506  0.66671224930E+02  0.73388506592E+01 -0.43365333798E+02  0.79871541478E+02  0.00000000000E+00 0. -1.
         21    1    1    2  504  505 -0.44872930597E+02 -0.39706145385E+02  0.11299361755E+02  0.60974039211E+02  0.00000000000E+00 0. -1.
         21    1    1    2  505  501 -0.89819582642E+02 -0.22479042602E+02  0.48521667090E+02  0.10453332942E+03  0.00000000000E+00 0. -1.
         21    1    1    2  506  502  0.68021288308E+02  0.54846337328E+02 -0.44659965665E+02  0.98130163123E+02  0.00000000000E+00 0. -1.
<scales pt_clust_3="38.46135" pt_clust_4="34.17772" pt_clust_5="154.31829" pt_clust_6="38.46135"></scales>
<clustering>
<clus scale="   34.178">  4  5 -1 -1</clus>
<clus scale="   38.461">  3  6 -1 -1</clus>
<clus scale="  154.318">  1  4  2 -1</clus>
<clus scale="  154.318">  1  3  2 -1</clus>
</clustering>
</event>
<event>
 6    0  0.2036847E+002  0.1117238E+03  0.7546771E-02  0.1257411E+00
         21   -1    0    0  506  501  0.00000000000E+00  0.00000000000E+00  0.24360893962E+04  0.24360893962E+04  0.00000000000E+00 0.  1.
         21   -1    0    0  503  502 -0.00000000000E+00 -0.00000000000E+00 -0.84287879205E+02  0.84287879205E+02  0.00000000000E+00 0. -1.
         21    1    1    2  503  501  0.28098827946E+02 -0.32844364880E+02  0.11509674614E+03  0.12294534317E+03  0.00000000000E+00 0. -1.
         21    1    1    2  504  505  0.47143569068E+01  0.61614731240E+02  0.10007279403E+04  0.10026340363E+04  0.00000000000E+00 0.  1.
         21    1    1    2  505  502  0.22444302830E+01 -0.10509059545E+03 -0.42634029986E+02  0.11343161478E+03  0.00000000000E+00 0. -1.
         21    1    1    2  506  504 -0.35057615136E+02  0.76320229091E+02  0.12786108606E+04  0.12813662812E+04  0.00000000000E+00 0.  1.
<scales pt_clust_3="43.22379" pt_clust_4="31.22695" pt_clust_5="105.62622" pt_clust_6="31.22695"></scales>
<clustering>
<clus scale="   31.227">  4  6 -1 -1</clus>
<clus scale="   43.224">  1  3  2 -1</clus>
<clus scale="  105.626">  2  5  1 -1</clus>
<clus scale="   43.224">  1  3  2 -1</clus>
</clustering>
</event>
<event>
 6    0  0.2311368E+002  0.1643132E+03  0.7546771E-02  0.1183911E+00
         21   -1    0    0  503  501  0.00000000000E+00  0.00000000000E+00  0.21117525257E+04  0.21117525257E+04  0.00000000000E+00 0. -1.
         21   -1    0    0  504  502 -0.00000000000E+00 -0.00000000000E+00 -0.15609601963E+03  0.15609601963E+03  0.00000000000E+00 0.  1.
         21    1    1    2  503  505 -0.10893758545E+03 -0.13007137903E+02  0.17813931869E+04  0.17847684078E+04  0.00000000000E+00 0. -1.
         21    1    1    2  504  506  0.14914467190E+03  0.16823345532E+02 -0.10330530132E+03  0.18220632094E+03  0.00000000000E+00 0.  1.
         21    1    1    2  505  502  0.18513173020E+02 -0.34760440658E+02  0.49012760935E+02  0.62875086835E+02  0.00000000000E+00 0. -1.
         21    1    1    2  506  501 -0.58720259472E+02  0.30944233029E+02  0.22855585960E+03  0.23799872980E+03  0.00000000000E+00 0. -1.
<scales pt_clust_3="14000.00000" pt_clust_4="164.31321" pt_clust_5="39.38307" pt_clust_6="65.34720"></scales>
<clustering>
<clus scale="   39.383">  2  5  1 -1</clus>
<clus scale="   65.347">  1  6  2 -1</clus>
<clus scale="  164.313">  2  4  1 -1</clus>
<clus scale="   65.347">  1  3  2 -1</clus>
</clustering>
</event>
<event>
 6    0  0.2036847E+002  0.2350397E+03  0.7546771E-02  0.1123142E+00
         21   -1    0    0  505  501  0.00000000000E+00  0.00000000000E+00  0.21834131936E+03  0.21834131936E+03  0.00000000000E+00 0.  1.
         21   -1    0    0  504  502 -0.00000000000E+00 -0.00000000000E+00 -0.32602298969E+03  0.32602298969E+03  0.00000000000E+00 0. -1.
         21    1    1    2  503  501  0.48402008044E+02 -0.73016480904E+02  0.52640029805E+02  0.10220143641E+03  0.00000000000E+00 0.  1.
         21    1    1    2  504  503  0.70115039184E+02 -0.12135767668E+03  0.25604572382E+02  0.14247595774E+03  0.00000000000E+00 0.  1.
         21    1    1    2  505  506 -0.82559135211E+02  0.12639836037E+03 -0.86516263888E+02  0.17400465577E+03  0.00000000000E+00 0. -1.
         21    1    1    2  506  502 -0.35957912018E+02  0.67975797208E+02 -0.99410008635E+02  0.12568225913E+03  0.00000000000E+00 0.  1.
<scales pt_clust_3="34.61670" pt_clust_4="231.82927" pt_clust_5="41.71375" pt_clust_6="41.71375"></scales>
<clustering>
<clus scale="   34.617">  3  4 -1 -1</clus>
<clus scale="   41.714">  5  6 -1 -1</clus>
<clus scale="  231.829">  1  3  2 -1</clus>
<clus scale="  231.829">  1  3  2 -1</clus>
</clustering>
</event>
<event>
 6    0  0.2036847E+002  0.9724614E+02  0.7546771E-02  0.1286196E+00
         21   -1    0    0  503  501  0.00000000000E+00  0.00000000000E+00  0.34360585846E+02  0.34360585846E+02  0.00000000000E+00 0.  1.
         21   -1    0    0  505  502 -0.00000000000E+00 -0.00000000000E+00 -0.11213024071E+04  0.11213024071E+04  0.00000000000E+00 0.  1.
         21    1    1    2  503  506  0.38325073710E+02 -0.22014409228E+02 -0.11715716142E+03  0.12521679584E+03  0.00000000000E+00 0. -1.
         21    1    1    2  504  502 -0.50424189789E+02  0.43262091047E+01 -0.27815723887E+03  0.28272383086E+03  0.00000000000E+00 0.  1.
         21    1    1    2  505  501  0.27540636821E+02  0.98061583949E+02 -0.64607818574E+03  0.65405778263E+03  0.00000000000E+00 0.  1.
         21    1    1    2  506  504 -0.15441520742E+02 -0.80373383825E+02 -0.45549235173E+02  0.93664583569E+02  0.00000000000E+00 0.  1.
<scales pt_clust_3="44.19780" pt_clust_4="47.61395" pt_clust_5="97.24614" pt_clust_6="14000.00000"></scales>
<clustering>
<clus scale="   44.198">  1  3  2 -1</clus>
<clus scale="   47.614">  2  4  1 -1</clus>
<clus scale="   97.246">  2  5  1 -1</clus>
<clus scale="   44.198">  1  3  2 -1</clus>
</clustering>
</event>
<event>
 6    0  0.2036847E+002  0.6270263E+02  0.7546771E-02  0.1386828E+00
         21   -1    0    0  504  501  0.00000000000E+00  0.00000000000E+00  0.21914515424E+03  0.21914515424E+03  0.00000000000E+00 0.  1.
         21   -1    0    0  506  502 -0.00000000000E+00 -0.00000000000E+00 -0.60348922970E+03  0.60348922970E+03  0.00000000000E+00 0.  1.
         21    1    1    2  503  502 -0.11260546468E+03 -0.22160174173E+02 -0.40600995043E+03  0.42191840899E+03  0.00000000000E+00 0.  1.
         21    1    1    2  504  503  0.62167858277E+02  0.56427297634E+02  0.17566618071E+03  0.19469845805E+03  0.00000000000E+00 0.  1.
         21    1    1    2  505  501 -0.93973665750E+01 -0.29474002569E+02  0.90798555266E+01  0.32240829741E+02  0.00000000000E+00 0.  1.
         21    1    1    2  506  505  0.59834972983E+02 -0.47931208923E+01 -0.16308016127E+03  0.17377668716E+03  0.00000000000E+00 0.  1.
<scales pt_clust_3="14000.00000" pt_clust_4="62.70263" pt_clust_5="30.93586" pt_clust_6="59.84316"></scales>
<clustering>
<clus scale="   30.936">  1  5  2 -1</clus>
<clus scale="   59.843">  2  6  1 -1</clus>
<clus scale="   62.703">  1  4  2 -1</clus>
<clus scale="   30.936">  1  3  2 -1</clus>
</clustering>
</event>
<event>
 6    0  0.2036847E+002  0.1889701E+03  0.7546771E-02  0.1159394E+00
         21   -1    0    0  504  501  0.00000000000E+00  0.00000000000E+00  0.67968483072E+03  0.67968483072E+03  0.00000000000E+00 0.  1.
         21   -1    0    0  501  502 -0.00000000000E+00 -0.00000000000E+00 -0.48511266011E+03  0.48511266011E+03  0.00000000000E+00 0. -1.
         21    1    1    2  503  502  0.13060756706E+03  0.19569697843E+02 -0.23387326818E+03  0.26858521034E+03  0.00000000000E+00 0. -1.
         21    1    1    2  504  505  0.91112091763E+02  0.68301418349E+02  0.17192966075E+03  0.20621907104E+03  0.00000000000E+00 0.  1.
         21    1    1    2  505  506 -0.25976181830E+03 -0.10922097445E+03  0.42833941667E+03  0.51271832363E+03  0.00000000000E+00 0.  1.
         21    1    1    2  506  503  0.38042159479E+02  0.21349858260E+02 -0.17182363864E+03  0.17727488581E+03  0.00000000000E+00 0. -1.
<scales pt_clust_3="36.72947" pt_clust_4="113.87053" pt_clust_5="177.83583" pt_clust_6="36.72947"></scales>
<clustering>
<clus scale="   36.729">  3  6 -1 -1</clus>
<clus scale="  113.871">  1  4  2 -1</clus>
<clus scale="  177.836">  1  5  2 -1</clus>
<clus scale="  113.871">  1  3  2 -1</clus>
</clustering>
</event>
<event>
 6    0  0.2036847E+002  0.2967733E+03  0.7546771E-02  0.1086865E+00
         21   -1    0    0  505  501  0.00000000000E+00  0.00000000000E+00  0.85275822901E+03  0.85275822901E+03  0.00000000000E+00 0.  1.
         21   -1    0    0  503  502 -0.00000000000E+00 -0.00000000000E+00 -0.15428433295E+04  0.15428433295E+04  0.00000000000E+00 0. -1.
         21    1    1    2  503  506 -0.91371612537E+02 -0.33361906806E+02 -0.55017827324E+03  0.55871094561E+03  0.00000000000E+00 0. -1.
         21    1    1    2  504  501  0.32548937894E+03  0.13656404619E+03  0.74314746451E+03  0.82271576412E+03  0.00000000000E+00 0.  1.
         21    1    1    2  505  502 -0.37420564470E+02 -0.92086946092E+02  0.97643355070E+01  0.99878158441E+02  0.00000000000E+00 0.  1.
         21    1    1    2  506  504 -0.19669720194E+03 -0.11115193294E+02 -0.89281862729E+03  0.91429669036E+03  0.00000000000E+00 0. -1.
<scales pt_clust_3="35.47994" pt_clust_4="292.44627" pt_clust_5="99.39972" pt_clust_6="35.47994"></scales>
<clustering>
<clus scale="   35.480">  3  6 -1 -1</clus>
<clus scale="   99.400">  1  5  2 -1</clus>
<clus scale="  292.446">  1  4  2 -1</clus>
<clus scale="   99.400">  1  3  2 -1</clus>
</clustering>
</event>
<event>
 6    0  0.2036847E+002  0.1648817E+03  0.7546771E-02  0.1183293E+00
         21   -1    0    0  506  501  0.00000000000E+00  0.00000000000E+00  0.21540535522E+03  0.21540535522E+03  0.00000000000E+00 0. -1.
         21   -1    0    0  505  502 -0.00000000000E+00 -0.00000000000E+00 -0.67389972686E+03  0.67389972686E+03  0.00000000000E+00 0.  1.
         21    1    1    2  503  502  0.10872730896E+03  0.33740201482E+01 -0.30396797211E+03  0.32284600012E+03  0.00000000000E+00 0.  1.
         21    1    1    2  504  503  0.33975879189E+02  0.33816868876E+02 -0.14220564595E+03  0.15006794037E+03  0.00000000000E+00 0.  1.
         21    1    1    2  505  501  0.11245836006E+03 -0.10275119300E+03  0.45856284969E+01  0.15239986351E+03  0.00000000000E+00 0. -1.
         21    1    1    2  506  504 -0.25516154821E+03  0.65560303977E+02 -0.16906382079E+02  0.26399127807E+03  0.00000000000E+00 0. -1.
<scales pt_clust_3="35.31044" pt_clust_4="35.31044" pt_clust_5="152.33086" pt_clust_6="156.06618"></scales>
<clustering>
<clus scale="   35.310">  3  4 -1 -1</clus>
<clus scale="  152.331">  1  5  2 -1</clus>
<clus scale="  156.066">  1  6  2 -1</clus>
<clus scale="  152.331">  1  3  2 -1</clus>
</clustering>
</event>
<event>
 6    0  0.2036847E+002  0.1008311E+03  0.7546771E-02  0.1278558E+00
         21   -1    0    0  504  501  0.00000000000E+00  0.00000000000E+00  0.53734410290E+03  0.53734410290E+03  0.00000000000E+00 0.  1.
         21   -1    0    0  506  502 -0.00000000000E+00 -0.00000000000E+00 -0.33279051689E+04  0.33279051689E+04  0.00000000000E+00 0.  1.
         21    1    1    2  503  501  0.53372462769E+02 -0.81896803205E+01  0.23462135233E+03  0.24075479147E+03  0.00000000000E+00 0.  1.
         21    1    1    2  504  502  0.87073805992E+00  0.53561709635E+02 -0.25993335782E+04  0.25998855101E+04  0.00000000000E+00 0.  1.
         21    1    1    2  505  503 -0.44355530105E+02 -0.92541870214E+02  0.28975128685E+03  0.30738773402E+03  0.00000000000E+00 0. -1.
         21    1    1    2  506  505 -0.98876707245E+01  0.47169840899E+02 -0.71560012706E+03  0.71722123628E+03  0.00000000000E+00 0. -1.
<scales pt_clust_3="53.97728" pt_clust_4="100.83113" pt_clust_5="14000.00000" pt_clust_6="48.19502"></scales>
<clustering>
<clus scale="   48.195">  2  6  1 -1</clus>
<clus scale="   53.977">  1  3  2 -1</clus>
<clus scale="  100.831">  2  4  1 -1</clus>
<clus scale="   53.977">  1  3  2 -1</clus>
</clustering>
</event>
<event>
 6    0  0.2036847E+002  0.1921353E+03  0.7546771E-02  0.1156549E+00
         21   -1    0    0  505  501  0.00000000000E+00  0.00000000000E+00  0.10690199396E+04  0.10690199396E+04  0.00000000000E+00 0. -1.
         21   -1    0    0  503  502 -0.00000000000E+00 -0.00000000000E+00 -0.11272731595E+03  0.11272731595E+03  0.00000000000E+00 0.  1.
         21    1    1    2  503  504 -0.39722037633E+02  0.12338315353E+02 -0.33601793248E+02  0.53471065156E+02  0.00000000000E+00 0.  1.
         21    1    1    2  504  501 -0.99758073484E+02 -0.14289555354E+03  0.69788940097E+02  0.18772668592E+03  0.00000000000E+00 0.  1.
         21    1    1    2  505  506  0.65236691476E+02  0.87574049974E+02  0.52545525219E+03  0.53668264570E+03  0.00000000000E+00 0. -1.
         21    1    1    2  506  502  0.74243419642E+02  0.42983188209E+02  0.39465022463E+03  0.40386685879E+03  0.00000000000E+00 0. -1.
<scales pt_clust_3="41.59416" pt_clust_4="188.08661" pt_clust_5="34.77549" pt_clust_6="34.77549"></scales>
<clustering>
<clus scale="   34.775">  5  6 -1 -1</clus>
<clus scale="   41.594">  2  3  1 -1</clus>
<clus scale="  188.087">  2  4  1 -1</clus>
<clus scale="  192.135">  1  3  2 -1</clus>
</clustering>
</event>
<event>
 6    0  0.2036847E+002  0.1503851E+03  0.7546771E-02  0.1200001E+00
         21   -1    0    0  503  501  0.00000000000E+00  0.00000000000E+00  0.33155404759E+03  0.33155404759E+03  0.00000000000E+00 0.  1.
         21   -1    0    0  506  502 -0.00000000000E+00 -0.00000000000E+00 -0.41722818474E+03  0.41722818474E+03  0.00000000000E+00 0. -1.
         21    1    1    2  503  505 -0.33066799235E+02  0.39048332677E+02  0.16751121214E+03  0.17515191032E+03  0.00000000000E+00 0.  1.
         21    1    1    2  504  502 -0.13127186450E+02 -0.30125892222E+02 -0.19252927069E+02  0.38086317845E+02  0.00000000000E+00 0.  1.
         21    1    1    2  505  504 -0.55015527464E+02  0.94269609871E+02  0.11458025786E+03  0.15824696869E+03  0.00000000000E+00 0.  1.
         21    1    1    2  506  501  0.10120951315E+03 -0.10319205033E+03 -0.34851268009E+03  0.37729703548E+03  0.00000000000E+00 0. -1.
<scales pt_clust_3="51.02640" pt_clust_4="32.86172" pt_clust_5="14000.00000" pt_clust_6="150.38506"></scales>
<clustering>
<clus scale="   32.862">  2  4  1 -1</clus>
<clus scale="   51.026">  1  3  2 -1</clus>
<clus scale="  150.385">  2  6  1 -1</clus>
<clus scale="   51.026">  1  3  2 -1</clus>
</clustering>
</event>
<event>
 6    0  0.2036847E+002  0.1090092E+03  0.7546771E-02  0.1262416E+00
         21   -1    0    0  503  501  0.00000000000E+00  0.00000000000E+00  0.52268771687E+03  0.52268771687E+03  0.00000000000E+00 0. -1.
         21   -1    0    0  504  502 -0.00000000000E+00 -0.00000000000E+00 -0.18534422509E+04  0.18534422509E+04  0.00000000000E+00 0.  1.
         21    1    1    2  503  506 -0.13408834113E+03 -0.59101530067E+02  0.32662758451E+03  0.35799197344E+03  0.00000000000E+00 0. -1.
         21    1    1    2  504  501  0.88836200024E+02 -0.19364116469E+02  0.16614600105E+03  0.18939728906E+03  0.00000000000E+00 0. -1.
         21    1    1    2  505  502 -0.17119485603E+02  0.33556042641E+02 -0.11857566256E+04  0.11863548625E+04  0.00000000000E+00 0.  1.
         21    1    1    2  506  505  0.62371626705E+02  0.44909603895E+02 -0.63777149401E+03  0.64238584270E+03  0.00000000000E+00 0.  1.
<scales pt_clust_3="14000.00000" pt_clust_4="109.00922" pt_clust_5="37.67074" pt_clust_6="89.74918"></scales>
<clustering>
<clus scale="   37.671">  2  5  1 -1</clus>
<clus scale="   89.749">  2  6  1 -1</clus>
<clus scale="  109.009">  1  4  2 -1</clus>
<clus scale="  109.009">  1  3  2 -1</clus>
</clustering>
</event>
<event>
 6    0  0.2036847E+002  0.7921626E+02  0.7546771E-02  0.1331290E+00
         21   -1    0    0  504  501  0.00000000000E+00  0.00000000000E+00  0.95684757398E+02  0.95684757398E+02  0.00000000000E+00 0.  1.
         21   -1    0    0  505  502 -0.00000000000E+00 -0.00000000000E+00 -0.41125494550E+03  0.41125494550E+03  0.00000000000E+00 0. -1.
         21    1    1    2  503  501 -0.66679792863E+01  0.74120156740E+02 -0.12044434744E+01  0.74429229923E+02  0.00000000000E+00 0.  1.
         21    1    1    2  504  506 -0.77651092267E+02 -0.21182216597E+01  0.41745686591E+01  0.77792069112E+02  0.00000000000E+00 0.  1.
         21    1    1    2  505  503  0.39154296274E+02 -0.87003271914E+01 -0.24306159847E+03  0.24634872693E+03  0.00000000000E+00 0. -1.
         21    1    1    2  506  502  0.45164775279E+02 -0.63301607889E+02 -0.75478714808E+02  0.10836967692E+03  0.00000000000E+00 0. -1.
<scales pt_clust_3="79.21626" pt_clust_4="69.11594" pt_clust_5="40.10928" pt_clust_6="14000.00000"></scales>
<clustering>
<clus scale="   40.109">  2  5  1 -1</clus>
<clus scale="   69.116">  1  4  2 -1</clus>
<clus scale="   79.216">  1  3  2 -1</clus>
<clus scale="   69.116">  1  3  2 -1</clus>
</clustering>
</event>
<event>
 6    0  0.2036847E+002  0.7382212E+02  0.7546771E-02  0.1347558E+00
         21   -1    0    0  504  501  0.00000000000E+00  0.00000000000E+00  0.11660040631E+04  0.11660040631E+04  0.00000000000E+00 0.  1.
         21   -1    0    0  505  502 -0.00000000000E+00 -0.00000000000E+00 -0.70204388974E+02  0.70204388974E+02  0.00000000000E+00 0.  1.
         21    1    1    2  503  501 -0.25437854591E+02  0.66282959459E+02  0.78917794046E+03  0.79236502754E+03  0.00000000000E+00 0.  1.
         21    1    1    2  504  506  0.60900646926E+02 -0.15484938426E+01  0.29265028732E+03  0.29892386539E+03  0.00000000000E+00 0.  1.
         21    1    1    2  505  503 -0.29011829035E+01  0.30490523027E+02  0.30162953843E+02  0.42987121807E+02  0.00000000000E+00 0. -1.
         21    1    1    2  506  502 -0.32561609432E+02 -0.95224988643E+02 -0.16191507480E+02  0.10193243736E+03  0.00000000000E+00 0.  1.
<scales pt_clust_3="73.82212" pt_clust_4="60.75801" pt_clust_5="30.62824" pt_clust_6="14000.00000"></scales>
<clustering>
<clus scale="   30.628">  2  5  1 -1</clus>
<clus scale="   60.758">  1  4  2 -1</clus>
<clus scale="   73.822">  1  3  2 -1</clus>
<clus scale="   60.758">  1  3  2 -1</clus>
</clustering>
</event>
<event>
 6    0  0.2036847E+002  0.1042786E+03  0.7546771E-02  0.1271548E+00
         21   -1    0    0  502  501  0.00000000000E+00  0.00000000000E+00  0.19962557547E+03  0.19962557547E+03  0.00000000000E+00 0. -1.
         21   -1    0    0  504  502 -0.00000000000E+00 -0.00000000000E+00 -0.47725358681E+03  0.47725358681E+03  0.00000000000E+00 0. -1.
         21    1    1    2  503  501 -0.46769428019E+02  0.12134857034E+02  0.12921926603E+03  0.13795743136E+03  0.00000000000E+00 0. -1.
         21    1    1    2  504  506  0.12329448407E+02  0.10989502482E+03 -0.37049074910E+03  0.38664237603E+03  0.00000000000E+00 0. -1.
         21    1    1    2  505  503  0.40684236601E+02 -0.50288778164E+02 -0.46349939200E+02  0.79576913617E+02  0.00000000000E+00 0. -1.
         21    1    1    2  506  505 -0.62442569895E+01 -0.71741103694E+02  0.99934109253E+01  0.72702441270E+02  0.00000000000E+00 0. -1.
<scales pt_clust_3="48.31805" pt_clust_4="14000.00000" pt_clust_5="55.38491" pt_clust_6="104.27859"></scales>
<clustering>
<clus scale="   48.318">  1  3  2 -1</clus>
<clus scale="   55.385">  1  5  2 -1</clus>
<clus scale="  104.279">  1  6  2 -1</clus>
<clus scale="   48.318">  1  3  2 -1</clus>
</clustering>
</event>
<event>
 6    0  0.2036847E+002  0.1312265E+03  0.7546771E-02  0.1225647E+00
         21   -1    0    0  505  501  0.00000000000E+00  0.00000000000E+00  0.21905419073E+03  0.21905419073E+03  0.00000000000E+00 0.  1.
         21   -1    0    0  504  502 -0.00000000000E+00 -0.00000000000E+00 -0.24797433494E+03  0.24797433494E+03  0.00000000000E+00 0.  1.
         21    1    1    2  503  502 -0.14761687842E+02  0.26880039265E+02 -0.88774889336E+01  0.31925753689E+02  0.00000000000E+00 0. -1.
         21    1    1    2  504  506  0.36069152493E+02 -0.72390886519E+00 -0.13192415395E+03  0.13676801600E+03  0.00000000000E+00 0.  1.
         21    1    1    2  505  503  0.94018567676E+02  0.73865954575E+02  0.75481192644E+02  0.14139689090E+03  0.00000000000E+00 0.  1.
         21    1    1    2  506  501 -0.11532603233E+03 -0.10002208498E+03  0.36400306028E+02  0.15693786507E+03  0.00000000000E+00 0.  1.
<scales pt_clust_3="30.66666" pt_clust_4="31.26717" pt_clust_5="14000.00000" pt_clust_6="131.22650"></scales>
<clustering>
<clus scale="   30.667">  2  3  1 -1</clus>
<clus scale="   31.267">  2  4  1 -1</clus>
<clus scale="  131.226">  2  6  1 -1</clus>
<clus scale="  131.226">  1  3  2 -1</clus>
</clustering>
</event>
<event>
 6    0  0.2036847E+002  0.6607792E+02  0.7546771E-02  0.1373962E+00
         21   -1    0    0  504  501  0.00000000000E+00  0.00000000000E+00  0.29961151979E+03  0.29961151979E+03  0.00000000000E+00 0.  1.
         21   -1    0    0  506  502 -0.00000000000E+00 -0.00000000000E+00 -0.71635745100E+03  0.71635745100E+03  0.00000000000E+00 0. -1.
         21    1    1    2  503  501  0.97870333152E+02  0.44952444417E+02  0.23148512129E+03  0.25531291732E+03  0.00000000000E+00 0.  1.
         21    1    1    2  504  502 -0.47330319238E+02  0.52328102554E+00  0.30980886879E+02  0.56570737082E+02  0.00000000000E+00 0.  1.
         21    1    1    2  505  503  0.15942606624E+02 -0.69981989620E+02 -0.11583089700E+03  0.13626607163E+03  0.00000000000E+00 0. -1.
         21    1    1    2  506  505 -0.66482620539E+02  0.24506264177E+02 -0.56338104237E+03  0.56781924476E+03  0.00000000000E+00 0. -1.
<scales pt_clust_3="69.69851" pt_clust_4="47.33321" pt_clust_5="14000.00000" pt_clust_6="66.07792"></scales>
<clustering>
<clus scale="   47.333">  1  4  2 -1</clus>
<clus scale="   69.699">  1  3  2 -1</clus>
<clus scale="   66.078">  2  6  1 -1</clus>
<clus scale="   47.333">  1  3  2 -1</clus>
</clustering>
</event>
<event>
 6    0  0.2036847E+002  0.1403780E+03  0.7546771E-02  0.1212821E+00
         21   -1    0    0  505  501  0.00000000000E+00  0.00000000000E+00  0.17631941934E+02  0.17631941934E+02  0.00000000000E+00 0. -1.
         21   -1    0    0  504  502 -0.00000000000E+00 -0.00000000000E+00 -0.12828198730E+04  0.12828198730E+04  0.00000000000E+00 0. -1.
         21    1    1    2  503  502  0.67461293689E+02 -0.13649221941E+02 -0.23325507084E+03  0.24319797589E+03  0.00000000000E+00 0. -1.
         21    1    1    2  504  506 -0.90128199980E+02  0.17154285742E+02 -0.75843793562E+03  0.76396692607E+03  0.00000000000E+00 0. -1.
         21    1    1    2  505  503  0.59350153208E+02 -0.18902064545E+02 -0.12649948374E+03  0.14100300747E+03  0.00000000000E+00 0. -1.
         21    1    1    2  506  501 -0.36683246917E+02  0.15397000745E+02 -0.14699544086E+03  0.15228390549E+03  0.00000000000E+00 0. -1.
<scales pt_clust_3="134.85939" pt_clust_4="33.35209" pt_clust_5="30.77164" pt_clust_6="33.35209"></scales>
<clustering>
<clus scale="   30.772">  3  5 -1 -1</clus>
<clus scale="   33.352">  4  6 -1 -1</clus>
<clus scale="  134.859">  1  3  2 -1</clus>
<clus scale="  134.859">  1  3  2 -1</clus>
</clustering>
</event>
<event>
 6    0  0.2036847E+002  0.1266663E+03  0.7546771E-02  0.1232488E+00
         21   -1    0    0  504  501  0.00000000000E+00  0.00000000000E+00  0.11093233009E+03  0.11093233009E+03  0.00000000000E+00 0. -1.
         21   -1    0    0  506  502 -0.00000000000E+00 -0.00000000000E+00 -0.27546041186E+03  0.27546041186E+03  0.00000000000E+00 0. -1.
         21    1    1    2  503  502  0.42360341481E+02  0.31009205865E+02 -0.73092195924E+02  0.89991324492E+02  0.00000000000E+00 0. -1.
         21    1    1    2  504  505  0.25721572475E+01 -0.64130171360E+02  0.34353732568E+02  0.72797484936E+02  0.00000000000E+00 0. -1.
         21    1    1    2  505  503  0.24236360324E+02 -0.55471468999E+02 -0.84559451968E+01  0.61122729355E+02  0.00000000000E+00 0. -1.
         21    1    1    2  506  501 -0.69168859052E+02  0.88592434494E+02 -0.11733367322E+03  0.16248120317E+03  0.00000000000E+00 0. -1.
<scales pt_clust_3="52.49733" pt_clust_4="45.97136" pt_clust_5="45.97136" pt_clust_6="117.48907"></scales>
<clustering>
<clus scale="   45.971">  4  5 -1 -1</clus>
<clus scale="   52.497">  2  3  1 -1</clus>
<clus scale="  117.489">  2  6  1 -1</clus>
<clus scale="  126.666">  1  3  2 -1</clus>
</clustering>
</event>
<event>
 6    0  0.2036847E+002  0.1358291E+03  0.7546771E-02  0.1219054E+00
         21   -1    0    0  503  501  0.00000000000E+00  0.00000000000E+00  0.25133743246E+03  0.25133743246E+03  0.00000000000E+00 0. -1.
         21   -1    0    0  504  502 -0.00000000000E+00 -0.00000000000E+00 -0.30011933783E+03  0.30011933783E+03  0.00000000000E+00 0. -1.
         21    1    1    2  503  506  0.13143615184E+03 -0.40356339653E+02  0.18560009236E+03  0.23097941563E+03  0.00000000000E+00 0. -1.
         21    1    1    2  504  505  0.56594545627E+01  0.30379253690E+02 -0.24441883039E+02  0.39399671664E+02  0.00000000000E+00 0.  1.
         21    1    1    2  505  501 -0.11099359228E+03  0.46364165078E+02 -0.20271561551E+03  0.23571770002E+03  0.00000000000E+00 0. -1.
         21    1    1    2  506  502 -0.26102014120E+02 -0.36387079115E+02 -0.72244991783E+01  0.45359982981E+02  0.00000000000E+00 0.  1.
<scales pt_clust_3="135.82907" pt_clust_4="30.90192" pt_clust_5="14000.00000" pt_clust_6="42.05729"></scales>
<clustering>
<clus scale="   30.902">  2  4  1 -1</clus>
<clus scale="   42.057">  2  6  1 -1</clus>
<clus scale="  135.829">  1  3  2 -1</clus>
<clus scale="  135.829">  1  3  2 -1</clus>
</clustering>
</event>
<event>
 6    0  0.2036847E+002  0.6821122E+02  0.7546771E-02  0.1366284E+00
         21   -1    0    0  505  501  0.00000000000E+00  0.00000000000E+00  0.12175520295E+03  0.12175520295E+03  0.00000000000E+00 0.  1.
         21   -1    0    0  503  502 -0.00000000000E+00 -0.00000000000E+00 -0.69564397107E+03  0.69564397107E+03  0.00000000000E+00 0.  1.
         21    1    1    2  503  504  0.59340592596E+02 -0.44934831648E+02 -0.43526780527E+03  0.44158635320E+03  0.00000000000E+00 0.  1.
         21    1    1    2  504  501 -0.53199867717E+02 -0.56119466547E+02  0.87924477212E+02  0.11709113606E+03  0.00000000000E+00 0.  1.
         21    1    1    2  505  506  0.14539873258E+02  0.38927502971E+02 -0.29175198371E+02  0.50773522646E+02  0.00000000000E+00 0.  1.
         21    1    1    2  506  502 -0.20680598137E+02  0.62126795224E+02 -0.19737024168E+03  0.20794816211E+03  0.00000000000E+00 0.  1.
<scales pt_clust_3="14000.00000" pt_clust_4="44.58341" pt_clust_5="41.55428" pt_clust_6="68.21122"></scales>
<clustering>
<clus scale="   41.554">  1  5  2 -1</clus>
<clus scale="   44.583">  1  4  2 -1</clus>
<clus scale="   68.211">  1  6  2 -1</clus>
<clus scale="   41.554">  1  3  2 -1</clus>
</clustering>
</event>
<event>
 6    0  0.2036847E+002  0.1486225E+03  0.7546771E-02  0.1202176E+00
         21   -1    0    0  505  501  0.00000000000E+00  0.00000000000E+00  0.58086995230E+03  0.58086995230E+03  0.00000000000E+00 0. -1.
         21   -1    0    0  503  502 -0.00000000000E+00 -0.00000000000E+00 -0.17443093121E+03  0.17443093121E+03  0.00000000000E+00 0. -1.
         21    1    1    2  503  506  0.17318478188E+02  0.25359217899E+02 -0.41956130775E+01  0.30993915343E+02  0.00000000000E+00 0. -1.
         21    1    1    2  504  502 -0.21564949692E+02 -0.55242505938E+02 -0.93830914197E+02  0.11100009899E+03  0.00000000000E+00 0. -1.
         21    1    1    2  505  504  0.13266510527E+03  0.76189033101E+02  0.43297460023E+03  0.45920779977E+03  0.00000000000E+00 0. -1.
         21    1    1    2  506  501 -0.12841863377E+03 -0.46305745062E+02  0.71490948133E+02  0.15409906940E+03  0.00000000000E+00 0. -1.
<scales pt_clust_3="30.70862" pt_clust_4="40.01916" pt_clust_5="14000.00000" pt_clust_6="148.62251"></scales>
<clustering>
<clus scale="   30.709">  2  3  1 -1</clus>
<clus scale="   40.019">  2  4  1 -1</clus>
<clus scale="  148.623">  2  6  1 -1</clus>
<clus scale="  148.623">  1  3  2 -1</clus>
</clustering>
</event>
<event>
 6    0  0.2036847E+002  0.1725498E+03  0.7546771E-02  0.1175215E+00
         21   -1    0    0  506  501  0.00000000000E+00  0.00000000000E+00  0.41941820898E+03  0.41941820898E+03  0.00000000000E+00 0. -1.
         21   -1    0    0  505  502 -0.00000000000E+00 -0.00000000000E+00 -0.13300233628E+04  0.13300233628E+04  0.00000000000E+00 0. -1.
         21    1    1    2  503  504  0.71612340341E+02  0.69384772743E+02 -0.75537019110E+02  0.12509362587E+03  0.00000000000E+00 0. -1.
         21    1    1    2  504  501 -0.16781313491E+03 -0.89549010911E+02  0.36627264556E+03  0.41271772980E+03  0.00000000000E+00 0. -1.
         21    1    1    2  505  503  0.88317486218E+01  0.59076099893E+02 -0.36758507656E+03  0.37240673178E+03  0.00000000000E+00 0. -1.
         21    1    1    2  506  502  0.87369045947E+02 -0.38911861725E+02 -0.83375570374E+03  0.83922348435E+03  0.00000000000E+00 0. -1.
<scales pt_clust_3="14000.00000" pt_clust_4="172.54976" pt_clust_5="59.73262" pt_clust_6="95.89073"></scales>
<clustering>
<clus scale="   59.733">  2  5  1 -1</clus>
<clus scale="   95.891">  2  6  1 -1</clus>
<clus scale="  172.550">  1  4  2 -1</clus>
<clus scale="  172.550">  1  3  2 -1</clus>
</clustering>
</event>
<event>
 6    0  0.2036847E+002  0.1484377E+03  0.7546771E-02  0.1202406E+00
         21   -1    0    0  504  501  0.00000000000E+00  0.00000000000E+00  0.44496893762E+03  0.44496893762E+03  0.00000000000E+00 0.  1.
         21   -1    0    0  505  502 -0.00000000000E+00 -0.00000000000E+00 -0.18157296220E+03  0.18157296220E+03  0.00000000000E+00 0.  1.
         21    1    1    2  503  501 -0.16650430662E+03  0.46629727982E+02  0.29926510659E+03  0.34562641635E+03  0.00000000000E+00 0.  1.
         21    1    1    2  504  506  0.26336909358E+02 -0.40436135083E+02  0.42864718382E+02  0.64545316615E+02  0.00000000000E+00 0.  1.
         21    1    1    2  505  503 -0.12141674637E+02  0.34018059288E+02 -0.40503655607E+02  0.54269648407E+02  0.00000000000E+00 0.  1.
         21    1    1    2  506  502  0.15230907190E+03 -0.40211652187E+02 -0.38230193947E+02  0.16210051845E+03  0.00000000000E+00 0.  1.
<scales pt_clust_3="14000.00000" pt_clust_4="45.42369" pt_clust_5="36.11992" pt_clust_6="148.43771"></scales>
<clustering>
<clus scale="   36.120">  2  5  1 -1</clus>
<clus scale="   45.424">  1  4  2 -1</clus>
<clus scale="  148.438">  2  6  1 -1</clus>
<clus scale="   45.424">  1  3  2 -1</clus>
</clustering>
</event>
<event>
 6    0  0.2036847E+002  0.1433937E+03  0.7546771E-02  0.1208834E+00
         21   -1    0    0  503  501  0.00000000000E+00  0.00000000000E+00  0.51546630716E+03  0.51546630716E+03  0.00000000000E+00 0. -1.
         21   -1    0    0  504  502 -0.00000000000E+00 -0.00000000000E+00 -0.13051544135E+03  0.13051544135E+03  0.00000000000E+00 0. -1.
         21    1    1    2  503  506 -0.81945967563E+01  0.57265261084E+02  0.19064554647E+03  0.19922897864E+03  0.00000000000E+00 0. -1.
         21    1    1    2  504  501  0.45563284012E+02  0.55917017103E+02 -0.23786178552E+02  0.75950694150E+02  0.00000000000E+00 0. -1.
         21    1    1    2  505  502 -0.54409749520E+02 -0.18440356118E+03  0.68240761570E+02  0.20401444988E+03  0.00000000000E+00 0. -1.
         21    1    1    2  506  505  0.17041062264E+02  0.71221282996E+02  0.14985073632E+03  0.16678762583E+03  0.00000000000E+00 0. -1.
<scales pt_clust_3="33.76666" pt_clust_4="72.12992" pt_clust_5="138.26921" pt_clust_6="33.76666"></scales>
<clustering>
<clus scale="   33.767">  3  6 -1 -1</clus>
<clus scale="   72.130">  2  4  1 -1</clus>
<clus scale="  138.269">  2  5  1 -1</clus>
<clus scale="  143.394">  1  3  2 -1</clus>
</clustering>
</event>
<event>
 6    0  0.2036847E+002  0.2319418E+03  0.7546771E-02  0.1125280E+00
         21   -1    0    0  503  501  0.00000000000E+00  0.00000000000E+00  0.52087129320E+03  0.52087129320E+03  0.00000000000E+00 0.  1.
         21   -1    0    0  506  502 -0.00000000000E+00 -0.00000000000E+00 -0.35137815150E+03  0.35137815150E+03  0.00000000000E+00 0.  1.
         21    1    1    2  503  502 -0.72195606134E+02 -0.12830995319E+03 -0.42845207443E+02  0.15333414960E+03  0.00000000000E+00 0. -1.
         21    1    1    2  504  501  0.14850811996E+03  0.56046425141E+01  0.31666751578E+03  0.34980621673E+03  0.00000000000E+00 0.  1.
         21    1    1    2  505  504  0.79745714089E+02  0.74325289863E+01  0.71432855676E+02  0.10731856444E+03  0.00000000000E+00 0.  1.
         21    1    1    2  506  505 -0.15605822792E+03  0.11527278169E+03 -0.17576202232E+03  0.26179051394E+03  0.00000000000E+00 0.  1.
<scales pt_clust_3="147.22652" pt_clust_4="57.20145" pt_clust_5="57.20145" pt_clust_6="218.46196"></scales>
<clustering>
<clus scale="   57.201">  4  5 -1 -1</clus>
<clus scale="  147.227">  2  3  1 -1</clus>
<clus scale="  218.462">  2  6  1 -1</clus>
<clus scale="  231.942">  1  3  2 -1</clus>
</clustering>
</event>
<event>
 6    0  0.2036847E+002  0.3899438E+03  0.7546771E-02  0.1047318E+00
         21   -1    0    0  504  501  0.00000000000E+00  0.00000000000E+00  0.11013390063E+04  0.11013390063E+04  0.00000000000E+00 0.  1.
         21   -1    0    0  506  502 -0.00000000000E+00 -0.00000000000E+00 -0.28852509743E+03  0.28852509743E+03  0.00000000000E+00 0.  1.
         21    1    1    2  503  502 -0.16390746497E+03  0.32469367065E+02  0.34698441042E+03  0.38512088744E+03  0.00000000000E+00 0.  1.
         21    1    1    2  504  503 -0.15938531737E+03  0.15323212836E+03  0.56602659762E+03  0.60767579660E+03  0.00000000000E+00 0.  1.
         21    1    1    2  505  501  0.29974458298E+03 -0.15479027880E+03 -0.11359371193E+03  0.35596401057E+03  0.00000000000E+00 0.  1.
         21    1    1    2  506  505  0.23548199355E+02 -0.30911216624E+02  0.13396612725E+02  0.41103409087E+02  0.00000000000E+00 0. -1.
<scales pt_clust_3="99.32090" pt_clust_4="99.32090" pt_clust_5="384.21749" pt_clust_6="31.51029"></scales>
<clustering>
<clus scale="   31.510">  5  6 -1 -1</clus>
<clus scale="   99.321">  3  4 -1 -1</clus>
<clus scale="  384.217">  2  5  1 -1</clus>
<clus scale="  389.944">  1  3  2 -1</clus>
</clustering>
</event>
<event>
 6    0  0.2036847E+002  0.2011540E+03  0.7546771E-02  0.1148769E+00
         21   -1    0    0  504  501  0.00000000000E+00  0.00000000000E+00  0.14071841903E+03  0.14071841903E+03  0.00000000000E+00 0. -1.
         21   -1    0    0  505  502 -0.00000000000E+00 -0.00000000000E+00 -0.50453513875E+03  0.50453513875E+03  0.00000000000E+00 0. -1.
         21    1    1    2  503  506 -0.35096428814E+02 -0.98213874895E+02  0.30767824792E+02  0.10873998151E+03  0.00000000000E+00 0. -1.
         21    1    1    2  504  503  0.61965229064E+01 -0.95840325899E+02 -0.11299322949E+02  0.96702842067E+02  0.00000000000E+00 0. -1.
         21    1    1    2  505  501  0.55590737296E+02  0.17290458099E+03 -0.32040428432E+03  0.36830046105E+03  0.00000000000E+00 0. -1.
         21    1    1    2  506  502 -0.26690831389E+02  0.21149619802E+02 -0.62880937237E+02  0.71510273149E+02  0.00000000000E+00 0. -1.
<scales pt_clust_3="54.86315" pt_clust_4="54.86315" pt_clust_5="192.68477" pt_clust_6="34.05447"></scales>
<clustering>
<clus scale="   34.054">  2  6  1 -1</clus>
<clus scale="   54.863">  3  4 -1 -1</clus>
<clus scale="  192.685">  2  5  1 -1</clus>
<clus scale="  201.154">  1  3  2 -1</clus>
</clustering>
</event>
<event>
 6    0  0.2639321E+002  0.1911585E+03  0.7546771E-02  0.1157421E+00
         21   -1    0    0  505  501  0.00000000000E+00  0.00000000000E+00  0.35566945077E+03  0.35566945077E+03  0.00000000000E+00 0.  1.
         21   -1    0    0  504  502 -0.00000000000E+00 -0.00000000000E+00 -0.10072997839E+04  0.10072997839E+04  0.00000000000E+00 0.  1.
         21    1    1    2  503  502 -0.12609806247E+02 -0.40419534910E+02 -0.61384754859E+02  0.74571000698E+02  0.00000000000E+00 0. -1.
         21    1    1    2  504  506  0.80682502381E+02 -0.14172368222E+03 -0.88452878871E+03  0.89943673838E+03  0.00000000000E+00 0.  1.
         21    1    1    2  505  503 -0.11763093344E+02  0.17005701596E+03  0.28285050605E+03  0.33024561741E+03  0.00000000000E+00 0.  1.
         21    1    1    2  506  501 -0.56309602790E+02  0.12086201167E+02  0.11432704368E+02  0.58715878211E+02  0.00000000000E+00 0.  1.
<scales pt_clust_3="42.34083" pt_clust_4="14000.00000" pt_clust_5="191.15855" pt_clust_6="57.69865"></scales>
<clustering>
<clus scale="   42.341">  2  3  1 -1</clus>
<clus scale="   57.699">  1  6  2 -1</clus>
<clus scale="  191.159">  1  5  2 -1</clus>
<clus scale="   57.699">  1  3  2 -1</clus>
</clustering>
</event>
<event>
 6    0  0.2036847E+002  0.8788688E+02  0.7546771E-02  0.1308051E+00
         21   -1    0    0  505  501  0.00000000000E+00  0.00000000000E+00  0.72676023858E+02  0.72676023858E+02  0.00000000000E+00 0.  1.
         21   -1    0    0  503  502 -0.00000000000E+00 -0.00000000000E+00 -0.11134266725E+04  0.11134266725E+04  0.00000000000E+00 0. -1.
         21    1    1    2  503  504 -0.14772275045E+02  0.68095971714E+02 -0.25263137500E+03  0.26206467352E+03  0.00000000000E+00 0. -1.
         21    1    1    2  504  506 -0.13902032608E+01 -0.10027706042E+03 -0.20528643386E+03  0.22847306502E+03  0.00000000000E+00 0. -1.
         21    1    1    2  505  502  0.66430432001E+02 -0.40604169067E+02 -0.60036112494E+03  0.60538845478E+03  0.00000000000E+00 0. -1.
         21    1    1    2  506  501 -0.50267953695E+02  0.72785257776E+02  0.17528285164E+02  0.90176503032E+02  0.00000000000E+00 0.  1.
<scales pt_clust_3="69.67985" pt_clust_4="87.88688" pt_clust_5="56.50755" pt_clust_6="14000.00000"></scales>
<clustering>
<clus scale="   69.680">  2  3  1 -1</clus>
<clus scale="   56.508">  2  5  1 -1</clus>
<clus scale="   87.887">  2  4  1 -1</clus>
<clus scale="   87.887">  1  3  2 -1</clus>
</clustering>
</event>
<event>
 6    0  0.2036847E+002  0.1218125E+03  0.7546771E-02  0.1240137E+00
         21   -1    0    0  506  501  0.00000000000E+00  0.00000000000E+00  0.53775781299E+03  0.53775781299E+03  0.00000000000E+00 0. -1.
         21   -1    0    0  505  502 -0.00000000000E+00 -0.00000000000E+00 -0.26339282089E+03  0.26339282089E+03  0.00000000000E+00 0. -1.
         21    1    1    2  503  501  0.11018259329E+03 -0.54186788848E+02  0.29050350714E+03  0.31538658756E+03  0.00000000000E+00 0. -1.
         21    1    1    2  504  502 -0.14763957520E+03  0.56333058311E+02 -0.10815616316E+03  0.19149050434E+03  0.00000000000E+00 0. -1.
         21    1    1    2  505  503  0.67896519501E+02  0.33543436288E+02 -0.83423253754E+02  0.11267004369E+03  0.00000000000E+00 0. -1.
         21    1    1    2  506  504 -0.30439537591E+02 -0.35689705751E+02  0.17544090186E+03  0.18160349829E+03  0.00000000000E+00 0. -1.
<scales pt_clust_3="14000.00000" pt_clust_4="121.81251" pt_clust_5="73.97986" pt_clust_6="46.90757"></scales>
<clustering>
<clus scale="   46.908">  1  6  2 -1</clus>
<clus scale="   73.980">  2  5  1 -1</clus>
<clus scale="  121.813">  2  4  1 -1</clus>
<clus scale="   46.908">  1  3  2 -1</clus>
</clustering>
</event>
<event>
 6    0  0.2036847E+002  0.1718575E+03  0.7546771E-02  0.1175924E+00
         21   -1    0    0  506  501  0.00000000000E+00  0.00000000000E+00  0.10981068349E+04  0.10981068349E+04  0.00000000000E+00 0. -1.
         21   -1    0    0  501  502 -0.00000000000E+00 -0.00000000000E+00 -0.72728744405E+02  0.72728744405E+02  0.00000000000E+00 0.  1.
         21    1    1    2  503  505  0.65480227555E+02  0.18227914548E+02  0.54229960118E+02  0.86952893246E+02  0.00000000000E+00 0.  1.
         21    1    1    2  504  503 -0.42191938572E+02 -0.15512132798E+02  0.13449675193E+03  0.14181030366E+03  0.00000000000E+00 0. -1.
         21    1    1    2  505  502  0.82677256242E+02  0.38581575461E+02 -0.63283676931E+01  0.91455535111E+02  0.00000000000E+00 0.  1.
         21    1    1    2  506  504 -0.10596554523E+03 -0.41297357211E+02  0.84297974618E+03  0.85061684733E+03  0.00000000000E+00 0. -1.
<scales pt_clust_3="56.97322" pt_clust_4="41.09903" pt_clust_5="56.97322" pt_clust_6="171.61394"></scales>
<clustering>
<clus scale="   41.099">  4  6 -1 -1</clus>
<clus scale="   56.973">  3  5 -1 -1</clus>
<clus scale="  171.614">  1  4  2 -1</clus>
<clus scale="  171.614">  1  3  2 -1</clus>
</clustering>
</event>
<event>
 6    0  0.2036847E+002  0.1482145E+03  0.7546771E-02  0.1202684E+00
         21   -1    0    0  506  501  0.00000000000E+00  0.00000000000E+00  0.18908807796E+02  0.18908807796E+02  0.00000000000E+00 0. -1.
         21   -1    0    0  504  502 -0.00000000000E+00 -0.00000000000E+00 -0.15308730753E+04  0.15308730753E+04  0.00000000000E+00 0. -1.
         21    1    1    2  503  501  0.40491047350E+02 -0.69297379397E+02 -0.19068540015E+03  0.20688782839E+03  0.00000000000E+00 0. -1.
         21    1    1    2  504  503  0.65153903748E+02 -0.18996244843E+02 -0.17373151827E+03  0.18651683284E+03  0.00000000000E+00 0. -1.
         21    1    1    2  505  502 -0.58633824383E+02  0.35007296783E+02 -0.68616633865E+03  0.68955614745E+03  0.00000000000E+00 0. -1.
         21    1    1    2  506  505 -0.47011126714E+02  0.53286327457E+02 -0.46138101047E+03  0.46682107445E+03  0.00000000000E+00 0. -1.
<scales pt_clust_3="50.45782" pt_clust_4="50.45782" pt_clust_5="36.50586" pt_clust_6="142.63015"></scales>
<clustering>
<clus scale="   36.506">  5  6 -1 -1</clus>
<clus scale="   50.458">  3  4 -1 -1</clus>
<clus scale="  142.630">  2  5  1 -1</clus>
<clus scale="  148.214">  1  3  2 -1</clus>
</clustering>
</event>
<event>
 6    0  0.2036847E+002  0.1428546E+03  0.7546771E-02  0.1209539E+00
         21   -1    0    0  503  501  0.00000000000E+00  0.00000000000E+00  0.24990312490E+03  0.24990312490E+03  0.00000000000E+00 0. -1.
         21   -1    0    0  505  502 -0.00000000000E+00 -0.00000000000E+00 -0.92594766861E+02  0.92594766861E+02  0.00000000000E+00 0. -1.
         21    1    1    2  503  504 -0.65689523571E+02 -0.42333921605E+02  0.65465952178E+02  0.10194638454E+03  0.00000000000E+00 0.  1.
         21    1    1    2  504  502 -0.62530092051E+02 -0.70477762043E+01  0.73130444925E+02  0.96476657987E+02  0.00000000000E+00 0. -1.
         21    1    1    2  505  506  0.62316443108E+02  0.27765033431E+02 -0.10109673376E+02  0.68966960632E+02  0.00000000000E+00 0. -1.
         21    1    1    2  506  501  0.65903172514E+02  0.21616664379E+02  0.28821634308E+02  0.75107888604E+02  0.00000000000E+00 0. -1.
<scales pt_clust_3="141.99557" pt_clust_4="32.15306" pt_clust_5="38.77588" pt_clust_6="38.77588"></scales>
<clustering>
<clus scale="   32.153">  3  4 -1 -1</clus>
<clus scale="   38.776">  5  6 -1 -1</clus>
<clus scale="  141.996">  1  3  2 -1</clus>
<clus scale="  141.996">  1  3  2 -1</clus>
</clustering>
</event>
<event>
 6    0  0.2036847E+002  0.3440761E+03  0.7546771E-02  0.1065073E+00
         21   -1    0    0  506  501  0.00000000000E+00  0.00000000000E+00  0.58848476787E+03  0.58848476787E+03  0.00000000000E+00 0.  1.
         21   -1    0    0  505  502 -0.00000000000E+00 -0.00000000000E+00 -0.62586135960E+03  0.62586135960E+03  0.00000000000E+00 0.  1.
         21    1    1    2  503  501 -0.35017914970E+03 -0.22933070364E+01  0.39907297127E+03  0.53093307727E+03  0.00000000000E+00 0.  1.
         21    1    1    2  504  503  0.17079850603E+03 -0.82067728229E+01 -0.22948463473E+03  0.28618643985E+03  0.00000000000E+00 0.  1.
         21    1    1    2  505  504  0.16264858075E+03 -0.56784019993E+02 -0.25863406623E+03  0.31075805051E+03  0.00000000000E+00 0.  1.
         21    1    1    2  506  502  0.16732062921E+02  0.67284099852E+02  0.51669137952E+02  0.86468559831E+02  0.00000000000E+00 0.  1.
<scales pt_clust_3="340.17096" pt_clust_4="51.49987" pt_clust_5="51.49987" pt_clust_6="69.33334"></scales>
<clustering>
<clus scale="   51.500">  4  5 -1 -1</clus>
<clus scale="   69.333">  1  6  2 -1</clus>
<clus scale="  340.171">  1  3  2 -1</clus>
<clus scale="   69.333">  1  3  2 -1</clus>
</clustering>
</event>
<event>
 6    0  0.2036847E+002  0.1601466E+03  0.7546771E-02  0.1188531E+00
         21   -1    0    0  506  501  0.00000000000E+00  0.00000000000E+00  0.11728866134E+04  0.11728866134E+04  0.00000000000E+00 0.  1.
         21   -1    0    0  504  502 -0.00000000000E+00 -0.00000000000E+00 -0.12779715575E+03  0.12779715575E+03  0.00000000000E+00 0. -1.
         21    1    1    2  503  502  0.59422651257E+02  0.55475409537E+02  0.26972939158E+01  0.81337862894E+02  0.00000000000E+00 0. -1.
         21    1    1    2  504  505 -0.61085132318E+02  0.81009109709E+02  0.76528674175E+03  0.77198294433E+03  0.00000000000E+00 0.  1.
         21    1    1    2  505  501 -0.56664172825E+02  0.41053367331E+01  0.28914991952E+03  0.29467839797E+03  0.00000000000E+00 0.  1.
         21    1    1    2  506  503  0.58326653886E+02 -0.14058985598E+03 -0.12044497506E+02  0.15268456398E+03  0.00000000000E+00 0. -1.
<scales pt_clust_3="81.29313" pt_clust_4="51.95395" pt_clust_5="51.95395" pt_clust_6="144.31405"></scales>
<clustering>
<clus scale="   51.954">  4  5 -1 -1</clus>
<clus scale="   81.293">  2  3  1 -1</clus>
<clus scale="  144.314">  2  6  1 -1</clus>
<clus scale="  160.147">  1  3  2 -1</clus>
</clustering>
</event>
<event>
 6    0  0.2036847E+002  0.1591102E+03  0.7546771E-02  0.1189705E+00
         21   -1    0    0  504  501  0.00000000000E+00  0.00000000000E+00  0.14513388397E+03  0.14513388397E+03  0.00000000000E+00 0.  1.
         21   -1    0    0  506  502 -0.00000000000E+00 -0.00000000000E+00 -0.27279247894E+04  0.27279247894E+04  0.00000000000E+00 0.  1.
         21    1    1    2  503  505  0.91422281731E+02 -0.59624781338E+02 -0.17351275917E+04  0.17385571338E+04  0.00000000000E+00 0.  1.
         21    1    1    2  504  502 -0.34643887495E+01  0.58530399448E+02 -0.62389591127E+02  0.85617000239E+02  0.00000000000E+00 0. -1.
         21    1    1    2  505  501 -0.81355258763E+02  0.83044992705E+02  0.10390006711E+03  0.15591784018E+03  0.00000000000E+00 0.  1.
         21    1    1    2  506  503 -0.66026342185E+01 -0.81950610815E+02 -0.88917378968E+03  0.89296669907E+03  0.00000000000E+00 0.  1.
<scales pt_clust_3="159.11016" pt_clust_4="58.63284" pt_clust_5="14000.00000" pt_clust_6="81.39154"></scales>
<clustering>
<clus scale="   58.633">  1  4  2 -1</clus>
<clus scale="   81.392">  2  6  1 -1</clus>
<clus scale="  159.110">  2  3  1 -1</clus>
<clus scale="   58.633">  1  3  2 -1</clus>
</clustering>
</event>
<event>
 6    0  0.2036847E+002  0.1073167E+03  0.7546771E-02  0.1265621E+00
         21   -1    0    0  506  501  0.00000000000E+00  0.00000000000E+00  0.52221695615E+03  0.52221695615E+03  0.00000000000E+00 0. -1.
         21   -1    0    0  504  502 -0.00000000000E+00 -0.00000000000E+00 -0.10039719175E+03  0.10039719175E+03  0.00000000000E+00 0. -1.
         21    1    1    2  503  505 -0.12920525886E+03  0.22648037579E+02  0.21572892834E+01  0.13119293587E+03  0.00000000000E+00 0. -1.
         21    1    1    2  504  501  0.30143856015E+02  0.68511598124E+01  0.78952788565E+02  0.84788756734E+02  0.00000000000E+00 0.  1.
         21    1    1    2  505  502  0.40680662103E+02  0.43617463215E+02  0.69989840200E+01  0.60053185958E+02  0.00000000000E+00 0. -1.
         21    1    1    2  506  503  0.58380740745E+02 -0.73116660606E+02  0.33371070253E+03  0.34657926934E+03  0.00000000000E+00 0. -1.
<scales pt_clust_3="14000.00000" pt_clust_4="30.91263" pt_clust_5="61.60494" pt_clust_6="107.31671"></scales>
<clustering>
<clus scale="   30.913">  1  4  2 -1</clus>
<clus scale="   61.605">  2  5  1 -1</clus>
<clus scale="  107.317">  1  6  2 -1</clus>
<clus scale="   30.913">  1  3  2 -1</clus>
</clustering>
</event>
<event>
 6    0  0.2036847E+002  0.1397126E+03  0.7546771E-02  0.1213716E+00
         21   -1    0    0  505  501  0.00000000000E+00  0.00000000000E+00  0.79230696717E+03  0.79230696717E+03  0.00000000000E+00 0.  1.
         21   -1    0    0  504  502 -0.00000000000E+00 -0.00000000000E+00 -0.19054672114E+03  0.19054672114E+03  0.00000000000E+00 0.  1.
         21    1    1    2  503  506 -0.60590573372E+02 -0.14746695597E+02  0.11575428093E+03  0.13148283601E+03  0.00000000000E+00 0.  1.
         21    1    1    2  504  503  0.11761420476E+03  0.12688413784E+02 -0.13910567624E+03  0.18260472657E+03  0.00000000000E+00 0.  1.
         21    1    1    2  505  502  0.76018725105E+02  0.17072029617E+01  0.92258378410E+02  0.11955488068E+03  0.00000000000E+00 0.  1.
         21    1    1    2  506  501 -0.13304235649E+03  0.35107885100E+00  0.53285326293E+03  0.54921124505E+03  0.00000000000E+00 0.  1.
<scales pt_clust_3="48.17635" pt_clust_4="120.69748" pt_clust_5="76.03789" pt_clust_6="48.17635"></scales>
<clustering>
<clus scale="   48.176">  3  6 -1 -1</clus>
<clus scale="   76.038">  1  5  2 -1</clus>
<clus scale="  120.697">  2  4  1 -1</clus>
<clus scale="   76.038">  1  3  2 -1</clus>
</clustering>
</event>
<event>
 6    0  0.2036847E+002  0.9912565E+02  0.7546771E-02  0.1282145E+00
         21   -1    0    0  503  501  0.00000000000E+00  0.00000000000E+00  0.10735008401E+04  0.10735008401E+04  0.00000000000E+00 0. -1.
         21   -1    0    0  504  502 -0.00000000000E+00 -0.00000000000E+00 -0.33738716156E+02  0.33738716156E+02  0.00000000000E+00 0.  1.
         21    1    1    2  503  505  0.73743893037E+01  0.29759012636E+02  0.53104732724E+03  0.53193161612E+03  0.00000000000E+00 0. -1.
         21    1    1    2  504  506  0.73718778571E+02 -0.42915260362E+02  0.12710780915E+03  0.15307701667E+03  0.00000000000E+00 0. -1.
         21    1    1    2  505  502 -0.12333476583E+03  0.20543764342E+02  0.20192018678E+03  0.23749794219E+03  0.00000000000E+00 0.  1.
         21    1    1    2  506  501  0.42241597959E+02 -0.73875166158E+01  0.17968680078E+03  0.18473298128E+03  0.00000000000E+00 0. -1.
<scales pt_clust_3="30.65910" pt_clust_4="99.12565" pt_clust_5="14000.00000" pt_clust_6="44.79716"></scales>
<clustering>
<clus scale="   30.659">  1  3  2 -1</clus>
<clus scale="   44.797">  1  6  2 -1</clus>
<clus scale="   99.126">  2  4  1 -1</clus>
<clus scale="   30.659">  1  3  2 -1</clus>
</clustering>
</event>
<event>
 6    0  0.2036847E+002  0.1047564E+03  0.7546771E-02  0.1270600E+00
         21   -1    0    0  504  501  0.00000000000E+00  0.00000000000E+00  0.55336645998E+02  0.55336645998E+02  0.00000000000E+00 0.  1.
         21   -1    0    0  505  502 -0.00000000000E+00 -0.00000000000E+00 -0.25966874109E+04  0.25966874109E+04  0.00000000000E+00 0.  1.
         21    1    1    2  503  501  0.57152370226E+00 -0.47960756879E+02 -0.39701596839E+02  0.62263774631E+02  0.00000000000E+00 0. -1.
         21    1    1    2  504  506 -0.48590062424E+02  0.59283183164E+02 -0.50881674954E+01  0.76820436219E+02  0.00000000000E+00 0.  1.
         21    1    1    2  505  503  0.10842634576E+03  0.27692132496E+02 -0.23143199934E+04  0.23170239875E+04  0.00000000000E+00 0.  1.
         21    1    1    2  506  502 -0.60407807042E+02 -0.39014558782E+02 -0.18224100714E+03  0.19591585855E+03  0.00000000000E+00 0.  1.
<scales pt_clust_3="47.96416" pt_clust_4="52.20692" pt_clust_5="104.75643" pt_clust_6="14000.00000"></scales>
<clustering>
<clus scale="   47.964">  1  3  2 -1</clus>
<clus scale="   52.207">  1  4  2 -1</clus>
<clus scale="  104.756">  2  5  1 -1</clus>
<clus scale="   47.964">  1  3  2 -1</clus>
</clustering>
</event>
<event>
 6    0  0.2036847E+002  0.1632952E+03  0.7546771E-02  0.1185026E+00
         21   -1    0    0  506  501  0.00000000000E+00  0.00000000000E+00  0.12879620490E+03  0.12879620490E+03  0.00000000000E+00 0. -1.
         21   -1    0    0  505  502 -0.00000000000E+00 -0.00000000000E+00 -0.49595537441E+03  0.49595537441E+03  0.00000000000E+00 0. -1.
         21    1    1    2  503  502  0.82617080180E+02  0.96728839020E+02  0.22260133844E+02  0.12914164237E+03  0.00000000000E+00 0. -1.
         21    1    1    2  504  501 -0.11552694459E+03 -0.47775633993E+02 -0.27666269549E+03  0.30359715613E+03  0.00000000000E+00 0. -1.
         21    1    1    2  505  504  0.33540108099E+02 -0.95345584299E+02 -0.10357051632E+03  0.14471548344E+03  0.00000000000E+00 0. -1.
         21    1    1    2  506  503 -0.63024368763E+00  0.46392379272E+02 -0.91860915398E+01  0.47297297380E+02  0.00000000000E+00 0. -1.
<scales pt_clust_3="37.00379" pt_clust_4="151.36406" pt_clust_5="101.07284" pt_clust_6="37.00379"></scales>
<clustering>
<clus scale="   37.004">  3  6 -1 -1</clus>
<clus scale="  101.073">  2  5  1 -1</clus>
<clus scale="  151.364">  2  4  1 -1</clus>
<clus scale="  163.295">  1  3  2 -1</clus>
</clustering>
</event>
<event>
 6    0  0.2036847E+002  0.1771153E+03  0.7546771E-02  0.1170624E+00
         21   -1    0    0  504  501  0.00000000000E+00  0.00000000000E+00  0.75953171258E+03  0.75953171258E+03  0.00000000000E+00 0.  1.
         21   -1    0    0  505  502 -0.00000000000E+00 -0.00000000000E+00 -0.16788647134E+03  0.16788647134E+03  0.00000000000E+00 0.  1.
         21    1    1    2  503  506 -0.62686466058E+02 -0.26136234146E+02  0.17626964823E+03  0.18890125634E+03  0.00000000000E+00 0.  1.
         21    1    1    2  504  502  0.49948612156E+02  0.11189893023E+03  0.56316036584E+02  0.13486189387E+03  0.00000000000E+00 0.  1.
         21    1    1    2  505  503  0.12584510083E+03 -0.72512366449E+02 -0.68934019491E+02  0.16076980977E+03  0.00000000000E+00 0.  1.
         21    1    1    2  506  501 -0.11310724693E+03 -0.13250329632E+02  0.42799357593E+03  0.44288522393E+03  0.00000000000E+00 0.  1.
<scales pt_clust_3="30.55440" pt_clust_4="122.54075" pt_clust_5="172.63960" pt_clust_6="30.55440"></scales>
<clustering>
<clus scale="   30.554">  3  6 -1 -1</clus>
<clus scale="  122.541">  2  4  1 -1</clus>
<clus scale="  172.640">  2  5  1 -1</clus>
<clus scale="  177.115">  1  3  2 -1</clus>
</clustering>
</event>
<event>
 6    0  0.2036847E+002  0.1764243E+03  0.7546771E-02  0.1171309E+00
         21   -1    0    0  503  501  0.00000000000E+00  0.00000000000E+00  0.25233232017E+03  0.25233232017E+03  0.00000000000E+00 0.  1.
         21   -1    0    0  506  502 -0.00000000000E+00 -0.00000000000E+00 -0.19672164519E+03  0.19672164519E+03  0.00000000000E+00 0.  1.
         21    1    1    2  503  504 -0.86142514159E+02 -0.41328887067E+02 -0.30418340474E+02  0.10026906347E+03  0.00000000000E+00 0.  1.
         21    1    1    2  504  502 -0.72085347894E+02  0.12066199467E+01 -0.80786571131E+02  0.10827845302E+03  0.00000000000E+00 0.  1.
         21    1    1    2  505  501  0.11198449721E+03  0.18337274597E+02  0.14695060228E+03  0.18566438206E+03  0.00000000000E+00 0.  1.
         21    1    1    2  506  505  0.46243364841E+02  0.21784992524E+02  0.19864984302E+02  0.54842066813E+02  0.00000000000E+00 0.  1.
<scales pt_clust_3="58.14017" pt_clust_4="58.14017" pt_clust_5="173.25101" pt_clust_6="38.96307"></scales>
<clustering>
<clus scale="   38.963">  5  6 -1 -1</clus>
<clus scale="   58.140">  3  4 -1 -1</clus>
<clus scale="  173.251">  1  5  2 -1</clus>
<clus scale="  173.251">  1  3  2 -1</clus>
</clustering>
</event>
<event>
 6    0  0.2036847E+002  0.4035486E+03  0.7546771E-02  0.1042558E+00
         21   -1    0    0  505  501  0.00000000000E+00  0.00000000000E+00  0.96825799715E+03  0.96825799715E+03  0.00000000000E+00 0.  1.
         21   -1    0    0  506  502 -0.00000000000E+00 -0.00000000000E+00 -0.27604101740E+03  0.27604101740E+03  0.00000000000E+00 0. -1.
         21    1    1    2  503  501 -0.40101549196E+02  0.45368145255E+02  0.88038886680E+02  0.10685152512E+03  0.00000000000E+00 0.  1.
         21    1    1    2  504  502  0.22543844253E+03 -0.23607187351E+03  0.37241754072E+03  0.49522443949E+03  0.00000000000E+00 0.  1.
         21    1    1    2  505  504  0.72456971224E+02 -0.84677388576E+02  0.24032596321E+03  0.26490911915E+03  0.00000000000E+00 0. -1.
         21    1    1    2  506  503 -0.25779386456E+03  0.27538111683E+03 -0.85654108583E+01  0.37731393080E+03  0.00000000000E+00 0. -1.
<scales pt_clust_3="60.55083" pt_clust_4="60.51655" pt_clust_5="60.51655" pt_clust_6="390.03186"></scales>
<clustering>
<clus scale="   60.517">  4  5 -1 -1</clus>
<clus scale="   60.551">  1  3  2 -1</clus>
<clus scale="  390.032">  2  6  1 -1</clus>
<clus scale="   60.551">  1  3  2 -1</clus>
</clustering>
</event>
<event>
 6    0  0.2036847E+002  0.2171851E+03  0.7546771E-02  0.1135999E+00
         21   -1    0    0  503  501  0.00000000000E+00  0.00000000000E+00  0.17228648215E+03  0.17228648215E+03  0.00000000000E+00 0.  1.
         21   -1    0    0  506  502 -0.00000000000E+00 -0.00000000000E+00 -0.33450621484E+03  0.33450621484E+03  0.00000000000E+00 0.  1.
         21    1    1    2  503  505 -0.64814502221E+02  0.18984989070E+03 -0.84461238591E+02  0.21766396468E+03  0.00000000000E+00 0.  1.
         21    1    1    2  504  501  0.34365883701E+02 -0.16734388487E+03 -0.79723060394E+01  0.17102206708E+03  0.00000000000E+00 0.  1.
         21    1    1    2  505  502  0.39821254214E+02  0.24779941239E+02 -0.38008728091E+02  0.60369207267E+02  0.00000000000E+00 0.  1.
         21    1    1    2  506  504 -0.93726356937E+01 -0.47285947066E+02 -0.31777459973E+02  0.57737457964E+02  0.00000000000E+00 0. -1.
<scales pt_clust_3="207.62735" pt_clust_4="33.84827" pt_clust_5="46.90179" pt_clust_6="33.84827"></scales>
<clustering>
<clus scale="   33.848">  4  6 -1 -1</clus>
<clus scale="   46.902">  2  5  1 -1</clus>
<clus scale="  207.627">  2  3  1 -1</clus>
<clus scale="  217.185">  1  3  2 -1</clus>
</clustering>
</event>
<event>
 6    0  0.2036847E+002  0.1602569E+03  0.7546771E-02  0.1188407E+00
         21   -1    0    0  504  501  0.00000000000E+00  0.00000000000E+00  0.10321662367E+03  0.10321662367E+03  0.00000000000E+00 0.  1.
         21   -1    0    0  505  502 -0.00000000000E+00 -0.00000000000E+00 -0.26647048601E+03  0.26647048601E+03  0.00000000000E+00 0. -1.
         21    1    1    2  503  502  0.46290029019E+02  0.55991434786E+02 -0.12061716183E+02  0.73643007498E+02  0.00000000000E+00 0.  1.
         21    1    1    2  504  503  0.75010009597E+02  0.34523571594E+02 -0.11346729356E+02  0.83349425928E+02  0.00000000000E+00 0.  1.
         21    1    1    2  505  506 -0.65482010869E+02 -0.24618223602E+02 -0.39627509502E+02  0.80400809636E+02  0.00000000000E+00 0. -1.
         21    1    1    2  506  501 -0.55818027747E+02 -0.65896782779E+02 -0.10021790730E+03  0.13229386662E+03  0.00000000000E+00 0. -1.
<scales pt_clust_3="32.38410" pt_clust_4="155.23746" pt_clust_5="47.41750" pt_clust_6="47.41750"></scales>
<clustering>
<clus scale="   32.384">  3  4 -1 -1</clus>
<clus scale="   47.418">  5  6 -1 -1</clus>
<clus scale="  155.237">  1  3  2 -1</clus>
<clus scale="  155.237">  1  3  2 -1</clus>
</clustering>
</event>
<event>
 6    0  0.2036847E+002  0.1014276E+03  0.7546771E-02  0.1277322E+00
         21   -1    0    0  503  501  0.00000000000E+00  0.00000000000E+00  0.43548061816E+03  0.43548061816E+03  0.00000000000E+00 0. -1.
         21   -1    0    0  504  502 -0.00000000000E+00 -0.00000000000E+00 -0.18145606848E+03  0.18145606848E+03  0.00000000000E+00 0. -1.
         21    1    1    2  503  506 -0.32099767910E+02 -0.94109618355E+01  0.86253170447E+02  0.92512543553E+02  0.00000000000E+00 0.  1.
         21    1    1    2  504  501  0.17936348405E+03  0.40312269690E+01  0.25776665852E+03  0.31405598298E+03  0.00000000000E+00 0. -1.
         21    1    1    2  505  502 -0.95190091697E+02 -0.16958149789E+02 -0.11343298443E+03  0.14904957014E+03  0.00000000000E+00 0. -1.
         21    1    1    2  506  505 -0.52073624446E+02  0.22337884656E+02  0.23437705141E+02  0.61318589972E+02  0.00000000000E+00 0.  1.
<scales pt_clust_3="33.45088" pt_clust_4="101.42763" pt_clust_5="14000.00000" pt_clust_6="59.87727"></scales>
<clustering>
<clus scale="   33.451">  1  3  2 -1</clus>
<clus scale="   59.877">  1  6  2 -1</clus>
<clus scale="  101.428">  1  4  2 -1</clus>
<clus scale="   33.451">  1  3  2 -1</clus>
</clustering>
</event>
<event>
 6    0  0.2036847E+002  0.1530745E+03  0.7546771E-02  0.1196745E+00
         21   -1    0    0  506  501  0.00000000000E+00  0.00000000000E+00  0.77295097026E+02  0.77295097026E+02  0.00000000000E+00 0.  1.
         21   -1    0    0  505  502 -0.00000000000E+00 -0.00000000000E+00 -0.13998008151E+04  0.13998008151E+04  0.00000000000E+00 0. -1.
         21    1    1    2  503  502  0.13134369349E+03 -0.42786584479E+02 -0.85607544293E+03  0.86714878863E+03  0.00000000000E+00 0. -1.
         21    1    1    2  504  503 -0.93848401661E+02 -0.24908970629E+02 -0.18926419887E+02  0.98925167080E+02  0.00000000000E+00 0.  1.
         21    1    1    2  505  501  0.68069724960E+01  0.35932832993E+02 -0.45458338086E+03  0.45605213903E+03  0.00000000000E+00 0. -1.
         21    1    1    2  506  504 -0.44302264328E+02  0.31762722114E+02  0.70795256033E+01  0.54969817386E+02  0.00000000000E+00 0.  1.
<scales pt_clust_3="137.91690" pt_clust_4="50.19245" pt_clust_5="36.57189" pt_clust_6="50.19245"></scales>
<clustering>
<clus scale="   36.572">  2  5  1 -1</clus>
<clus scale="   50.192">  4  6 -1 -1</clus>
<clus scale="  137.917">  2  3  1 -1</clus>
<clus scale="  153.075">  1  3  2 -1</clus>
</clustering>
</event>
<event>
 6    0  0.2036847E+002  0.2106787E+03  0.7546771E-02  0.1141030E+00
         21   -1    0    0  505  501  0.00000000000E+00  0.00000000000E+00  0.18213001874E+04  0.18213001874E+04  0.00000000000E+00 0. -1.
         21   -1    0    0  503  502 -0.00000000000E+00 -0.00000000000E+00 -0.12667748862E+03  0.12667748862E+03  0.00000000000E+00 0. -1.
         21    1    1    2  503  506  0.10610933100E+03  0.84837201246E+02 -0.30940057878E+02  0.13933351364E+03  0.00000000000E+00 0. -1.
         21    1    1    2  504  501 -0.66772412974E+02 -0.24982626672E+03  0.11639241418E+04  0.11923049637E+04  0.00000000000E+00 0. -1.
         21    1    1    2  505  502 -0.77853859780E+02  0.11782741459E+03  0.52843975649E+03  0.54698546539E+03  0.00000000000E+00 0. -1.
         21    1    1    2  506  504  0.38516941753E+02  0.47161650885E+02  0.33198858321E+02  0.69353733209E+02  0.00000000000E+00 0.  1.
<scales pt_clust_3="48.29956" pt_clust_4="197.94115" pt_clust_5="141.22508" pt_clust_6="48.29956"></scales>
<clustering>
<clus scale="   48.300">  3  6 -1 -1</clus>
<clus scale="  141.225">  1  5  2 -1</clus>
<clus scale="  197.941">  1  4  2 -1</clus>
<clus scale="  141.225">  1  3  2 -1</clus>
</clustering>
</event>
<event>
 6    0  0.2036847E+002  0.7862934E+02  0.7546771E-02  0.1332987E+00
         21   -1    0    0  503  501  0.00000000000E+00  0.00000000000E+00  0.17254129659E+03  0.17254129659E+03  0.00000000000E+00 0.  1.
         21   -1    0    0  501  502 -0.00000000000E+00 -0.00000000000E+00 -0.24571741401E+03  0.24571741401E+03  0.00000000000E+00 0. -1.
         21    1    1    2  503  504 -0.15057360034E+02 -0.50491435374E+02  0.93740649261E+02  0.10753333651E+03  0.00000000000E+00 0.  1.
         21    1    1    2  504  506  0.81537010810E+02  0.52850062748E+02 -0.35015934777E+01  0.97230007823E+02  0.00000000000E+00 0.  1.
         21    1    1    2  505  502  0.88633714382E+01  0.46660120524E+02 -0.57663294802E+02  0.74704630164E+02  0.00000000000E+00 0. -1.
         21    1    1    2  506  505 -0.75343022214E+02 -0.49018747898E+02 -0.10575187840E+03  0.13879073610E+03  0.00000000000E+00 0. -1.
<scales pt_clust_3="50.87425" pt_clust_4="78.62934" pt_clust_5="47.49449" pt_clust_6="14000.00000"></scales>
<clustering>
<clus scale="   47.494">  2  5  1 -1</clus>
<clus scale="   50.874">  1  3  2 -1</clus>
<clus scale="   78.629">  1  4  2 -1</clus>
<clus scale="   50.874">  1  3  2 -1</clus>
</clustering>
</event>
<event>
 6    0  0.2036847E+002  0.1748726E+03  0.7546771E-02  0.1172860E+00
         21   -1    0    0  506  501  0.00000000000E+00  0.00000000000E+00  0.13932291160E+03  0.13932291160E+03  0.00000000000E+00 0. -1.
         21   -1    0    0  504  502 -0.00000000000E+00 -0.00000000000E+00 -0.59038027925E+03  0.59038027925E+03  0.00000000000E+00 0. -1.
         21    1    1    2  503  501  0.13577860111E+02 -0.20025024919E+03 -0.40831708168E+03  0.45498061472E+03  0.00000000000E+00 0. -1.
         21    1    1    2  504  503  0.41122050734E+02  0.42635665151E+02 -0.80046810392E+02  0.99580695184E+02  0.00000000000E+00 0.  1.
         21    1    1    2  505  502 -0.45005658536E+02  0.79163896750E+02  0.10467579669E+02  0.91662435452E+02  0.00000000000E+00 0. -1.
         21    1    1    2  506  505 -0.96942523090E+01  0.78450687287E+02  0.26838944748E+02  0.83479445487E+02  0.00000000000E+00 0. -1.
<scales pt_clust_3="170.68092" pt_clust_4="59.23532" pt_clust_5="35.45906" pt_clust_6="35.45906"></scales>
<clustering>
<clus scale="   35.459">  5  6 -1 -1</clus>
<clus scale="   59.235">  2  4  1 -1</clus>
<clus scale="  170.681">  2  3  1 -1</clus>
<clus scale="  174.873">  1  3  2 -1</clus>
</clustering>
</event>
<event>
 6    0  0.2036847E+002  0.1111067E+03  0.7546771E-02  0.1258534E+00
         21   -1    0    0  504  501  0.00000000000E+00  0.00000000000E+00  0.28351961313E+02  0.28351961313E+02  0.00000000000E+00 0. -1.
         21   -1    0    0  503  502 -0.00000000000E+00 -0.00000000000E+00 -0.69319863345E+03  0.69319863345E+03  0.00000000000E+00 0. -1.
         21    1    1    2  503  506  0.36600760381E+02 -0.75407429466E+02 -0.16100437695E+03  0.18151668099E+03  0.00000000000E+00 0. -1.
         21    1    1    2  504  505 -0.62745228357E+02  0.35186883067E+02 -0.18638558781E+03  0.19978655552E+03  0.00000000000E+00 0. -1.
         21    1    1    2  505  502 -0.27328353010E+02  0.44797821493E+02 -0.24216801893E+03  0.24778828277E+03  0.00000000000E+00 0. -1.
         21    1    1    2  506  501  0.53472820986E+02 -0.45772750941E+01 -0.75288688452E+02  0.92459075489E+02  0.00000000000E+00 0. -1.
<scales pt_clust_3="100.94777" pt_clust_4="39.64114" pt_clust_5="39.64114" pt_clust_6="53.66837"></scales>
<clustering>
<clus scale="   39.641">  4  5 -1 -1</clus>
<clus scale="   53.668">  1  6  2 -1</clus>
<clus scale="  100.948">  1  3  2 -1</clus>
<clus scale="   53.668">  1  3  2 -1</clus>
</clustering>
</event>
<event>
 6    0  0.2036847E+002  0.1334563E+03  0.7546771E-02  0.1222415E+00
         21   -1    0    0  503  501  0.00000000000E+00  0.00000000000E+00  0.54258807926E+03  0.54258807926E+03  0.00000000000E+00 0. -1.
         21   -1    0    0  505  502 -0.00000000000E+00 -0.00000000000E+00 -0.55574430021E+03  0.55574430021E+03  0.00000000000E+00 0.  1.
         21    1    1    2  503  506 -0.68486649210E+01 -0.89471087932E+02  0.39480253096E+03  0.40487160711E+03  0.00000000000E+00 0. -1.
         21    1    1    2  504  501  0.47168799043E+02  0.47207413912E+02  0.96152625623E+02  0.11704171455E+03  0.00000000000E+00 0.  1.
         21    1    1    2  505  504 -0.11890959924E+03 -0.68169285936E+02 -0.31709066821E+03  0.34544614082E+03  0.00000000000E+00 0.  1.
         21    1    1    2  506  502  0.78589465123E+02  0.11043295996E+03 -0.18702070932E+03  0.23097291700E+03  0.00000000000E+00 0.  1.
<scales pt_clust_3="58.80501" pt_clust_4="66.73407" pt_clust_5="14000.00000" pt_clust_6="133.45630"></scales>
<clustering>
<clus scale="   66.734">  1  4  2 -1</clus>
<clus scale="   58.805">  1  3  2 -1</clus>
<clus scale="  133.456">  1  6  2 -1</clus>
<clus scale="   66.734">  1  3  2 -1</clus>
</clustering>
</event>
<event>
 6    0  0.2036847E+002  0.1284896E+03  0.7546771E-02  0.1229714E+00
         21   -1    0    0  505  501  0.00000000000E+00  0.00000000000E+00  0.19062992763E+03  0.19062992763E+03  0.00000000000E+00 0.  1.
         21   -1    0    0  506  502 -0.00000000000E+00 -0.00000000000E+00 -0.14950495080E+03  0.14950495080E+03  0.00000000000E+00 0.  1.
         21    1    1    2  503  502  0.56207954652E+02  0.16594118442E+02 -0.39486995081E+02  0.70667685073E+02  0.00000000000E+00 0.  1.
         21    1    1    2  504  501 -0.11607571264E+02 -0.78819840961E+02  0.55931288189E+02  0.97342755448E+02  0.00000000000E+00 0.  1.
         21    1    1    2  505  503  0.38828601206E+01  0.10203233955E+03 -0.60204642261E+01  0.10228353194E+03  0.00000000000E+00 0.  1.
         21    1    1    2  506  504 -0.48483243509E+02 -0.39806617030E+02  0.30701147947E+02  0.69840905963E+02  0.00000000000E+00 0. -1.
<scales pt_clust_3="58.60630" pt_clust_4="46.63482" pt_clust_5="117.24986" pt_clust_6="46.63482"></scales>
<clustering>
<clus scale="   46.635">  4  6 -1 -1</clus>
<clus scale="   58.606">  2  3  1 -1</clus>
<clus scale="  117.250">  2  5  1 -1</clus>
<clus scale="  128.490">  1  3  2 -1</clus>
</clustering>
</event>
<event>
 6    0  0.2036847E+002  0.2236073E+03  0.7546771E-02  0.1131222E+00
         21   -1    0    0  505  501  0.00000000000E+00  0.00000000000E+00  0.60419317999E+03  0.60419317999E+03  0.00000000000E+00 0.  1.
         21   -1    0    0  504  502 -0.00000000000E+00 -0.00000000000E+00 -0.76421798510E+03  0.76421798510E+03  0.00000000000E+00 0. -1.
         21    1    1    2  503  506 -0.14113511132E+03  0.21638464796E+03  0.39716088664E+03  0.47379130996E+03  0.00000000000E+00 0.  1.
         21    1    1    2  504  503  0.86884287204E+02 -0.15924263573E+03 -0.64029768448E+03  0.66549847569E+03  0.00000000000E+00 0. -1.
         21    1    1    2  505  502  0.57621224863E+02 -0.12058361277E+02 -0.56971731819E+02  0.81923060599E+02  0.00000000000E+00 0. -1.
         21    1    1    2  506  501 -0.33704007485E+01 -0.45083650949E+02  0.14008372455E+03  0.14719831884E+03  0.00000000000E+00 0.  1.
<scales pt_clust_3="14000.00000" pt_clust_4="223.60729" pt_clust_5="59.04270" pt_clust_6="45.20946"></scales>
<clustering>
<clus scale="   45.209">  1  6  2 -1</clus>
<clus scale="   59.043">  2  5  1 -1</clus>
<clus scale="  223.607">  2  4  1 -1</clus>
<clus scale="   45.209">  1  3  2 -1</clus>
</clustering>
</event>
<event>
 6    0  0.2036847E+002  0.1490763E+03  0.7546771E-02  0.1201613E+00
         21   -1    0    0  504  501  0.00000000000E+00  0.00000000000E+00  0.24603739183E+03  0.24603739183E+03  0.00000000000E+00 0. -1.
         21   -1    0    0  503  502 -0.00000000000E+00 -0.00000000000E+00 -0.12279201584E+03  0.12279201584E+03  0.00000000000E+00 0.  1.
         21    1    1    2  503  506  0.32750187548E+02  0.17586997210E+02 -0.68525565131E+01  0.37799931033E+02  0.00000000000E+00 0.  1.
         21    1    1    2  504  502 -0.55092056203E+02  0.12909736614E+03  0.10194121982E+03  0.17347413900E+03  0.00000000000E+00 0. -1.
         21    1    1    2  505  501  0.89011185764E+01 -0.10264334303E+03  0.39147795718E+02  0.11021540586E+03  0.00000000000E+00 0.  1.
         21    1    1    2  506  505  0.13440750078E+02 -0.44041020322E+02 -0.10991083043E+02  0.47339931772E+02  0.00000000000E+00 0. -1.
<scales pt_clust_3="37.17361" pt_clust_4="142.15596" pt_clust_5="30.01247" pt_clust_6="30.01247"></scales>
<clustering>
<clus scale="   30.012">  5  6 -1 -1</clus>
<clus scale="   37.174">  2  3  1 -1</clus>
<clus scale="  142.156">  1  4  2 -1</clus>
<clus scale="  142.156">  1  3  2 -1</clus>
</clustering>
</event>
<event>
 6    0  0.2036847E+002  0.8634334E+02  0.7546771E-02  0.1311956E+00
         21   -1    0    0  504  501  0.00000000000E+00  0.00000000000E+00  0.16565781350E+03  0.16565781350E+03  0.00000000000E+00 0.  1.
         21   -1    0    0  503  502 -0.00000000000E+00 -0.00000000000E+00 -0.20095267975E+04  0.20095267975E+04  0.00000000000E+00 0. -1.
         21    1    1    2  503  501  0.37570703617E+02 -0.30169830490E+02 -0.20829490151E+03  0.21379556225E+03  0.00000000000E+00 0. -1.
         21    1    1    2  504  505 -0.17188981509E+01 -0.98153328856E+02  0.11341766381E+03  0.15000199012E+03  0.00000000000E+00 0.  1.
         21    1    1    2  505  506  0.15400162731E+02  0.63105301358E+02 -0.47030434611E+01  0.65127280685E+02  0.00000000000E+00 0. -1.
         21    1    1    2  506  502 -0.51251968197E+02  0.65217857988E+02 -0.17442887029E+04  0.17462597780E+04  0.00000000000E+00 0. -1.
<scales pt_clust_3="48.18482" pt_clust_4="14000.00000" pt_clust_5="86.34334" pt_clust_6="38.86582"></scales>
<clustering>
<clus scale="   48.185">  2  3  1 -1</clus>
<clus scale="   38.866">  2  6  1 -1</clus>
<clus scale="   86.343">  2  5  1 -1</clus>
<clus scale="   86.343">  1  3  2 -1</clus>
</clustering>
</event>
<event>
 6    0  0.2036847E+002  0.1143072E+03  0.7546771E-02  0.1252795E+00
         21   -1    0    0  503  501  0.00000000000E+00  0.00000000000E+00  0.21080496678E+03  0.21080496678E+03  0.00000000000E+00 0.  1.
         21   -1    0    0  504  502 -0.00000000000E+00 -0.00000000000E+00 -0.60684331437E+03  0.60684331437E+03  0.00000000000E+00 0. -1.
         21    1    1    2  503  506 -0.36559033726E+02  0.69110706412E+02 -0.13763254396E+01  0.78196847504E+02  0.00000000000E+00 0.  1.
         21    1    1    2  504  501 -0.68822735417E+02 -0.86714371051E+02  0.14794233607E+03  0.18477793661E+03  0.00000000000E+00 0.  1.
         21    1    1    2  505  502  0.39440629868E+02  0.71131479985E+01 -0.31306969446E+03  0.31562445049E+03  0.00000000000E+00 0. -1.
         21    1    1    2  506  505  0.65941139275E+02  0.10490516640E+02 -0.22953466375E+03  0.23904904654E+03  0.00000000000E+00 0. -1.
<scales pt_clust_3="78.18473" pt_clust_4="106.01014" pt_clust_5="33.12398" pt_clust_6="33.12398"></scales>
<clustering>
<clus scale="   33.124">  5  6 -1 -1</clus>
<clus scale="   78.185">  1  3  2 -1</clus>
<clus scale="  106.010">  1  4  2 -1</clus>
<clus scale="   78.185">  1  3  2 -1</clus>
</clustering>
</event>
<event>
 6    0  0.2036847E+002  0.3149373E+03  0.7546771E-02  0.1078003E+00
         21   -1    0    0  506  501  0.00000000000E+00  0.00000000000E+00  0.55296767766E+03  0.55296767766E+03  0.00000000000E+00 0.  1.
         21   -1    0    0  505  502 -0.00000000000E+00 -0.00000000000E+00 -0.73394981198E+03  0.73394981198E+03  0.00000000000E+00 0.  1.
         21    1    1    2  503  504  0.30339820768E+02 -0.64855085905E+02  0.95264656654E+02  0.11917231935E+03  0.00000000000E+00 0. -1.
         21    1    1    2  504  502 -0.23069587021E+03  0.21466155476E+03 -0.61970560753E+03  0.69522313513E+03  0.00000000000E+00 0.  1.
         21    1    1    2  505  501  0.82831371527E+02 -0.54477117006E+02  0.21423548561E+01  0.99163410947E+02  0.00000000000E+00 0.  1.
         21    1    1    2  506  503  0.11752467792E+03 -0.95329351845E+02  0.34131646170E+03  0.37335862421E+03  0.00000000000E+00 0.  1.
<scales pt_clust_3="45.94125" pt_clust_4="307.77396" pt_clust_5="99.14027" pt_clust_6="45.94125"></scales>
<clustering>
<clus scale="   45.941">  3  6 -1 -1</clus>
<clus scale="   99.140">  1  5  2 -1</clus>
<clus scale="  307.774">  2  4  1 -1</clus>
<clus scale="   99.140">  1  3  2 -1</clus>
</clustering>
</event>
<event>
 6    0  0.2036847E+002  0.7803134E+02  0.7546771E-02  0.1334733E+00
         21   -1    0    0  505  501  0.00000000000E+00  0.00000000000E+00  0.12450940319E+03  0.12450940319E+03  0.00000000000E+00 0. -1.
         21   -1    0    0  506  502 -0.00000000000E+00 -0.00000000000E+00 -0.24750236505E+03  0.24750236505E+03  0.00000000000E+00 0. -1.
         21    1    1    2  503  504  0.65539037384E+02 -0.83211102120E+02  0.39564627059E+02  0.11306994584E+03  0.00000000000E+00 0. -1.
         21    1    1    2  504  502 -0.88790019815E+02 -0.60097486043E+01 -0.95594400485E+02  0.13060656224E+03  0.00000000000E+00 0.  1.
         21    1    1    2  505  503 -0.19023680346E+01  0.52870347178E+02 -0.63051453190E+01  0.53278959002E+02  0.00000000000E+00 0. -1.
         21    1    1    2  506  501  0.25153350466E+02  0.36350503547E+02 -0.60658043118E+02  0.75056301153E+02  0.00000000000E+00 0. -1.
<scales pt_clust_3="14000.00000" pt_clust_4="78.03134" pt_clust_5="58.94234" pt_clust_6="44.20464"></scales>
<clustering>
<clus scale="   44.205">  2  6  1 -1</clus>
<clus scale="   58.942">  1  5  2 -1</clus>
<clus scale="   78.031">  2  4  1 -1</clus>
<clus scale="   58.942">  1  3  2 -1</clus>
</clustering>
</event>
<event>
 6    0  0.2036847E+002  0.2371905E+03  0.7546771E-02  0.1121679E+00
         21   -1    0    0  503  501  0.00000000000E+00  0.00000000000E+00  0.15338811214E+03  0.15338811214E+03  0.00000000000E+00 0.  1.
         21   -1    0    0  501  502 -0.00000000000E+00 -0.00000000000E+00 -0.13013061335E+04  0.13013061335E+04  0.00000000000E+00 0. -1.
         21    1    1    2  503  504  0.33838816868E+02 -0.19040028299E+03  0.41934939084E+02  0.19787842835E+03  0.00000000000E+00 0.  1.
         21    1    1    2  504  505  0.22614920626E+02 -0.42123083806E+02 -0.32341032289E+02  0.57721150315E+02  0.00000000000E+00 0.  1.
         21    1    1    2  505  506  0.35372842882E+02  0.16267945730E+03 -0.40645422599E+03  0.43922759666E+03  0.00000000000E+00 0.  1.
         21    1    1    2  506  502 -0.91826580376E+02  0.69843909492E+02 -0.75105770215E+03  0.75986707030E+03  0.00000000000E+00 0. -1.
<scales pt_clust_3="44.43092" pt_clust_4="44.43092" pt_clust_5="219.71424" pt_clust_6="115.37024"></scales>
<clustering>
<clus scale="   44.431">  3  4 -1 -1</clus>
<clus scale="  115.370">  2  6  1 -1</clus>
<clus scale="  219.714">  2  5  1 -1</clus>
<clus scale="  237.190">  1  3  2 -1</clus>
</clustering>
</event>
<event>
 6    0  0.2036847E+002  0.3294469E+03  0.7546771E-02  0.1071382E+00
         21   -1    0    0  504  501  0.00000000000E+00  0.00000000000E+00  0.51941325729E+03  0.51941325729E+03  0.00000000000E+00 0. -1.
         21   -1    0    0  506  502 -0.00000000000E+00 -0.00000000000E+00 -0.42502893541E+03  0.42502893541E+03  0.00000000000E+00 0. -1.
         21    1    1    2  503  502  0.78513281206E+02 -0.76953159410E+02  0.51903012289E+02  0.12157321561E+03  0.00000000000E+00 0. -1.
         21    1    1    2  504  503  0.13684419947E+03 -0.22203169210E+03  0.22704809889E+03  0.34579653907E+03  0.00000000000E+00 0. -1.
         21    1    1    2  505  501 -0.23852610809E+02  0.52025166909E+02  0.57989257403E+02  0.81475879919E+02  0.00000000000E+00 0. -1.
         21    1    1    2  506  505 -0.19150486986E+03  0.24695968460E+03 -0.24255604670E+03  0.39559655811E+03  0.00000000000E+00 0. -1.
<scales pt_clust_3="45.21427" pt_clust_4="45.21427" pt_clust_5="57.23255" pt_clust_6="322.00197"></scales>
<clustering>
<clus scale="   45.214">  3  4 -1 -1</clus>
<clus scale="   57.233">  1  5  2 -1</clus>
<clus scale="  322.002">  2  6  1 -1</clus>
<clus scale="   57.233">  1  3  2 -1</clus>
</clustering>
</event>
<event>
 6    0  0.2036847E+002  0.3075143E+03  0.7546771E-02  0.1081543E+00
         21   -1    0    0  504  501  0.00000000000E+00  0.00000000000E+00  0.22333290335E+03  0.22333290335E+03  0.00000000000E+00 0.  1.
         21   -1    0    0  503  502 -0.00000000000E+00 -0.00000000000E+00 -0.98768142005E+03  0.98768142005E+03  0.00000000000E+00 0.  1.
         21    1    1    2  503  505  0.31965142699E+02  0.30366149929E+03 -0.70097957943E+03  0.76459430240E+03  0.00000000000E+00 0.  1.
         21    1    1    2  504  502  0.45645358553E+02 -0.78808599666E+01 -0.12410760530E+03  0.13247001323E+03  0.00000000000E+00 0.  1.
         21    1    1    2  505  506 -0.31731307192E+02 -0.12961603952E+03  0.45105292129E+02  0.14086050169E+03  0.00000000000E+00 0. -1.
         21    1    1    2  506  501 -0.45879194060E+02 -0.16616459980E+03  0.15633375899E+02  0.17308950608E+03  0.00000000000E+00 0.  1.
<scales pt_clust_3="305.28539" pt_clust_4="46.32069" pt_clust_5="32.51648" pt_clust_6="32.51648"></scales>
<clustering>
<clus scale="   32.516">  5  6 -1 -1</clus>
<clus scale="   46.321">  2  4  1 -1</clus>
<clus scale="  305.285">  2  3  1 -1</clus>
<clus scale="  307.514">  1  3  2 -1</clus>
</clustering>
</event>
<event>
 6    0  0.2036847E+002  0.1460733E+03  0.7546771E-02  0.1205383E+00
         21   -1    0    0  504  501  0.00000000000E+00  0.00000000000E+00  0.42338000301E+03  0.42338000301E+03  0.00000000000E+00 0. -1.
         21   -1    0    0  503  502 -0.00000000000E+00 -0.00000000000E+00 -0.11211409225E+04  0.11211409225E+04  0.00000000000E+00 0.  1.
         21    1    1    2  503  505 -0.90953465668E+02  0.11615918384E+03 -0.10594935343E+04  0.10697158680E+04  0.00000000000E+00 0.  1.
         21    1    1    2  504  506  0.10004061413E+03 -0.18559654208E+02  0.24306623213E+03  0.26350290025E+03  0.00000000000E+00 0. -1.
         21    1    1    2  505  501 -0.24190105551E+02  0.19491766960E+02 -0.13684131322E+02  0.33946216812E+02  0.00000000000E+00 0. -1.
         21    1    1    2  506  502  0.15102957091E+02 -0.11709129660E+03  0.13235051404E+03  0.17735594046E+03  0.00000000000E+00 0. -1.
<scales pt_clust_3="146.07333" pt_clust_4="85.47046" pt_clust_5="31.06590" pt_clust_6="14000.00000"></scales>
<clustering>
<clus scale="   31.066">  1  5  2 -1</clus>
<clus scale="   85.470">  1  4  2 -1</clus>
<clus scale="  146.073">  2  3  1 -1</clus>
<clus scale="   31.066">  1  3  2 -1</clus>
</clustering>
</event>
<event>
 6    0  0.2036847E+002  0.6887916E+02  0.7546771E-02  0.1363947E+00
         21   -1    0    0  506  501  0.00000000000E+00  0.00000000000E+00  0.71568985049E+03  0.71568985049E+03  0.00000000000E+00 0. -1.
         21   -1    0    0  503  502 -0.00000000000E+00 -0.00000000000E+00 -0.26131426280E+03  0.26131426280E+03  0.00000000000E+00 0. -1.
         21    1    1    2  503  504 -0.49971340635E+02 -0.40380137747E+02 -0.47696364133E+02  0.80016458063E+02  0.00000000000E+00 0. -1.
         21    1    1    2  504  505 -0.26475517711E+02  0.95677038603E+02  0.42952374123E+03  0.44084656405E+03  0.00000000000E+00 0. -1.
         21    1    1    2  505  501 -0.90597311343E+01 -0.38246938389E+02  0.25283808407E+03  0.25587497686E+03  0.00000000000E+00 0. -1.
         21    1    1    2  506  502  0.85506589481E+02 -0.17049962467E+02 -0.18028987348E+03  0.20026611432E+03  0.00000000000E+00 0. -1.
<scales pt_clust_3="65.34143" pt_clust_4="68.87916" pt_clust_5="39.30531" pt_clust_6="14000.00000"></scales>
<clustering>
<clus scale="   39.305">  1  5  2 -1</clus>
<clus scale="   65.341">  2  3  1 -1</clus>
<clus scale="   68.879">  1  4  2 -1</clus>
<clus scale="   39.305">  1  3  2 -1</clus>
</clustering>
</event>
<event>
 6    0  0.2036847E+002  0.2097416E+03  0.7546771E-02  0.1141771E+00
         21   -1    0    0  504  501  0.00000000000E+00  0.00000000000E+00  0.28219599425E+03  0.28219599425E+03  0.00000000000E+00 0. -1.
         21   -1    0    0  503  502 -0.00000000000E+00 -0.00000000000E+00 -0.53566224543E+03  0.53566224543E+03  0.00000000000E+00 0.  1.
         21    1    1    2  503  501 -0.13571104020E+02  0.16710738508E+03 -0.43240586034E+03  0.46377136724E+03  0.00000000000E+00 0.  1.
         21    1    1    2  504  506 -0.29352372355E+02 -0.11856939657E+03  0.16980806603E+03  0.20917706101E+03  0.00000000000E+00 0. -1.
         21    1    1    2  505  502  0.37358929895E+02  0.30923026193E+02 -0.29096956106E+02  0.56555778188E+02  0.00000000000E+00 0. -1.
         21    1    1    2  506  505  0.55645464799E+01 -0.79461014712E+02  0.38228499240E+02  0.88354033246E+02  0.00000000000E+00 0. -1.
<scales pt_clust_3="196.28527" pt_clust_4="59.53914" pt_clust_5="48.49663" pt_clust_6="59.53914"></scales>
<clustering>
<clus scale="   48.497">  2  5  1 -1</clus>
<clus scale="   59.539">  4  6 -1 -1</clus>
<clus scale="  196.285">  2  3  1 -1</clus>
<clus scale="  209.742">  1  3  2 -1</clus>
</clustering>
</event>
<event>
 6    0  0.2036847E+002  0.7786462E+02  0.7546771E-02  0.1335223E+00
         21   -1    0    0  505  501  0.00000000000E+00  0.00000000000E+00  0.73966879000E+03  0.73966879000E+03  0.00000000000E+00 0. -1.
         21   -1    0    0  503  502 -0.00000000000E+00 -0.00000000000E+00 -0.15410093879E+03  0.15410093879E+03  0.00000000000E+00 0.  1.
         21    1    1    2  503  504 -0.78735851737E+02 -0.45191487539E+02  0.57142750948E+03  0.57859398847E+03  0.00000000000E+00 0. -1.
         21    1    1    2  504  501 -0.34128546775E+02  0.42386356921E+00  0.36103585203E+02  0.49683057774E+02  0.00000000000E+00 0. -1.
         21    1    1    2  505  506  0.35084025831E+02  0.42364416942E+02  0.10387339259E+03  0.11753856550E+03  0.00000000000E+00 0. -1.
         21    1    1    2  506  502  0.77780372680E+02  0.24032070276E+01 -0.12583663606E+03  0.14795411706E+03  0.00000000000E+00 0.  1.
<scales pt_clust_3="77.86462" pt_clust_4="34.13118" pt_clust_5="51.77126" pt_clust_6="14000.00000"></scales>
<clustering>
<clus scale="   34.131">  1  4  2 -1</clus>
<clus scale="   51.771">  1  5  2 -1</clus>
<clus scale="   77.865">  1  3  2 -1</clus>
<clus scale="   34.131">  1  3  2 -1</clus>
</clustering>
</event>
<event>
 6    0  0.2036847E+002  0.1426244E+03  0.7546771E-02  0.1209841E+00
         21   -1    0    0  504  501  0.00000000000E+00  0.00000000000E+00  0.10360078461E+04  0.10360078461E+04  0.00000000000E+00 0. -1.
         21   -1    0    0  505  502 -0.00000000000E+00 -0.00000000000E+00 -0.12311455535E+03  0.12311455535E+03  0.00000000000E+00 0. -1.
         21    1    1    2  503  502  0.15592051255E+02 -0.29693225658E+02  0.15942986716E+02  0.37134600277E+02  0.00000000000E+00 0.  1.
         21    1    1    2  504  503 -0.27432139035E+02 -0.11958596379E+03 -0.59711866771E+02  0.13645084104E+03  0.00000000000E+00 0. -1.
         21    1    1    2  505  506  0.37848387151E+02  0.73325952560E+01  0.33230489171E+02  0.50897276683E+02  0.00000000000E+00 0.  1.
         21    1    1    2  506  501 -0.26008299372E+02  0.14194659419E+03  0.92343168164E+03  0.93463968346E+03  0.00000000000E+00 0. -1.
<scales pt_clust_3="33.53803" pt_clust_4="142.62443" pt_clust_5="39.39127" pt_clust_6="14000.00000"></scales>
<clustering>
<clus scale="   33.538">  2  3  1 -1</clus>
<clus scale="   39.391">  2  5  1 -1</clus>
<clus scale="  142.624">  2  4  1 -1</clus>
<clus scale="  142.624">  1  3  2 -1</clus>
</clustering>
</event>
<event>
 6    0  0.2036847E+002  0.1369980E+03  0.7546771E-02  0.1217426E+00
         21   -1    0    0  506  501  0.00000000000E+00  0.00000000000E+00  0.66925304351E+03  0.66925304351E+03  0.00000000000E+00 0. -1.
         21   -1    0    0  504  502 -0.00000000000E+00 -0.00000000000E+00 -0.21804850502E+03  0.21804850502E+03  0.00000000000E+00 0. -1.
         21    1    1    2  503  501  0.78638065242E+02  0.46909066206E+02  0.51695735325E+03  0.52500410558E+03  0.00000000000E+00 0. -1.
         21    1    1    2  504  505 -0.53865498235E+02 -0.15365994344E+02 -0.27717052301E+02  0.62496725278E+02  0.00000000000E+00 0. -1.
         21    1    1    2  505  503 -0.52958359588E+02 -0.82915616302E+02 -0.14652910652E+03  0.17649466376E+03  0.00000000000E+00 0. -1.
         21    1    1    2  506  502  0.28185792581E+02  0.51372544440E+02  0.10849334407E+03  0.12330605392E+03  0.00000000000E+00 0.  1.
<scales pt_clust_3="136.99803" pt_clust_4="56.01433" pt_clust_5="14000.00000" pt_clust_6="56.93575"></scales>
<clustering>
<clus scale="   56.014">  2  4  1 -1</clus>
<clus scale="   56.936">  1  6  2 -1</clus>
<clus scale="  136.998">  1  3  2 -1</clus>
<clus scale="   56.936">  1  3  2 -1</clus>
</clustering>
</event>
<event>
 6    0  0.2036847E+002  0.1419146E+03  0.7546771E-02  0.1210776E+00
         21   -1    0    0  506  501  0.00000000000E+00  0.00000000000E+00  0.93061967589E+03  0.93061967589E+03  0.00000000000E+00 0.  1.
         21   -1    0    0  503  502 -0.00000000000E+00 -0.00000000000E+00 -0.19087502218E+03  0.19087502218E+03  0.00000000000E+00 0.  1.
         21    1    1    2  503  505 -0.64781306252E+02  0.56006780582E+02 -0.13002019190E+03  0.15568759556E+03  0.00000000000E+00 0.  1.
         21    1    1    2  504  502 -0.46794855939E+02  0.54697171583E+02 -0.54894142726E+01  0.72191916380E+02  0.00000000000E+00 0.  1.
         21    1    1    2  505  501  0.58007283643E+02 -0.83058189552E+02  0.33433038216E+03  0.34934268597E+03  0.00000000000E+00 0.  1.
         21    1    1    2  506  504  0.53568878549E+02 -0.27645762613E+02  0.54092387772E+03  0.54427250016E+03  0.00000000000E+00 0.  1.
<scales pt_clust_3="14000.00000" pt_clust_4="67.21251" pt_clust_5="141.91460" pt_clust_6="60.28195"></scales>
<clustering>
<clus scale="   60.282">  1  6  2 -1</clus>
<clus scale="   67.213">  2  4  1 -1</clus>
<clus scale="  141.915">  1  5  2 -1</clus>
<clus scale="   60.282">  1  3  2 -1</clus>
</clustering>
</event>
<event>
 6    0  0.2036847E+002  0.1038090E+03  0.7546771E-02  0.1272484E+00
         21   -1    0    0  506  501  0.00000000000E+00  0.00000000000E+00  0.16405736785E+03  0.16405736785E+03  0.00000000000E+00 0.  1.
         21   -1    0    0  504  502 -0.00000000000E+00 -0.00000000000E+00 -0.37630504715E+03  0.37630504715E+03  0.00000000000E+00 0. -1.
         21    1    1    2  503  505  0.61092488745E+02  0.31176273105E+01  0.72571731586E+02  0.94914003216E+02  0.00000000000E+00 0.  1.
         21    1    1    2  504  503 -0.76090574932E+02 -0.34929538328E+02 -0.17623429707E+03  0.19511118806E+03  0.00000000000E+00 0. -1.
         21    1    1    2  505  501  0.33822524931E+02 -0.30512047068E+02  0.56677067162E+02  0.72713397328E+02  0.00000000000E+00 0.  1.
         21    1    1    2  506  502 -0.18824438743E+02  0.62323958085E+02 -0.16526218098E+03  0.17762382641E+03  0.00000000000E+00 0. -1.
<scales pt_clust_3="34.88606" pt_clust_4="95.61345" pt_clust_5="34.88606" pt_clust_6="65.10480"></scales>
<clustering>
<clus scale="   34.886">  3  5 -1 -1</clus>
<clus scale="   65.105">  2  6  1 -1</clus>
<clus scale="   95.613">  2  4  1 -1</clus>
<clus scale="  103.809">  1  3  2 -1</clus>
</clustering>
</event>
<event>
 6    0  0.2036847E+002  0.1532596E+03  0.7546771E-02  0.1196524E+00
         21   -1    0    0  504  501  0.00000000000E+00  0.00000000000E+00  0.45475729362E+03  0.45475729362E+03  0.00000000000E+00 0.  1.
         21   -1    0    0  506  502 -0.00000000000E+00 -0.00000000000E+00 -0.75239219148E+02  0.75239219148E+02  0.00000000000E+00 0.  1.
         21    1    1    2  503  501  0.41608140183E+02  0.14189744788E+02  0.63436572693E+02  0.77180210816E+02  0.00000000000E+00 0. -1.
         21    1    1    2  504  505 -0.61283077616E+02  0.11106532568E+02  0.10231501551E+03  0.11978035343E+03  0.00000000000E+00 0. -1.
         21    1    1    2  505  502 -0.72113226832E+02 -0.99139186006E+02  0.16495084822E+03  0.20551807223E+03  0.00000000000E+00 0.  1.
         21    1    1    2  506  503  0.91788164265E+02  0.73842908649E+02  0.48815638053E+02  0.12751787630E+03  0.00000000000E+00 0.  1.
<scales pt_clust_3="37.44050" pt_clust_4="62.28138" pt_clust_5="140.47092" pt_clust_6="37.44050"></scales>
<clustering>
<clus scale="   37.441">  3  6 -1 -1</clus>
<clus scale="   62.281">  1  4  2 -1</clus>
<clus scale="  140.471">  1  5  2 -1</clus>
<clus scale="   62.281">  1  3  2 -1</clus>
</clustering>
</event>
<event>
 6    0  0.2036847E+002  0.1557412E+03  0.7546771E-02  0.1193591E+00
         21   -1    0    0  504  501  0.00000000000E+00  0.00000000000E+00  0.56324178283E+03  0.56324178283E+03  0.00000000000E+00 0.  1.
         21   -1    0    0  506  502 -0.00000000000E+00 -0.00000000000E+00 -0.15068251213E+03  0.15068251213E+03  0.00000000000E+00 0. -1.
         21    1    1    2  503  502  0.70927614110E+02  0.89615860852E+02  0.17041228743E+03  0.20518790575E+03  0.00000000000E+00 0.  1.
         21    1    1    2  504  503  0.11663754970E+03 -0.57195832463E+01  0.25126564409E+03  0.27707662393E+03  0.00000000000E+00 0.  1.
         21    1    1    2  505  501 -0.37977593333E+02  0.24493466282E+01  0.36801713880E+02  0.52940183592E+02  0.00000000000E+00 0.  1.
         21    1    1    2  506  505 -0.14958757047E+03 -0.86345624234E+02 -0.45920374701E+02  0.17871958168E+03  0.00000000000E+00 0. -1.
<scales pt_clust_3="14000.00000" pt_clust_4="97.38618" pt_clust_5="38.05650" pt_clust_6="155.74124"></scales>
<clustering>
<clus scale="   38.056">  1  5  2 -1</clus>
<clus scale="   97.386">  1  4  2 -1</clus>
<clus scale="  155.741">  2  6  1 -1</clus>
<clus scale="   38.056">  1  3  2 -1</clus>
</clustering>
</event>
<event>
 6    0  0.2036847E+002  0.1563656E+03  0.7546771E-02  0.1192862E+00
         21   -1    0    0  506  501  0.00000000000E+00  0.00000000000E+00  0.47497647493E+03  0.47497647493E+03  0.00000000000E+00 0.  1.
         21   -1    0    0  504  502 -0.00000000000E+00 -0.00000000000E+00 -0.82323227570E+02  0.82323227570E+02  0.00000000000E+00 0.  1.
         21    1    1    2  503  501  0.91402796671E+01  0.68394691596E+02 -0.48448693719E+01  0.69172619656E+02  0.00000000000E+00 0.  1.
         21    1    1    2  504  503  0.41482163422E+02  0.72810404532E+02  0.30447832839E+02  0.89158260497E+02  0.00000000000E+00 0.  1.
         21    1    1    2  505  502 -0.28092554410E+02 -0.42077890343E+02  0.82193876993E+02  0.96517220661E+02  0.00000000000E+00 0.  1.
         21    1    1    2  506  505 -0.22529888679E+02 -0.99127205785E+02  0.28485640690E+03  0.30245160169E+03  0.00000000000E+00 0.  1.
<scales pt_clust_3="39.67525" pt_clust_4="156.24710" pt_clust_5="31.14271" pt_clust_6="31.14271"></scales>
<clustering>
<clus scale="   31.143">  5  6 -1 -1</clus>
<clus scale="   39.675">  3  4 -1 -1</clus>
<clus scale="  156.247">  2  3  1 -1</clus>
<clus scale="  156.366">  1  3  2 -1</clus>
</clustering>
</event>
<event>
 6    0  0.2036847E+002  0.7630780E+02  0.7546771E-02  0.1339868E+00
         21   -1    0    0  505  501  0.00000000000E+00  0.00000000000E+00  0.15408591065E+03  0.15408591065E+03  0.00000000000E+00 0. -1.
         21   -1    0    0  506  502 -0.00000000000E+00 -0.00000000000E+00 -0.32827003125E+03  0.32827003125E+03  0.00000000000E+00 0. -1.
         21    1    1    2  503  501 -0.26303659057E+02  0.18459452381E+02  0.21564436277E+01  0.32206895397E+02  0.00000000000E+00 0. -1.
         21    1    1    2  504  502 -0.39096529692E+02 -0.10936085838E+02 -0.14317372485E+03  0.14881818469E+03  0.00000000000E+00 0. -1.
         21    1    1    2  505  504  0.58060555942E+02 -0.85897702916E+02  0.10166187648E+03  0.14520530518E+03  0.00000000000E+00 0. -1.
         21    1    1    2  506  503  0.73396328061E+01  0.78374336372E+02 -0.13482871586E+03  0.15612555663E+03  0.00000000000E+00 0. -1.
<scales pt_clust_3="32.13462" pt_clust_4="41.02014" pt_clust_5="76.30780" pt_clust_6="14000.00000"></scales>
<clustering>
<clus scale="   32.135">  1  3  2 -1</clus>
<clus scale="   41.020">  2  4  1 -1</clus>
<clus scale="   76.308">  1  5  2 -1</clus>
<clus scale="   32.135">  1  3  2 -1</clus>
</clustering>
</event>
<event>
 6    0  0.2036847E+002  0.8800021E+02  0.7546771E-02  0.1307768E+00
         21   -1    0    0  505  501  0.00000000000E+00  0.00000000000E+00  0.18211071940E+02  0.18211071940E+02  0.00000000000E+00 0.  1.
         21   -1    0    0  503  502 -0.00000000000E+00 -0.00000000000E+00 -0.30431639176E+04  0.30431639176E+04  0.00000000000E+00 0.  1.
         21    1    1    2  503  506  0.46257670092E+02  0.63379158431E+01 -0.35224531304E+03  0.35532619067E+03  0.00000000000E+00 0.  1.
         21    1    1    2  504  502 -0.84326534092E+02 -0.28332943760E+02 -0.19411856525E+04  0.19432229562E+04  0.00000000000E+00 0.  1.
         21    1    1    2  505  504 -0.57453624755E+02  0.29850177811E+02 -0.57954598868E+03  0.58315135694E+03  0.00000000000E+00 0.  1.
         21    1    1    2  506  501  0.95522488756E+02 -0.78551498935E+01 -0.15197589144E+03  0.17967448571E+03  0.00000000000E+00 0.  1.
<scales pt_clust_3="46.68984" pt_clust_4="56.18917" pt_clust_5="14000.00000" pt_clust_6="88.00021"></scales>
<clustering>
<clus scale="   46.690">  2  3  1 -1</clus>
<clus scale="   56.189">  2  4  1 -1</clus>
<clus scale="   88.000">  1  6  2 -1</clus>
<clus scale="   88.000">  1  3  2 -1</clus>
</clustering>
</event>
<event>
 6    0  0.2036847E+002  0.1068550E+03  0.7546771E-02  0.1266507E+00
         21   -1    0    0  503  501  0.00000000000E+00  0.00000000000E+00  0.81476108533E+03  0.81476108533E+03  0.00000000000E+00 0. -1.
         21   -1    0    0  505  502 -0.00000000000E+00 -0.00000000000E+00 -0.27168453173E+03  0.27168453173E+03  0.00000000000E+00 0. -1.
         21    1    1    2  503  504 -0.14334578829E+02  0.58639683350E+02  0.54724390159E+02  0.81479147589E+02  0.00000000000E+00 0. -1.
         21    1    1    2  504  502  0.82996839156E+02 -0.12174625001E+02 -0.21152206755E+03  0.22754841653E+03  0.00000000000E+00 0. -1.
         21    1    1    2  505  506  0.24759495801E+02  0.29985872834E+02 -0.22567106766E+02  0.44960644009E+02  0.00000000000E+00 0. -1.
         21    1    1    2  506  501 -0.93421756128E+02 -0.76450931183E+02  0.72244133775E+03  0.73245740893E+03  0.00000000000E+00 0. -1.
<scales pt_clust_3="61.69841" pt_clust_4="14000.00000" pt_clust_5="38.88683" pt_clust_6="106.85498"></scales>
<clustering>
<clus scale="   38.887">  2  5  1 -1</clus>
<clus scale="   61.698">  1  3  2 -1</clus>
<clus scale="  106.855">  1  6  2 -1</clus>
<clus scale="   61.698">  1  3  2 -1</clus>
</clustering>
</event>
<event>
 6    0  0.2036847E+002  0.1268941E+03  0.7546771E-02  0.1232139E+00
         21   -1    0    0  503  501  0.00000000000E+00  0.00000000000E+00  0.99449441403E+03  0.99449441403E+03  0.00000000000E+00 0. -1.
         21   -1    0    0  505  502 -0.00000000000E+00 -0.00000000000E+00 -0.22478277015E+03  0.22478277015E+03  0.00000000000E+00 0. -1.
         21    1    1    2  503  506 -0.39690398503E+02 -0.10226222194E+03  0.23874607620E+03  0.26274051585E+03  0.00000000000E+00 0. -1.
         21    1    1    2  504  501  0.84011953258E+02  0.10923568621E+03  0.73051932172E+03  0.74340360696E+03  0.00000000000E+00 0. -1.
         21    1    1    2  505  504 -0.23480543475E+02  0.19965331751E+02 -0.42926580137E+02  0.52845450855E+02  0.00000000000E+00 0. -1.
         21    1    1    2  506  502 -0.20841011280E+02 -0.26938796016E+02 -0.15662717390E+03  0.16028761052E+03  0.00000000000E+00 0. -1.
<scales pt_clust_3="14000.00000" pt_clust_4="126.89408" pt_clust_5="30.82127" pt_clust_6="42.84177"></scales>
<clustering>
<clus scale="   30.821">  2  5  1 -1</clus>
<clus scale="   42.842">  2  6  1 -1</clus>
<clus scale="  126.894">  1  4  2 -1</clus>
<clus scale="  126.894">  1  3  2 -1</clus>
</clustering>
</event>
<event>
 6    0  0.2036847E+002  0.9160526E+02  0.7546771E-02  0.1299010E+00
         21   -1    0    0  504  501  0.00000000000E+00  0.00000000000E+00  0.55016204196E+03  0.55016204196E+03  0.00000000000E+00 0.  1.
         21   -1    0    0  503  502 -0.00000000000E+00 -0.00000000000E+00 -0.12237943238E+03  0.12237943238E+03  0.00000000000E+00 0.  1.
         21    1    1    2  503  501  0.12135877841E+02 -0.58265430891E+02  0.38685924526E+03  0.39141054612E+03  0.00000000000E+00 0.  1.
         21    1    1    2  504  506 -0.24722382265E+02 -0.40856247363E+02  0.97737714278E+02  0.10878000701E+03  0.00000000000E+00 0.  1.
         21    1    1    2  505  502 -0.46187988240E+02  0.33464180719E+02  0.14656612568E+02  0.58889709974E+02  0.00000000000E+00 0.  1.
         21    1    1    2  506  505  0.58774492664E+02  0.65657497534E+02 -0.71470962527E+02  0.11346121124E+03  0.00000000000E+00 0.  1.
<scales pt_clust_3="91.60526" pt_clust_4="47.75384" pt_clust_5="56.84661" pt_clust_6="14000.00000"></scales>
<clustering>
<clus scale="   47.754">  1  4  2 -1</clus>
<clus scale="   56.847">  2  5  1 -1</clus>
<clus scale="   91.605">  1  3  2 -1</clus>
<clus scale="   47.754">  1  3  2 -1</clus>
</clustering>
</event>
<event>
 6    0  0.2036847E+002  0.8251754E+02  0.7546771E-02  0.1322055E+00
         21   -1    0    0  505  501  0.00000000000E+00  0.00000000000E+00  0.28328075917E+03  0.28328075917E+03  0.00000000000E+00 0.  1.
         21   -1    0    0  504  502 -0.00000000000E+00 -0.00000000000E+00 -0.39929134326E+03  0.39929134326E+03  0.00000000000E+00 0. -1.
         21    1    1    2  503  501 -0.30304198703E+02 -0.11442781149E+02  0.58881654747E+02  0.67203652915E+02  0.00000000000E+00 0. -1.
         21    1    1    2  504  506 -0.84932196959E+02  0.92120561253E+01 -0.25594972832E+03  0.26983069411E+03  0.00000000000E+00 0. -1.
         21    1    1    2  505  502  0.39453468711E+02 -0.44922637313E+02  0.19318378626E+03  0.20222412024E+03  0.00000000000E+00 0.  1.
         21    1    1    2  506  503  0.75782926950E+02  0.47153362337E+02 -0.11212629677E+03  0.14331363516E+03  0.00000000000E+00 0. -1.
<scales pt_clust_3="32.39262" pt_clust_4="14000.00000" pt_clust_5="56.53766" pt_clust_6="82.51754"></scales>
<clustering>
<clus scale="   32.393">  1  3  2 -1</clus>
<clus scale="   56.538">  1  5  2 -1</clus>
<clus scale="   82.518">  1  6  2 -1</clus>
<clus scale="   32.393">  1  3  2 -1</clus>
</clustering>
</event>
<event>
 6    0  0.2036847E+002  0.5764448E+02  0.7546771E-02  0.1407991E+00
         21   -1    0    0  503  501  0.00000000000E+00  0.00000000000E+00  0.92142744247E+02  0.92142744247E+02  0.00000000000E+00 0.  1.
         21   -1    0    0  506  502 -0.00000000000E+00 -0.00000000000E+00 -0.64788205500E+03  0.64788205500E+03  0.00000000000E+00 0.  1.
         21    1    1    2  503  504 -0.57373765453E+02 -0.74708064762E+00  0.44287681850E+02  0.72482452052E+02  0.00000000000E+00 0.  1.
         21    1    1    2  504  502  0.55737648200E+02  0.57418263517E+02 -0.32133411402E+03  0.33114823757E+03  0.00000000000E+00 0.  1.
         21    1    1    2  505  501  0.55220336892E+02 -0.43426850385E+02 -0.21678705143E+02  0.73519678982E+02  0.00000000000E+00 0.  1.
         21    1    1    2  506  505 -0.53584219639E+02 -0.13244332484E+02 -0.25701417344E+03  0.26287443065E+03  0.00000000000E+00 0. -1.
<scales pt_clust_3="14000.00000" pt_clust_4="47.49554" pt_clust_5="57.64448" pt_clust_6="55.19675"></scales>
<clustering>
<clus scale="   55.197">  2  6  1 -1</clus>
<clus scale="   47.496">  2  4  1 -1</clus>
<clus scale="   57.644">  2  5  1 -1</clus>
<clus scale="   57.644">  1  3  2 -1</clus>
</clustering>
</event>
<event>
 6    0  0.2036847E+002  0.1533613E+03  0.7546771E-02  0.1196402E+00
         21   -1    0    0  506  501  0.00000000000E+00  0.00000000000E+00  0.62006042368E+03  0.62006042368E+03  0.00000000000E+00 0. -1.
         21   -1    0    0  505  502 -0.00000000000E+00 -0.00000000000E+00 -0.29814119074E+03  0.29814119074E+03  0.00000000000E+00 0. -1.
         21    1    1    2  503  502 -0.20975496804E+02 -0.83522596993E+02 -0.15471689167E+03  0.17706866533E+03  0.00000000000E+00 0. -1.
         21    1    1    2  504  503 -0.64921882996E+02 -0.21003321391E+02 -0.11201367051E+03  0.13116040860E+03  0.00000000000E+00 0. -1.
         21    1    1    2  505  501  0.39935329456E+02  0.99219037700E+01  0.73871832800E+02  0.84559578963E+02  0.00000000000E+00 0. -1.
         21    1    1    2  506  504  0.45962050344E+02  0.94604014614E+02  0.51477796232E+03  0.52541296153E+03  0.00000000000E+00 0. -1.
<scales pt_clust_3="66.14805" pt_clust_4="66.14805" pt_clust_5="41.14942" pt_clust_6="134.02887"></scales>
<clustering>
<clus scale="   41.149">  1  5  2 -1</clus>
<clus scale="   66.148">  3  4 -1 -1</clus>
<clus scale="  134.029">  1  6  2 -1</clus>
<clus scale="   41.149">  1  3  2 -1</clus>
</clustering>
</event>
<event>
 6    0  0.2036847E+002  0.1518677E+03  0.7546771E-02  0.1198197E+00
         21   -1    0    0  504  501  0.00000000000E+00  0.00000000000E+00  0.14935723640E+03  0.14935723640E+03  0.00000000000E+00 0.  1.
         21   -1    0    0  503  502 -0.00000000000E+00 -0.00000000000E+00 -0.11593346040E+04  0.11593346040E+04  0.00000000000E+00 0.  1.
         21    1    1    2  503  505 -0.12086888255E+01 -0.71738149286E+02  0.32053172667E+02  0.78582624477E+02  0.00000000000E+00 0. -1.
         21    1    1    2  504  506 -0.14894658763E+02  0.80145718442E+02 -0.48589666696E+03  0.49268728216E+03  0.00000000000E+00 0.  1.
         21    1    1    2  505  501  0.25677212171E+02 -0.72682536715E+02  0.72271356578E+02  0.10566560154E+03  0.00000000000E+00 0.  1.
         21    1    1    2  506  502 -0.95738645825E+01  0.64274967559E+02 -0.62840522988E+03  0.63175633220E+03  0.00000000000E+00 0.  1.
<scales pt_clust_3="38.68404" pt_clust_4="150.68087" pt_clust_5="38.68404" pt_clust_6="31.55023"></scales>
<clustering>
<clus scale="   31.550">  4  6 -1 -1</clus>
<clus scale="   38.684">  3  5 -1 -1</clus>
<clus scale="  150.681">  2  4  1 -1</clus>
<clus scale="  151.868">  1  3  2 -1</clus>
</clustering>
</event>
<event>
 6    0  0.2036847E+002  0.1045364E+03  0.7546771E-02  0.1271036E+00
         21   -1    0    0  504  501  0.00000000000E+00  0.00000000000E+00  0.39586927775E+03  0.39586927775E+03  0.00000000000E+00 0.  1.
         21   -1    0    0  506  502 -0.00000000000E+00 -0.00000000000E+00 -0.21140488535E+03  0.21140488535E+03  0.00000000000E+00 0.  1.
         21    1    1    2  503  502  0.55758296113E+02 -0.11619347112E+02 -0.28237835094E+02  0.63571787324E+02  0.00000000000E+00 0.  1.
         21    1    1    2  504  505 -0.11587232550E+03  0.14919204920E+03  0.26492970877E+03  0.32538041421E+03  0.00000000000E+00 0.  1.
         21    1    1    2  505  503  0.38091932779E+02 -0.51022975552E+02 -0.98845952023E+02  0.11757917166E+03  0.00000000000E+00 0.  1.
         21    1    1    2  506  501  0.22022096610E+02 -0.86549726532E+02  0.46618470744E+02  0.10074278990E+03  0.00000000000E+00 0.  1.
<scales pt_clust_3="56.95610" pt_clust_4="104.53643" pt_clust_5="14000.00000" pt_clust_6="93.77110"></scales>
<clustering>
<clus scale="   56.956">  2  3  1 -1</clus>
<clus scale="   93.771">  1  6  2 -1</clus>
<clus scale="  104.536">  1  4  2 -1</clus>
<clus scale="   93.771">  1  3  2 -1</clus>
</clustering>
</event>
<event>
 6    0  0.2036847E+002  0.8509360E+02  0.7546771E-02  0.1315188E+00
         21   -1    0    0  503  501  0.00000000000E+00  0.00000000000E+00  0.19445865936E+02  0.19445865936E+02  0.00000000000E+00 0.  1.
         21   -1    0    0  505  502 -0.00000000000E+00 -0.00000000000E+00 -0.10043189617E+04  0.10043189617E+04  0.00000000000E+00 0.  1.
         21    1    1    2  503  504  0.68074743561E+02 -0.55419304287E+02 -0.22349586086E+03  0.24011636725E+03  0.00000000000E+00 0.  1.
         21    1    1    2  504  502  0.29077180166E+02 -0.11745264289E+02 -0.23862781475E+03  0.24067959533E+03  0.00000000000E+00 0.  1.
         21    1    1    2  505  506 -0.51569207190E+02  0.80615163671E+02 -0.40126905436E+03  0.41252277722E+03  0.00000000000E+00 0.  1.
         21    1    1    2  506  501 -0.45582716538E+02 -0.13450595095E+02 -0.12148036582E+03  0.13044608785E+03  0.00000000000E+00 0.  1.
<scales pt_clust_3="14000.00000" pt_clust_4="31.35975" pt_clust_5="85.09360" pt_clust_6="43.59777"></scales>
<clustering>
<clus scale="   31.360">  2  4  1 -1</clus>
<clus scale="   43.598">  1  6  2 -1</clus>
<clus scale="   85.094">  2  5  1 -1</clus>
<clus scale="   43.598">  1  3  2 -1</clus>
</clustering>
</event>
<event>
 6    0  0.2036847E+002  0.1664979E+03  0.7546771E-02  0.1181550E+00
         21   -1    0    0  506  501  0.00000000000E+00  0.00000000000E+00  0.33626035233E+03  0.33626035233E+03  0.00000000000E+00 0. -1.
         21   -1    0    0  504  502 -0.00000000000E+00 -0.00000000000E+00 -0.15335755846E+04  0.15335755846E+04  0.00000000000E+00 0. -1.
         21    1    1    2  503  502  0.34941459885E+02 -0.44529735690E+02 -0.35728086540E+03  0.36173667185E+03  0.00000000000E+00 0. -1.
         21    1    1    2  504  505 -0.19959929870E+03  0.65649518628E+02 -0.11337959380E+04  0.11531014562E+04  0.00000000000E+00 0. -1.
         21    1    1    2  505  501  0.15414168530E+03  0.20763750493E+02  0.21805363620E+03  0.26783984159E+03  0.00000000000E+00 0. -1.
         21    1    1    2  506  503  0.10516153522E+02 -0.41883533430E+02  0.75707934896E+02  0.87157967299E+02  0.00000000000E+00 0. -1.
<scales pt_clust_3="56.94719" pt_clust_4="14000.00000" pt_clust_5="166.49792" pt_clust_6="43.18356"></scales>
<clustering>
<clus scale="   43.184">  1  6  2 -1</clus>
<clus scale="   56.947">  2  3  1 -1</clus>
<clus scale="  166.498">  1  5  2 -1</clus>
<clus scale="   43.184">  1  3  2 -1</clus>
</clustering>
</event>
<event>
 6    0  0.2036847E+002  0.1668642E+03  0.7546771E-02  0.1181158E+00
         21   -1    0    0  505  501  0.00000000000E+00  0.00000000000E+00  0.35852138480E+03  0.35852138480E+03  0.00000000000E+00 0.  1.
         21   -1    0    0  506  502 -0.00000000000E+00 -0.00000000000E+00 -0.12458219106E+03  0.12458219106E+03  0.00000000000E+00 0. -1.
         21    1    1    2  503  502 -0.45117433757E+02 -0.16728752018E+02  0.12695471342E+02  0.49765539940E+02  0.00000000000E+00 0.  1.
         21    1    1    2  504  503 -0.17843921995E+02  0.39613331528E+02  0.22557410314E+02  0.48953634666E+02  0.00000000000E+00 0. -1.
         21    1    1    2  505  504 -0.85307538001E+01  0.11373822449E+03  0.19993612892E+03  0.23018169588E+03  0.00000000000E+00 0.  1.
         21    1    1    2  506  501  0.71492109552E+02 -0.13662280400E+03 -0.12498168290E+01  0.15420270537E+03  0.00000000000E+00 0. -1.
<scales pt_clust_3="48.11896" pt_clust_4="40.00223" pt_clust_5="40.00223" pt_clust_6="153.76223"></scales>
<clustering>
<clus scale="   40.002">  4  5 -1 -1</clus>
<clus scale="   48.119">  2  3  1 -1</clus>
<clus scale="  153.762">  2  6  1 -1</clus>
<clus scale="  166.864">  1  3  2 -1</clus>
</clustering>
</event>
<event>
 6    0  0.2036847E+002  0.1699781E+03  0.7546771E-02  0.1177871E+00
         21   -1    0    0  504  501  0.00000000000E+00  0.00000000000E+00  0.32240428055E+03  0.32240428055E+03  0.00000000000E+00 0. -1.
         21   -1    0    0  503  502 -0.00000000000E+00 -0.00000000000E+00 -0.80571540189E+02  0.80571540189E+02  0.00000000000E+00 0. -1.
         21    1    1    2  503  501  0.14620489638E+03  0.34054212884E+02  0.89806025491E+02  0.17493051008E+03  0.00000000000E+00 0. -1.
         21    1    1    2  504  506 -0.59083240249E+02 -0.17227403027E+02  0.10675889899E+03  0.12322773717E+03  0.00000000000E+00 0. -1.
         21    1    1    2  505  502 -0.43577557249E+02 -0.22310601405E+02  0.13963713215E+02  0.50909249823E+02  0.00000000000E+00 0. -1.
         21    1    1    2  506  505 -0.43544098885E+02  0.54837915472E+01  0.31304102662E+02  0.53908323670E+02  0.00000000000E+00 0. -1.
<scales pt_clust_3="150.11849" pt_clust_4="55.60404" pt_clust_5="55.60404" pt_clust_6="30.88753"></scales>
<clustering>
<clus scale="   30.888">  5  6 -1 -1</clus>
<clus scale="   55.604">  4  5 -1 -1</clus>
<clus scale="  150.118">  2  3  1 -1</clus>
<clus scale="  169.978">  1  3  2 -1</clus>
</clustering>
</event>
<event>
 6    0  0.2036847E+002  0.1270744E+03  0.7546771E-02  0.1231862E+00
         21   -1    0    0  504  501  0.00000000000E+00  0.00000000000E+00  0.11699667700E+03  0.11699667700E+03  0.00000000000E+00 0. -1.
         21   -1    0    0  503  502 -0.00000000000E+00 -0.00000000000E+00 -0.10349358211E+04  0.10349358211E+04  0.00000000000E+00 0.  1.
         21    1    1    2  503  505  0.48177021951E+02  0.30117221684E+02 -0.96927553407E+02  0.11235222782E+03  0.00000000000E+00 0. -1.
         21    1    1    2  504  506  0.89841672841E+01 -0.70439903329E+02 -0.62527166855E+01  0.71285283956E+02  0.00000000000E+00 0. -1.
         21    1    1    2  505  501 -0.95592406698E+02 -0.37375942239E+02  0.39257280426E+02  0.10989087015E+03  0.00000000000E+00 0. -1.
         21    1    1    2  506  502  0.38431217463E+02  0.77698623883E+02 -0.85401615445E+03  0.85840411619E+03  0.00000000000E+00 0.  1.
<scales pt_clust_3="56.81613" pt_clust_4="70.05254" pt_clust_5="14000.00000" pt_clust_6="127.07445"></scales>
<clustering>
<clus scale="   56.816">  2  3  1 -1</clus>
<clus scale="   70.053">  1  4  2 -1</clus>
<clus scale="  127.074">  2  6  1 -1</clus>
<clus scale="   70.053">  1  3  2 -1</clus>
</clustering>
</event>
<event>
 6    0  0.2273532E+002  0.1136922E+03  0.7546771E-02  0.1253881E+00
         21   -1    0    0  504  501  0.00000000000E+00  0.00000000000E+00  0.67005791942E+03  0.67005791942E+03  0.00000000000E+00 0.  1.
         21   -1    0    0  506  502 -0.00000000000E+00 -0.00000000000E+00 -0.50879030259E+03  0.50879030259E+03  0.00000000000E+00 0. -1.
         21    1    1    2  503  502  0.36101244150E+02  0.11898665993E+01 -0.42070134424E+03  0.42224914051E+03  0.00000000000E+00 0. -1.
         21    1    1    2  504  505  0.36996148249E+02 -0.70881205428E+02  0.44943247056E+02  0.91721075681E+02  0.00000000000E+00 0. -1.
         21    1    1    2  505  503 -0.14393341255E+02 -0.38240676906E+02 -0.50319644565E+02  0.64819628755E+02  0.00000000000E+00 0. -1.
         21    1    1    2  506  501 -0.58704051145E+02  0.10793201574E+03  0.58734535858E+03  0.60005837706E+03  0.00000000000E+00 0.  1.
<scales pt_clust_3="36.12085" pt_clust_4="14000.00000" pt_clust_5="38.61995" pt_clust_6="113.69218"></scales>
<clustering>
<clus scale="   36.121">  2  3  1 -1</clus>
<clus scale="   38.620">  2  5  1 -1</clus>
<clus scale="  113.692">  1  6  2 -1</clus>
<clus scale="  113.692">  1  3  2 -1</clus>
</clustering>
</event>
<event>
 6    0  0.2036847E+002  0.2777304E+03  0.7546771E-02  0.1096935E+00
         21   -1    0    0  506  501  0.00000000000E+00  0.00000000000E+00  0.86629074477E+03  0.86629074477E+03  0.00000000000E+00 0.  1.
         21   -1    0    0  505  502 -0.00000000000E+00 -0.00000000000E+00 -0.75380458819E+03  0.75380458819E+03  0.00000000000E+00 0. -1.
         21    1    1    2  503  502 -0.41853426314E+02  0.17990347908E+03 -0.49214669905E+03  0.52566657157E+03  0.00000000000E+00 0. -1.
         21    1    1    2  504  501 -0.82106993921E+01 -0.88769686475E+02  0.34131303653E+03  0.35276346427E+03  0.00000000000E+00 0.  1.
         21    1    1    2  505  504  0.25555165913E+02 -0.18027927515E+03  0.47606608147E+03  0.50969853588E+03  0.00000000000E+00 0.  1.
         21    1    1    2  506  503  0.24508959793E+02  0.89145482546E+02 -0.21274626236E+03  0.23196676123E+03  0.00000000000E+00 0. -1.
<scales pt_clust_3="47.17409" pt_clust_4="38.60467" pt_clust_5="275.19462" pt_clust_6="47.17409"></scales>
<clustering>
<clus scale="   38.605">  4  5 -1 -1</clus>
<clus scale="   47.174">  3  6 -1 -1</clus>
<clus scale="  275.195">  1  4  2 -1</clus>
<clus scale="  275.195">  1  3  2 -1</clus>
</clustering>
</event>
<event>
 6    0  0.2036847E+002  0.9119945E+02  0.7546771E-02  0.1299973E+00
         21   -1    0    0  506  501  0.00000000000E+00  0.00000000000E+00  0.74229499079E+03  0.74229499079E+03  0.00000000000E+00 0. -1.
         21   -1    0    0  503  502 -0.00000000000E+00 -0.00000000000E+00 -0.17391303339E+03  0.17391303339E+03  0.00000000000E+00 0. -1.
         21    1    1    2  503  504  0.27385352120E+02  0.75332123943E+02 -0.32563758268E+02  0.86517540193E+02  0.00000000000E+00 0. -1.
         21    1    1    2  504  501  0.46972984763E+02 -0.85771673344E+01  0.56997162354E+03  0.57196825151E+03  0.00000000000E+00 0. -1.
         21    1    1    2  505  502 -0.10634852055E+03 -0.53811992263E+02 -0.78647138642E+02  0.14279744659E+03  0.00000000000E+00 0. -1.
         21    1    1    2  506  505  0.31990183669E+02 -0.12942964346E+02  0.10962123077E+03  0.11492478589E+03  0.00000000000E+00 0. -1.
<scales pt_clust_3="14000.00000" pt_clust_4="78.63214" pt_clust_5="91.19945" pt_clust_6="34.50931"></scales>
<clustering>
<clus scale="   34.509">  1  6  2 -1</clus>
<clus scale="   78.632">  1  4  2 -1</clus>
<clus scale="   91.199">  1  5  2 -1</clus>
<clus scale="   34.509">  1  3  2 -1</clus>
</clustering>
</event>
<event>
 6    0  0.2036847E+002  0.9599404E+02  0.7546771E-02  0.1288953E+00
         21   -1    0    0  505  501  0.00000000000E+00  0.00000000000E+00  0.25348295679E+03  0.25348295679E+03  0.00000000000E+00 0. -1.
         21   -1    0    0  506  502 -0.00000000000E+00 -0.00000000000E+00 -0.28576393353E+03  0.28576393353E+03  0.00000000000E+00 0.  1.
         21    1    1    2  503  502 -0.59633579046E+02  0.14420637896E+02 -0.53211530260E+02  0.81213210131E+02  0.00000000000E+00 0.  1.
         21    1    1    2  504  501  0.89629274377E+02 -0.22886670102E+02  0.14514225824E+03  0.17211473389E+03  0.00000000000E+00 0. -1.
         21    1    1    2  505  503 -0.35322350700E+02 -0.72201952085E+02  0.49442903025E+02  0.94368379256E+02  0.00000000000E+00 0. -1.
         21    1    1    2  506  504  0.53266553681E+01  0.80667984292E+02 -0.17365460775E+03  0.19155056705E+03  0.00000000000E+00 0.  1.
<scales pt_clust_3="61.35241" pt_clust_4="95.99404" pt_clust_5="81.97265" pt_clust_6="14000.00000"></scales>
<clustering>
<clus scale="   61.352">  2  3  1 -1</clus>
<clus scale="   81.973">  1  5  2 -1</clus>
<clus scale="   95.994">  1  4  2 -1</clus>
<clus scale="   81.973">  1  3  2 -1</clus>
</clustering>
</event>
<event>
 6    0  0.2036847E+002  0.9296380E+02  0.7546771E-02  0.1295829E+00
         21   -1    0    0  505  501  0.00000000000E+00  0.00000000000E+00  0.21783004728E+03  0.21783004728E+03  0.00000000000E+00 0.  1.
         21   -1    0    0  504  502 -0.00000000000E+00 -0.00000000000E+00 -0.76469664439E+03  0.76469664439E+03  0.00000000000E+00 0. -1.
         21    1    1    2  503  506 -0.25180453121E+02  0.84798557479E+02  0.12207896306E+03  0.15075849492E+03  0.00000000000E+00 0.  1.
         21    1    1    2  504  501 -0.37610703250E+02  0.73179444944E+01 -0.52377603230E+02  0.64896306757E+02  0.00000000000E+00 0.  1.
         21    1    1    2  505  503  0.45284299110E+02  0.70264812262E+01  0.64101368934E+02  0.78797364699E+02  0.00000000000E+00 0. -1.
         21    1    1    2  506  502  0.17506857261E+02 -0.99142983200E+02 -0.68066932587E+03  0.68807452529E+03  0.00000000000E+00 0. -1.
<scales pt_clust_3="14000.00000" pt_clust_4="38.31602" pt_clust_5="45.45128" pt_clust_6="92.96380"></scales>
<clustering>
<clus scale="   38.316">  2  4  1 -1</clus>
<clus scale="   45.451">  1  5  2 -1</clus>
<clus scale="   92.964">  2  6  1 -1</clus>
<clus scale="   45.451">  1  3  2 -1</clus>
</clustering>
</event>
<event>
 6    0  0.2036847E+002  0.1511442E+03  0.7546771E-02  0.1199074E+00
         21   -1    0    0  503  501  0.00000000000E+00  0.00000000000E+00  0.56639782329E+03  0.56639782329E+03  0.00000000000E+00 0.  1.
         21   -1    0    0  506  502 -0.00000000000E+00 -0.00000000000E+00 -0.85852365897E+02  0.85852365897E+02  0.00000000000E+00 0.  1.
         21    1    1    2  503  502  0.16081819325E+02 -0.44641249754E+02  0.24478109338E+03  0.24933762204E+03  0.00000000000E+00 0.  1.
         21    1    1    2  504  501  0.86841608253E+02  0.81313647546E+02  0.18222988715E+03  0.21762606915E+03  0.00000000000E+00 0.  1.
         21    1    1    2  505  504  0.32767105135E+02 -0.41633942206E+01  0.28292494926E+02  0.43491174962E+02  0.00000000000E+00 0. -1.
         21    1    1    2  506  505 -0.13569053271E+03 -0.32509003571E+02  0.25241981935E+02  0.14179532303E+03  0.00000000000E+00 0.  1.
<scales pt_clust_3="47.44962" pt_clust_4="31.63322" pt_clust_5="31.63322" pt_clust_6="138.70992"></scales>
<clustering>
<clus scale="   31.633">  4  5 -1 -1</clus>
<clus scale="   47.450">  1  3  2 -1</clus>
<clus scale="  138.710">  2  6  1 -1</clus>
<clus scale="   47.450">  1  3  2 -1</clus>
</clustering>
</event>
<event>
 6    0  0.2036847E+002  0.2306815E+03  0.7546771E-02  0.1126161E+00
         21   -1    0    0  504  501  0.00000000000E+00  0.00000000000E+00  0.27696690447E+04  0.27696690447E+04  0.00000000000E+00 0. -1.
         21   -1    0    0  503  502 -0.00000000000E+00 -0.00000000000E+00 -0.16491215382E+03  0.16491215382E+03  0.00000000000E+00 0.  1.
         21    1    1    2  503  505  0.48961563535E+02  0.47551345009E+02 -0.64710748145E+02  0.94052357979E+02  0.00000000000E+00 0.  1.
         21    1    1    2  504  502 -0.13915894016E+03 -0.18303441982E+03  0.19489375727E+04  0.19624536865E+04  0.00000000000E+00 0. -1.
         21    1    1    2  505  506  0.13492290947E+03  0.57979485720E+02 -0.51067630718E+01  0.14694179560E+03  0.00000000000E+00 0.  1.
         21    1    1    2  506  501 -0.44725532844E+02  0.77503589095E+02  0.72563682944E+03  0.73113335846E+03  0.00000000000E+00 0.  1.
<scales pt_clust_3="61.93476" pt_clust_4="212.03899" pt_clust_5="61.93476" pt_clust_6="89.48285"></scales>
<clustering>
<clus scale="   61.935">  3  5 -1 -1</clus>
<clus scale="   89.483">  1  6  2 -1</clus>
<clus scale="  212.039">  1  4  2 -1</clus>
<clus scale="   89.483">  1  3  2 -1</clus>
</clustering>
</event>
<event>
 6    0  0.2036847E+002  0.1156608E+03  0.7546771E-02  0.1250432E+00
         21   -1    0    0  505  501  0.00000000000E+00  0.00000000000E+00  0.44198419699E+03  0.44198419699E+03  0.00000000000E+00 0.  1.
         21   -1    0    0  503  502 -0.00000000000E+00 -0.00000000000E+00 -0.10867906662E+03  0.10867906662E+03  0.00000000000E+00 0. -1.
         21    1    1    2  503  504 -0.20678886070E+02  0.14188983190E+03 -0.25514936597E+02  0.14564117795E+03  0.00000000000E+00 0. -1.
         21    1    1    2  504  506  0.50748204042E+01 -0.60681680262E+02  0.13963887277E+03  0.15233855359E+03  0.00000000000E+00 0.  1.
         21    1    1    2  505  502  0.60566783300E+01 -0.36445298920E+02  0.96127063204E+01  0.38175218251E+02  0.00000000000E+00 0.  1.
         21    1    1    2  506  501  0.95473873357E+01 -0.44762852721E+02  0.20956848787E+03  0.21450831382E+03  0.00000000000E+00 0.  1.
<scales pt_clust_3="109.90419" pt_clust_4="31.24079" pt_clust_5="36.94514" pt_clust_6="31.24079"></scales>
<clustering>
<clus scale="   31.241">  4  6 -1 -1</clus>
<clus scale="   36.945">  2  5  1 -1</clus>
<clus scale="  109.904">  2  3  1 -1</clus>
<clus scale="  115.661">  1  3  2 -1</clus>
</clustering>
</event>
<event>
 6    0  0.2036847E+002  0.9704933E+02  0.7546771E-02  0.1286626E+00
         21   -1    0    0  504  501  0.00000000000E+00  0.00000000000E+00  0.61654232567E+02  0.61654232567E+02  0.00000000000E+00 0. -1.
         21   -1    0    0  506  502 -0.00000000000E+00 -0.00000000000E+00 -0.78646394155E+03  0.78646394155E+03  0.00000000000E+00 0.  1.
         21    1    1    2  503  502 -0.11354059273E+02  0.52467890780E+02 -0.33718819621E+03  0.34143472859E+03  0.00000000000E+00 0.  1.
         21    1    1    2  504  505 -0.25231293345E+02 -0.25185237411E+02  0.20844981987E+02  0.41296823381E+02  0.00000000000E+00 0. -1.
         21    1    1    2  505  503 -0.53224421028E+02 -0.57372071509E+02 -0.46059324639E+02  0.90806690112E+02  0.00000000000E+00 0. -1.
         21    1    1    2  506  501  0.89809773646E+02  0.30089418140E+02 -0.36240717011E+03  0.37457993203E+03  0.00000000000E+00 0.  1.
<scales pt_clust_3="52.38528" pt_clust_4="35.64989" pt_clust_5="14000.00000" pt_clust_6="97.04933"></scales>
<clustering>
<clus scale="   35.650">  1  4  2 -1</clus>
<clus scale="   52.385">  2  3  1 -1</clus>
<clus scale="   97.049">  2  6  1 -1</clus>
<clus scale="   35.650">  1  3  2 -1</clus>
</clustering>
</event>
<event>
 6    0  0.2036847E+002  0.1935075E+03  0.7546771E-02  0.1155335E+00
         21   -1    0    0  504  501  0.00000000000E+00  0.00000000000E+00  0.10203707661E+04  0.10203707661E+04  0.00000000000E+00 0. -1.
         21   -1    0    0  506  502 -0.00000000000E+00 -0.00000000000E+00 -0.15830402525E+03  0.15830402525E+03  0.00000000000E+00 0.  1.
         21    1    1    2  503  501 -0.11680509191E+02  0.96569263635E+02  0.50820642062E+03  0.51743195005E+03  0.00000000000E+00 0. -1.
         21    1    1    2  504  505 -0.15373286058E+03  0.54762887512E+02  0.34528574409E+03  0.38190969004E+03  0.00000000000E+00 0. -1.
         21    1    1    2  505  502  0.96848412435E+02 -0.15028453950E+03 -0.53725676205E+02  0.18668558082E+03  0.00000000000E+00 0.  1.
         21    1    1    2  506  503  0.68564957332E+02 -0.10476116485E+01  0.62300252311E+02  0.92647570406E+02  0.00000000000E+00 0. -1.
<scales pt_clust_3="96.99897" pt_clust_4="193.50750" pt_clust_5="14000.00000" pt_clust_6="68.57296"></scales>
<clustering>
<clus scale="   68.573">  2  6  1 -1</clus>
<clus scale="   96.999">  1  3  2 -1</clus>
<clus scale="  193.507">  1  4  2 -1</clus>
<clus scale="   96.999">  1  3  2 -1</clus>
</clustering>
</event>
<event>
 6    0  0.2036847E+002  0.8197808E+02  0.7546771E-02  0.1323530E+00
         21   -1    0    0  504  501  0.00000000000E+00  0.00000000000E+00  0.13566317773E+03  0.13566317773E+03  0.00000000000E+00 0.  1.
         21   -1    0    0  506  502 -0.00000000000E+00 -0.00000000000E+00 -0.22019380665E+03  0.22019380665E+03  0.00000000000E+00 0.  1.
         21    1    1    2  503  501 -0.73872916338E+02  0.23550690431E+02  0.64400950347E+02  0.10079347793E+03  0.00000000000E+00 0.  1.
         21    1    1    2  504  505  0.10179218273E+02  0.30289058551E+02  0.16402023322E+02  0.35917543368E+02  0.00000000000E+00 0.  1.
         21    1    1    2  505  502  0.20615592297E+02  0.36076460240E+02 -0.30931541847E+02  0.51800327318E+02  0.00000000000E+00 0.  1.
         21    1    1    2  506  503  0.43078105768E+02 -0.89916209223E+02 -0.13440206074E+03  0.16734563576E+03  0.00000000000E+00 0.  1.
<scales pt_clust_3="81.97808" pt_clust_4="31.95377" pt_clust_5="44.54239" pt_clust_6="14000.00000"></scales>
<clustering>
<clus scale="   31.954">  1  4  2 -1</clus>
<clus scale="   44.542">  2  5  1 -1</clus>
<clus scale="   81.978">  1  3  2 -1</clus>
<clus scale="   31.954">  1  3  2 -1</clus>
</clustering>
</event>
<event>
 6    0  0.2036847E+002  0.1799207E+03  0.7546771E-02  0.1167880E+00
         21   -1    0    0  504  501  0.00000000000E+00  0.00000000000E+00  0.79501441047E+03  0.79501441047E+03  0.00000000000E+00 0. -1.
         21   -1    0    0  503  502 -0.00000000000E+00 -0.00000000000E+00 -0.14553414351E+03  0.14553414351E+03  0.00000000000E+00 0.  1.
         21    1    1    2  503  506  0.40559715812E+02 -0.45138449773E+01  0.20616013573E+02  0.45721825848E+02  0.00000000000E+00 0. -1.
         21    1    1    2  504  502 -0.48207370920E+02  0.16807473872E+03 -0.58549297662E+02  0.18439384118E+03  0.00000000000E+00 0.  1.
         21    1    1    2  505  501  0.96021397182E+01 -0.10438825684E+03  0.28461414674E+03  0.30330565734E+03  0.00000000000E+00 0. -1.
         21    1    1    2  506  505 -0.19544846095E+01 -0.59172636907E+02  0.40279940432E+03  0.40712722961E+03  0.00000000000E+00 0. -1.
<scales pt_clust_3="40.81011" pt_clust_4="164.33083" pt_clust_5="54.92012" pt_clust_6="54.92012"></scales>
<clustering>
<clus scale="   40.810">  2  3  1 -1</clus>
<clus scale="   54.920">  5  6 -1 -1</clus>
<clus scale="  164.331">  2  4  1 -1</clus>
<clus scale="  179.921">  1  3  2 -1</clus>
</clustering>
</event>
<event>
 6    0  0.2036847E+002  0.5980861E+02  0.7546771E-02  0.1398637E+00
         21   -1    0    0  503  501  0.00000000000E+00  0.00000000000E+00  0.20040199466E+02  0.20040199466E+02  0.00000000000E+00 0. -1.
         21   -1    0    0  505  502 -0.00000000000E+00 -0.00000000000E+00 -0.11012992977E+04  0.11012992977E+04  0.00000000000E+00 0. -1.
         21    1    1    2  503  506  0.15931035849E+02 -0.56242805535E+02 -0.78478639115E+02  0.97856772250E+02  0.00000000000E+00 0. -1.
         21    1    1    2  504  501 -0.62822010515E+01  0.69047962367E+02 -0.55331778304E+03  0.55764474012E+03  0.00000000000E+00 0. -1.
         21    1    1    2  505  504 -0.65655489587E+02 -0.63507675111E+01 -0.23353135896E+03  0.24266823273E+03  0.00000000000E+00 0. -1.
         21    1    1    2  506  502  0.56006654789E+02 -0.64543893202E+01 -0.21593131710E+03  0.22316975204E+03  0.00000000000E+00 0. -1.
<scales pt_clust_3="59.80861" pt_clust_4="14000.00000" pt_clust_5="51.17601" pt_clust_6="56.37734"></scales>
<clustering>
<clus scale="   56.377">  2  6  1 -1</clus>
<clus scale="   51.176">  2  5  1 -1</clus>
<clus scale="   59.809">  1  3  2 -1</clus>
<clus scale="   59.809">  1  3  2 -1</clus>
</clustering>
</event>
<event>
 6    0  0.2036847E+002  0.3679782E+03  0.7546771E-02  0.1055469E+00
         21   -1    0    0  505  501  0.00000000000E+00  0.00000000000E+00  0.83643810703E+03  0.83643810703E+03  0.00000000000E+00 0.  1.
         21   -1    0    0  504  502 -0.00000000000E+00 -0.00000000000E+00 -0.64716811029E+03  0.64716811029E+03  0.00000000000E+00 0.  1.
         21    1    1    2  503  506 -0.13267664711E+03 -0.10781532683E+03 -0.20629550438E+03  0.26792736425E+03  0.00000000000E+00 0.  1.
         21    1    1    2  504  503 -0.16222873959E+03 -0.99855558427E+02 -0.31900817653E+03  0.37155822315E+03  0.00000000000E+00 0.  1.
         21    1    1    2  505  502  0.32973694811E+03  0.23154042119E+03  0.60694366283E+03  0.72850396803E+03  0.00000000000E+00 0.  1.
         21    1    1    2  506  501 -0.34831561414E+02 -0.23869535929E+02  0.10763001482E+03  0.11561666189E+03  0.00000000000E+00 0.  1.
<scales pt_clust_3="51.09012" pt_clust_4="51.09012" pt_clust_5="364.01444" pt_clust_6="42.22549"></scales>
<clustering>
<clus scale="   42.225">  1  6  2 -1</clus>
<clus scale="   51.090">  3  4 -1 -1</clus>
<clus scale="  364.014">  1  5  2 -1</clus>
<clus scale="   42.225">  1  3  2 -1</clus>
</clustering>
</event>
<event>
 6    0  0.2036847E+002  0.1492930E+03  0.7546771E-02  0.1201344E+00
         21   -1    0    0  506  501  0.00000000000E+00  0.00000000000E+00  0.90413689726E+02  0.90413689726E+02  0.00000000000E+00 0. -1.
         21   -1    0    0  503  502 -0.00000000000E+00 -0.00000000000E+00 -0.11723259790E+04  0.11723259790E+04  0.00000000000E+00 0.  1.
         21    1    1    2  503  504 -0.27414613801E+02 -0.13013463614E+03 -0.82279911363E+03  0.83347763375E+03  0.00000000000E+00 0.  1.
         21    1    1    2  504  505  0.10495230571E+02 -0.50084727276E+02 -0.16643334874E+03  0.17412262731E+03  0.00000000000E+00 0.  1.
         21    1    1    2  505  501  0.32720541342E+01  0.13289534080E+03  0.17853723175E+02  0.13412916677E+03  0.00000000000E+00 0. -1.
         21    1    1    2  506  502  0.13647329096E+02  0.47324022608E+02 -0.11053355005E+03  0.12101024086E+03  0.00000000000E+00 0.  1.
<scales pt_clust_3="38.79847" pt_clust_4="38.79847" pt_clust_5="135.55909" pt_clust_6="49.25254"></scales>
<clustering>
<clus scale="   38.798">  3  4 -1 -1</clus>
<clus scale="   49.253">  2  6  1 -1</clus>
<clus scale="  135.559">  1  5  2 -1</clus>
<clus scale="  135.559">  1  3  2 -1</clus>
</clustering>
</event>
<event>
 6    0  0.2036847E+002  0.1089672E+03  0.7546771E-02  0.1262495E+00
         21   -1    0    0  503  501  0.00000000000E+00  0.00000000000E+00  0.63818633765E+02  0.63818633765E+02  0.00000000000E+00 0.  1.
         21   -1    0    0  506  502 -0.00000000000E+00 -0.00000000000E+00 -0.12207398843E+04  0.12207398843E+04  0.00000000000E+00 0.  1.
         21    1    1    2  503  502  0.72104725374E+02  0.79450689835E+02 -0.87740167497E+03  0.88393732967E+03  0.00000000000E+00 0.  1.
         21    1    1    2  504  501 -0.54607285713E+02 -0.94587353681E+02 -0.24061111488E+01  0.10924519440E+03  0.00000000000E+00 0.  1.
         21    1    1    2  505  504 -0.41687875014E+02 -0.20432370429E+02 -0.16059782413E+03  0.16717362770E+03  0.00000000000E+00 0. -1.
         21    1    1    2  506  505  0.24190435353E+02  0.35569034275E+02 -0.11651564033E+03  0.12420236634E+03  0.00000000000E+00 0. -1.
<scales pt_clust_3="14000.00000" pt_clust_4="108.96718" pt_clust_5="40.98215" pt_clust_6="43.01550"></scales>
<clustering>
<clus scale="   43.016">  2  6  1 -1</clus>
<clus scale="   40.982">  2  5  1 -1</clus>
<clus scale="  108.967">  1  4  2 -1</clus>
<clus scale="  108.967">  1  3  2 -1</clus>
</clustering>
</event>
<event>
 6    0  0.2036847E+002  0.3272257E+03  0.7546771E-02  0.1072371E+00
         21   -1    0    0  502  501  0.00000000000E+00  0.00000000000E+00  0.29925493213E+03  0.29925493213E+03  0.00000000000E+00 0. -1.
         21   -1    0    0  504  502 -0.00000000000E+00 -0.00000000000E+00 -0.37336022939E+03  0.37336022939E+03  0.00000000000E+00 0. -1.
         21    1    1    2  503  505 -0.11826390831E+03 -0.16811084247E+03  0.69416361413E+01  0.20565941184E+03  0.00000000000E+00 0. -1.
         21    1    1    2  504  506  0.86784587467E+02  0.29988856283E+02 -0.31342154774E+02  0.97021785125E+02  0.00000000000E+00 0. -1.
         21    1    1    2  505  501 -0.11183821345E+03 -0.33293963249E+02  0.47864896652E+02  0.12612423363E+03  0.00000000000E+00 0. -1.
         21    1    1    2  506  503  0.14331753429E+03  0.17141594944E+03 -0.97569675284E+02  0.24380973092E+03  0.00000000000E+00 0. -1.
<scales pt_clust_3="87.75784" pt_clust_4="49.80838" pt_clust_5="87.75784" pt_clust_6="315.51206"></scales>
<clustering>
<clus scale="   49.808">  4  6 -1 -1</clus>
<clus scale="   87.758">  3  5 -1 -1</clus>
<clus scale="  315.512">  2  4  1 -1</clus>
<clus scale="  327.226">  1  3  2 -1</clus>
</clustering>
</event>
<event>
 6    0  0.2036847E+002  0.1670011E+03  0.7546771E-02  0.1181012E+00
         21   -1    0    0  506  501  0.00000000000E+00  0.00000000000E+00  0.34479110294E+03  0.34479110294E+03  0.00000000000E+00 0. -1.
         21   -1    0    0  505  502 -0.00000000000E+00 -0.00000000000E+00 -0.18818050866E+03  0.18818050866E+03  0.00000000000E+00 0. -1.
         21    1    1    2  503  502 -0.37402063123E+02 -0.11510102340E+02 -0.44796759989E+02  0.59482320796E+02  0.00000000000E+00 0. -1.
         21    1    1    2  504  503  0.40838773640E+02 -0.86132277347E+02  0.15185954143E+03  0.17929834064E+03  0.00000000000E+00 0. -1.
         21    1    1    2  505  501 -0.75099371637E+02  0.11879737987E+03 -0.67039599372E+02  0.15571461386E+03  0.00000000000E+00 0. -1.
         21    1    1    2  506  504  0.71662661120E+02 -0.21155000183E+02  0.11658741221E+03  0.13847633631E+03  0.00000000000E+00 0. -1.
<scales pt_clust_3="39.13307" pt_clust_4="60.09949" pt_clust_5="152.11677" pt_clust_6="60.09949"></scales>
<clustering>
<clus scale="   39.133">  2  3  1 -1</clus>
<clus scale="   60.099">  4  6 -1 -1</clus>
<clus scale="  152.117">  2  5  1 -1</clus>
<clus scale="  167.001">  1  3  2 -1</clus>
</clustering>
</event>
<event>
 6    0  0.2036847E+002  0.9073550E+02  0.7546771E-02  0.1301080E+00
         21   -1    0    0  503  501  0.00000000000E+00  0.00000000000E+00  0.61249197310E+03  0.61249197310E+03  0.00000000000E+00 0. -1.
         21   -1    0    0  506  502 -0.00000000000E+00 -0.00000000000E+00 -0.35617003360E+02  0.35617003360E+02  0.00000000000E+00 0. -1.
         21    1    1    2  503  505  0.44760148438E+02 -0.82153320339E+02  0.31769424663E+03  0.33118314159E+03  0.00000000000E+00 0. -1.
         21    1    1    2  504  501  0.11610115180E+02  0.31901447964E+02  0.70362363750E+02  0.78124000084E+02  0.00000000000E+00 0. -1.
         21    1    1    2  505  502  0.29382874405E+02 -0.19700289082E+02  0.41105136664E+02  0.54231789187E+02  0.00000000000E+00 0.  1.
         21    1    1    2  506  504 -0.85753138022E+02  0.69952161458E+02  0.14771322269E+03  0.18457004559E+03  0.00000000000E+00 0. -1.
<scales pt_clust_3="14000.00000" pt_clust_4="33.94845" pt_clust_5="34.77932" pt_clust_6="90.73550"></scales>
<clustering>
<clus scale="   33.948">  1  4  2 -1</clus>
<clus scale="   34.779">  2  5  1 -1</clus>
<clus scale="   90.736">  2  6  1 -1</clus>
<clus scale="   33.948">  1  3  2 -1</clus>
</clustering>
</event>
<event>
 6    0  0.2036847E+002  0.6823004E+02  0.7546771E-02  0.1366217E+00
         21   -1    0    0  506  501  0.00000000000E+00  0.00000000000E+00  0.17410361147E+04  0.17410361147E+04  0.00000000000E+00 0.  1.
         21   -1    0    0  505  502 -0.00000000000E+00 -0.00000000000E+00 -0.51940357859E+03  0.51940357859E+03  0.00000000000E+00 0. -1.
         21    1    1    2  503  504 -0.19740467741E+02 -0.70220312355E+02 -0.16840210784E+03  0.18352070254E+03  0.00000000000E+00 0. -1.
         21    1    1    2  504  502 -0.33054062899E+02  0.26334295355E+02 -0.33167245863E+03  0.33435413262E+03  0.00000000000E+00 0. -1.
         21    1    1    2  505  501  0.86997499051E+01  0.96892707882E+02  0.15978547220E+04  0.16008134167E+04  0.00000000000E+00 0.  1.
         21    1    1    2  506  503  0.44094780735E+02 -0.53006690883E+02  0.12385238059E+03  0.14175144142E+03  0.00000000000E+00 0.  1.
<scales pt_clust_3="68.23004" pt_clust_4="42.26188" pt_clust_5="14000.00000" pt_clust_6="66.96390"></scales>
<clustering>
<clus scale="   42.262">  2  4  1 -1</clus>
<clus scale="   66.964">  1  6  2 -1</clus>
<clus scale="   68.230">  2  3  1 -1</clus>
<clus scale="   66.964">  1  3  2 -1</clus>
</clustering>
</event>
<event>
 6    0  0.2036847E+002  0.1761315E+03  0.7546771E-02  0.1171600E+00
         21   -1    0    0  503  501  0.00000000000E+00  0.00000000000E+00  0.74147558446E+03  0.74147558446E+03  0.00000000000E+00 0. -1.
         21   -1    0    0  505  502 -0.00000000000E+00 -0.00000000000E+00 -0.13570922146E+04  0.13570922146E+04  0.00000000000E+00 0.  1.
         21    1    1    2  503  502 -0.56473435830E+02  0.55130615721E+02 -0.16061241764E+03  0.17895525264E+03  0.00000000000E+00 0.  1.
         21    1    1    2  504  506  0.68337547372E+02 -0.16429213252E+02  0.21965778886E+03  0.23062845366E+03  0.00000000000E+00 0. -1.
         21    1    1    2  505  504 -0.11366643728E+03 -0.50729222231E+02 -0.11733172178E+04  0.11799011851E+04  0.00000000000E+00 0.  1.
         21    1    1    2  506  501  0.10180232574E+03  0.12027819762E+02  0.49865521647E+03  0.50908290767E+03  0.00000000000E+00 0. -1.
<scales pt_clust_3="78.92169" pt_clust_4="39.12281" pt_clust_5="169.67591" pt_clust_6="39.12281"></scales>
<clustering>
<clus scale="   39.123">  4  6 -1 -1</clus>
<clus scale="   78.922">  2  3  1 -1</clus>
<clus scale="  169.676">  2  5  1 -1</clus>
<clus scale="  176.131">  1  3  2 -1</clus>
</clustering>
</event>
<event>
 6    0  0.2036847E+002  0.1173663E+03  0.7546771E-02  0.1247506E+00
         21   -1    0    0  504  501  0.00000000000E+00  0.00000000000E+00  0.18970308004E+04  0.18970308004E+04  0.00000000000E+00 0. -1.
         21   -1    0    0  503  502 -0.00000000000E+00 -0.00000000000E+00 -0.46905378470E+02  0.46905378470E+02  0.00000000000E+00 0.  1.
         21    1    1    2  503  506 -0.22357219454E+02 -0.33504029944E+02  0.66547364707E+02  0.77787640623E+02  0.00000000000E+00 0.  1.
         21    1    1    2  504  502  0.11231042761E+03 -0.21056714946E+02  0.43724989192E+02  0.12234742366E+03  0.00000000000E+00 0.  1.
         21    1    1    2  505  501 -0.19536580679E+02  0.34284320109E+02  0.39878527996E+03  0.40073281885E+03  0.00000000000E+00 0. -1.
         21    1    1    2  506  505 -0.70416627480E+02  0.20276424782E+02  0.13410677881E+04  0.13430682957E+04  0.00000000000E+00 0. -1.
<scales pt_clust_3="40.27860" pt_clust_4="105.30752" pt_clust_5="38.02583" pt_clust_6="38.02583"></scales>
<clustering>
<clus scale="   38.026">  5  6 -1 -1</clus>
<clus scale="   40.279">  2  3  1 -1</clus>
<clus scale="  105.308">  2  4  1 -1</clus>
<clus scale="  117.366">  1  3  2 -1</clus>
</clustering>
</event>
<event>
 6    0  0.2036847E+002  0.2331507E+03  0.7546771E-02  0.1124442E+00
         21   -1    0    0  505  501  0.00000000000E+00  0.00000000000E+00  0.15851721444E+04  0.15851721444E+04  0.00000000000E+00 0. -1.
         21   -1    0    0  506  502 -0.00000000000E+00 -0.00000000000E+00 -0.68134431754E+02  0.68134431754E+02  0.00000000000E+00 0.  1.
         21    1    1    2  503  502  0.17643995489E+03 -0.14317380400E+03  0.82367600201E+03  0.85444248029E+03  0.00000000000E+00 0. -1.
         21    1    1    2  504  501  0.25236479858E+02  0.43768158819E+02  0.30605797849E+03  0.31019996428E+03  0.00000000000E+00 0. -1.
         21    1    1    2  505  503 -0.58115611321E+01 -0.31168590030E+02  0.15402907094E+03  0.15725841771E+03  0.00000000000E+00 0. -1.
         21    1    1    2  506  504 -0.19586487362E+03  0.13057423521E+03  0.23327466117E+03  0.33140571383E+03  0.00000000000E+00 0.  1.
<scales pt_clust_3="14000.00000" pt_clust_4="44.13523" pt_clust_5="31.70576" pt_clust_6="233.15072"></scales>
<clustering>
<clus scale="   31.706">  1  5  2 -1</clus>
<clus scale="   44.135">  1  4  2 -1</clus>
<clus scale="  233.151">  2  6  1 -1</clus>
<clus scale="   31.706">  1  3  2 -1</clus>
</clustering>
</event>
<event>
 6    0  0.2036847E+002  0.2374984E+03  0.7546771E-02  0.1121471E+00
         21   -1    0    0  505  501  0.00000000000E+00  0.00000000000E+00  0.23927286059E+04  0.23927286059E+04  0.00000000000E+00 0.  1.
         21   -1    0    0  506  502 -0.00000000000E+00 -0.00000000000E+00 -0.26188120176E+03  0.26188120176E+03  0.00000000000E+00 0. -1.
         21    1    1    2  503  501  0.13822421782E+02  0.43811238165E+02  0.20372017048E+03  0.20883580104E+03  0.00000000000E+00 0. -1.
         21    1    1    2  504  502 -0.60748566650E+01 -0.41019113960E+02  0.44566472878E+01  0.41705314993E+02  0.00000000000E+00 0. -1.
         21    1    1    2  505  504 -0.12167737396E+03  0.17038981263E+03  0.21125814074E+04  0.21229315284E+04  0.00000000000E+00 0.  1.
         21    1    1    2  506  503  0.11392980884E+03 -0.17318193683E+03 -0.18991082102E+03  0.28113716319E+03  0.00000000000E+00 0. -1.
<scales pt_clust_3="45.50951" pt_clust_4="41.46651" pt_clust_5="237.49843" pt_clust_6="14000.00000"></scales>
<clustering>
<clus scale="   41.467">  2  4  1 -1</clus>
<clus scale="   45.510">  1  3  2 -1</clus>
<clus scale="  237.498">  1  5  2 -1</clus>
<clus scale="   45.510">  1  3  2 -1</clus>
</clustering>
</event>
<event>
 6    0  0.2036847E+002  0.2033485E+03  0.7546771E-02  0.1146944E+00
         21   -1    0    0  506  501  0.00000000000E+00  0.00000000000E+00  0.55566260383E+03  0.55566260383E+03  0.00000000000E+00 0.  1.
         21   -1    0    0  505  502 -0.00000000000E+00 -0.00000000000E+00 -0.49910888363E+03  0.49910888363E+03  0.00000000000E+00 0. -1.
         21    1    1    2  503  504  0.12813347025E+03 -0.54759568707E+02 -0.27769340705E+03  0.31069345807E+03  0.00000000000E+00 0. -1.
         21    1    1    2  504  502  0.55163417759E+02  0.28122581146E+02 -0.17644826390E+03  0.18699698410E+03  0.00000000000E+00 0. -1.
         21    1    1    2  505  501 -0.18199305466E+03 -0.89301598412E+01  0.46304370665E+03  0.49760495774E+03  0.00000000000E+00 0.  1.
         21    1    1    2  506  503 -0.13038333484E+01  0.35567147402E+02  0.47651684496E+02  0.59476087557E+02  0.00000000000E+00 0.  1.
<scales pt_clust_3="56.51429" pt_clust_4="56.51429" pt_clust_5="184.95070" pt_clust_6="35.59104"></scales>
<clustering>
<clus scale="   35.591">  1  6  2 -1</clus>
<clus scale="   56.514">  3  4 -1 -1</clus>
<clus scale="  184.951">  1  5  2 -1</clus>
<clus scale="   35.591">  1  3  2 -1</clus>
</clustering>
</event>
<event>
 6    0  0.2036847E+002  0.1088750E+03  0.7546771E-02  0.1262668E+00
         21   -1    0    0  502  501  0.00000000000E+00  0.00000000000E+00  0.39888027061E+03  0.39888027061E+03  0.00000000000E+00 0. -1.
         21   -1    0    0  505  502 -0.00000000000E+00 -0.00000000000E+00 -0.23012061390E+03  0.23012061390E+03  0.00000000000E+00 0.  1.
         21    1    1    2  503  504  0.67775086717E+02 -0.11266729772E+03 -0.16749788164E+03  0.21293877691E+03  0.00000000000E+00 0.  1.
         21    1    1    2  504  506  0.10342454521E+02  0.97808857776E+02  0.17988037492E+03  0.20501338567E+03  0.00000000000E+00 0. -1.
         21    1    1    2  505  503  0.12612449857E+02  0.31596558638E+02  0.58839251085E+01  0.34525888604E+02  0.00000000000E+00 0. -1.
         21    1    1    2  506  501 -0.90729991095E+02 -0.16738118694E+02  0.15049323833E+03  0.17652283333E+03  0.00000000000E+00 0. -1.
<scales pt_clust_3="14000.00000" pt_clust_4="108.87497" pt_clust_5="34.02082" pt_clust_6="91.18380"></scales>
<clustering>
<clus scale="   34.021">  2  5  1 -1</clus>
<clus scale="   91.184">  1  6  2 -1</clus>
<clus scale="  108.875">  1  4  2 -1</clus>
<clus scale="   91.184">  1  3  2 -1</clus>
</clustering>
</event>
<event>
 6    0  0.2036847E+002  0.7506575E+02  0.7546771E-02  0.1343668E+00
         21   -1    0    0  506  501  0.00000000000E+00  0.00000000000E+00  0.22928196753E+03  0.22928196753E+03  0.00000000000E+00 0. -1.
         21   -1    0    0  505  502 -0.00000000000E+00 -0.00000000000E+00 -0.48511876950E+03  0.48511876950E+03  0.00000000000E+00 0. -1.
         21    1    1    2  503  504 -0.53933669780E+01 -0.84786283866E+02 -0.21336448678E+01  0.84984438455E+02  0.00000000000E+00 0. -1.
         21    1    1    2  504  502 -0.22170334082E+02  0.71307306244E+02 -0.40597659269E+03  0.41278717210E+03  0.00000000000E+00 0. -1.
         21    1    1    2  505  501  0.89886333642E+02  0.81436019352E+00  0.98446590187E+02  0.13331146716E+03  0.00000000000E+00 0. -1.
         21    1    1    2  506  503 -0.62322632583E+02  0.12664617428E+02  0.53826845400E+02  0.83317659307E+02  0.00000000000E+00 0. -1.
<scales pt_clust_3="14000.00000" pt_clust_4="75.06575" pt_clust_5="46.03615" pt_clust_6="63.59641"></scales>
<clustering>
<clus scale="   63.596">  1  6  2 -1</clus>
<clus scale="   46.036">  1  5  2 -1</clus>
<clus scale="   75.066">  2  4  1 -1</clus>
<clus scale="   63.596">  1  3  2 -1</clus>
</clustering>
</event>
<event>
 6    0  0.2036847E+002  0.1376602E+03  0.7546771E-02  0.1216512E+00
         21   -1    0    0  503  501  0.00000000000E+00  0.00000000000E+00  0.13527580758E+03  0.13527580758E+03  0.00000000000E+00 0.  1.
         21   -1    0    0  504  502 -0.00000000000E+00 -0.00000000000E+00 -0.18438328104E+04  0.18438328104E+04  0.00000000000E+00 0.  1.
         21    1    1    2  503  502 -0.15955348682E+03  0.18733591293E+02 -0.16198278017E+04  0.16277746680E+04  0.00000000000E+00 0.  1.
         21    1    1    2  504  506  0.21469570705E+02 -0.43170468708E+02 -0.16057912381E+03  0.16766122640E+03  0.00000000000E+00 0. -1.
         21    1    1    2  505  501  0.27684588846E+02  0.15255603309E+02  0.65478701854E+02  0.72709217355E+02  0.00000000000E+00 0.  1.
         21    1    1    2  506  505  0.11039932727E+03  0.91812741057E+01  0.63712208591E+01  0.11096350621E+03  0.00000000000E+00 0. -1.
<scales pt_clust_3="137.66017" pt_clust_4="48.17282" pt_clust_5="31.60965" pt_clust_6="14000.00000"></scales>
<clustering>
<clus scale="   31.610">  1  5  2 -1</clus>
<clus scale="   48.173">  2  4  1 -1</clus>
<clus scale="  137.660">  2  3  1 -1</clus>
<clus scale="   31.610">  1  3  2 -1</clus>
</clustering>
</event>
<event>
 6    0  0.2036847E+002  0.6407199E+02  0.7546771E-02  0.1381497E+00
         21   -1    0    0  506  501  0.00000000000E+00  0.00000000000E+00  0.95924109048E+02  0.95924109048E+02  0.00000000000E+00 0.  1.
         21   -1    0    0  505  502 -0.00000000000E+00 -0.00000000000E+00 -0.15583895809E+04  0.15583895809E+04  0.00000000000E+00 0. -1.
         21    1    1    2  503  501  0.34280944366E+02 -0.12804529543E+02 -0.10604566768E+02  0.38099815744E+02  0.00000000000E+00 0. -1.
         21    1    1    2  504  503 -0.82278594020E+02  0.22252626997E+02  0.55454491542E+02  0.10168651373E+03  0.00000000000E+00 0.  1.
         21    1    1    2  505  504 -0.21575566847E+02 -0.55759318258E+02 -0.81397233063E+03  0.81616515589E+03  0.00000000000E+00 0. -1.
         21    1    1    2  506  502  0.69573216502E+02  0.46311220804E+02 -0.69334306600E+03  0.69836220459E+03  0.00000000000E+00 0. -1.
<scales pt_clust_3="36.59425" pt_clust_4="50.50387" pt_clust_5="14000.00000" pt_clust_6="64.07199"></scales>
<clustering>
<clus scale="   36.594">  1  3  2 -1</clus>
<clus scale="   50.504">  1  4  2 -1</clus>
<clus scale="   64.072">  1  6  2 -1</clus>
<clus scale="   36.594">  1  3  2 -1</clus>
</clustering>
</event>
<event>
 6    0  0.2036847E+002  0.9061934E+02  0.7546771E-02  0.1301359E+00
         21   -1    0    0  503  501  0.00000000000E+00  0.00000000000E+00  0.29830152009E+03  0.29830152009E+03  0.00000000000E+00 0. -1.
         21   -1    0    0  506  502 -0.00000000000E+00 -0.00000000000E+00 -0.14937230518E+03  0.14937230518E+03  0.00000000000E+00 0. -1.
         21    1    1    2  503  502 -0.34289669353E+02  0.19251281955E+02 -0.41470684715E+02  0.57150774028E+02  0.00000000000E+00 0. -1.
         21    1    1    2  504  505 -0.59822575730E+02 -0.40623005586E+02 -0.52856705910E+02  0.89570087135E+02  0.00000000000E+00 0. -1.
         21    1    1    2  505  501  0.92672934311E+02 -0.25920388247E+02  0.23362670105E+03  0.25266890336E+03  0.00000000000E+00 0. -1.
         21    1    1    2  506  504  0.14393107711E+01  0.47292111877E+02  0.96299044852E+01  0.48284060741E+02  0.00000000000E+00 0. -1.
<scales pt_clust_3="39.32421" pt_clust_4="90.61934" pt_clust_5="14000.00000" pt_clust_6="51.27325"></scales>
<clustering>
<clus scale="   39.324">  2  3  1 -1</clus>
<clus scale="   51.273">  2  6  1 -1</clus>
<clus scale="   90.619">  2  4  1 -1</clus>
<clus scale="   90.619">  1  3  2 -1</clus>
</clustering>
</event>
<event>
 6    0  0.2036847E+002  0.1050711E+03  0.7546771E-02  0.1269980E+00
         21   -1    0    0  505  501  0.00000000000E+00  0.00000000000E+00  0.10059029010E+03  0.10059029010E+03  0.00000000000E+00 0. -1.
         21   -1    0    0  503  502 -0.00000000000E+00 -0.00000000000E+00 -0.14846806638E+04  0.14846806638E+04  0.00000000000E+00 0. -1.
         21    1    1    2  503  501 -0.13074843456E+03  0.24575731611E+02 -0.12391967861E+04  0.12463176940E+04  0.00000000000E+00 0. -1.
         21    1    1    2  504  502  0.48226366809E+02  0.35672778275E+02 -0.16748123311E+03  0.17789967119E+03  0.00000000000E+00 0.  1.
         21    1    1    2  505  506 -0.30342309620E+02 -0.13645116062E+02  0.20202431433E+02  0.38922784860E+02  0.00000000000E+00 0. -1.
         21    1    1    2  506  504  0.11286437737E+03 -0.46603393823E+02  0.23852140987E+01  0.12213080382E+03  0.00000000000E+00 0. -1.
<scales pt_clust_3="105.07114" pt_clust_4="57.60422" pt_clust_5="33.26928" pt_clust_6="14000.00000"></scales>
<clustering>
<clus scale="   33.269">  1  5  2 -1</clus>
<clus scale="   57.604">  2  4  1 -1</clus>
<clus scale="  105.071">  2  3  1 -1</clus>
<clus scale="   33.269">  1  3  2 -1</clus>
</clustering>
</event>
<event>
 6    0  0.2036847E+002  0.1459671E+03  0.7546771E-02  0.1205518E+00
         21   -1    0    0  506  501  0.00000000000E+00  0.00000000000E+00  0.55405045086E+02  0.55405045086E+02  0.00000000000E+00 0. -1.
         21   -1    0    0  504  502 -0.00000000000E+00 -0.00000000000E+00 -0.12710346151E+04  0.12710346151E+04  0.00000000000E+00 0.  1.
         21    1    1    2  503  501  0.14666754492E+02  0.63104429239E+02 -0.60286459519E+02  0.88497117909E+02  0.00000000000E+00 0.  1.
         21    1    1    2  504  503  0.68040105838E+02  0.49817397852E+02 -0.17688727078E+02  0.86163334411E+02  0.00000000000E+00 0. -1.
         21    1    1    2  505  502  0.52142999263E+01 -0.72431378479E+02 -0.68813431704E+03  0.69195544062E+03  0.00000000000E+00 0.  1.
         21    1    1    2  506  505 -0.87921160256E+02 -0.40490448613E+02 -0.44952006640E+03  0.45982376727E+03  0.00000000000E+00 0.  1.
<scales pt_clust_3="60.94334" pt_clust_4="60.94334" pt_clust_5="72.61882" pt_clust_6="128.34332"></scales>
<clustering>
<clus scale="   60.943">  3  4 -1 -1</clus>
<clus scale="   72.619">  2  5  1 -1</clus>
<clus scale="  128.343">  2  6  1 -1</clus>
<clus scale="  145.967">  1  3  2 -1</clus>
</clustering>
</event>
<event>
 6    0  0.2036847E+002  0.2041638E+03  0.7546771E-02  0.1146273E+00
         21   -1    0    0  505  501  0.00000000000E+00  0.00000000000E+00  0.12627211023E+03  0.12627211023E+03  0.00000000000E+00 0.  1.
         21   -1    0    0  503  502 -0.00000000000E+00 -0.00000000000E+00 -0.58525286110E+03  0.58525286110E+03  0.00000000000E+00 0. -1.
         21    1    1    2  503  504  0.10653105223E+03  0.37361177328E+02 -0.30676857791E+03  0.32688175700E+03  0.00000000000E+00 0. -1.
         21    1    1    2  504  501  0.70307383751E+02  0.49234350790E+02 -0.15864770716E+03  0.18037805991E+03  0.00000000000E+00 0. -1.
         21    1    1    2  505  506 -0.31775523801E+02 -0.39462152860E+02  0.10240836129E+02  0.51689652212E+02  0.00000000000E+00 0.  1.
         21    1    1    2  506  502 -0.14506291218E+03 -0.47133375259E+02 -0.38053019143E+01  0.15257550222E+03  0.00000000000E+00 0.  1.
<scales pt_clust_3="201.74291" pt_clust_4="38.30225" pt_clust_5="31.10222" pt_clust_6="31.10222"></scales>
<clustering>
<clus scale="   31.102">  5  6 -1 -1</clus>
<clus scale="   38.302">  3  4 -1 -1</clus>
<clus scale="  201.743">  2  3  1 -1</clus>
<clus scale="  204.164">  1  3  2 -1</clus>
</clustering>
</event>
<event>
 6    0  0.2036847E+002  0.7577789E+02  0.7546771E-02  0.1341479E+00
         21   -1    0    0  504  501  0.00000000000E+00  0.00000000000E+00  0.64421602782E+03  0.64421602782E+03  0.00000000000E+00 0.  1.
         21   -1    0    0  503  502 -0.00000000000E+00 -0.00000000000E+00 -0.12932080309E+03  0.12932080309E+03  0.00000000000E+00 0. -1.
         21    1    1    2  503  506 -0.27734591623E+02  0.91291141974E+02  0.70354033465E+02  0.11854522428E+03  0.00000000000E+00 0. -1.
         21    1    1    2  504  505  0.40293635587E+02  0.11146465137E+02  0.38734914613E+03  0.38959874455E+03  0.00000000000E+00 0.  1.
         21    1    1    2  505  502 -0.47901935815E+02 -0.49876284263E+02 -0.85091259914E+02  0.10964835475E+03  0.00000000000E+00 0. -1.
         21    1    1    2  506  501  0.35342891851E+02 -0.52561322849E+02  0.14228330505E+03  0.15574450732E+03  0.00000000000E+00 0.  1.
<scales pt_clust_3="14000.00000" pt_clust_4="41.80695" pt_clust_5="67.43550" pt_clust_6="75.77789"></scales>
<clustering>
<clus scale="   41.807">  1  4  2 -1</clus>
<clus scale="   67.436">  2  5  1 -1</clus>
<clus scale="   75.778">  1  6  2 -1</clus>
<clus scale="   41.807">  1  3  2 -1</clus>
</clustering>
</event>
<event>
 6    0  0.2036847E+002  0.9737652E+02  0.7546771E-02  0.1285912E+00
         21   -1    0    0  503  501  0.00000000000E+00  0.00000000000E+00  0.95389713541E+03  0.95389713541E+03  0.00000000000E+00 0.  1.
         21   -1    0    0  505  502 -0.00000000000E+00 -0.00000000000E+00 -0.82366088252E+03  0.82366088252E+03  0.00000000000E+00 0. -1.
         21    1    1    2  503  504 -0.72640921920E+02  0.57775654905E+01  0.15658166576E+03  0.17270756166E+03  0.00000000000E+00 0.  1.
         21    1    1    2  504  502 -0.67002944256E+02 -0.39750053009E+01 -0.67026277036E+03  0.67361515462E+03  0.00000000000E+00 0. -1.
         21    1    1    2  505  506  0.30854205250E+02 -0.13364007401E+02 -0.13782887146E+03  0.14187098535E+03  0.00000000000E+00 0. -1.
         21    1    1    2  506  501  0.10878966093E+03  0.11561447211E+02  0.78174622894E+03  0.78936431630E+03  0.00000000000E+00 0.  1.
<scales pt_clust_3="14000.00000" pt_clust_4="40.47710" pt_clust_5="33.62408" pt_clust_6="97.37652"></scales>
<clustering>
<clus scale="   33.624">  2  5  1 -1</clus>
<clus scale="   40.477">  2  4  1 -1</clus>
<clus scale="   97.377">  1  6  2 -1</clus>
<clus scale="   97.377">  1  3  2 -1</clus>
</clustering>
</event>
<event>
 6    0  0.2036847E+002  0.1036728E+03  0.7546771E-02  0.1272757E+00
         21   -1    0    0  506  501  0.00000000000E+00  0.00000000000E+00  0.16183281256E+03  0.16183281256E+03  0.00000000000E+00 0.  1.
         21   -1    0    0  503  502 -0.00000000000E+00 -0.00000000000E+00 -0.21334932713E+03  0.21334932713E+03  0.00000000000E+00 0.  1.
         21    1    1    2  503  505  0.92541530439E+02 -0.43359160355E+02  0.75768073387E+01  0.10247614187E+03  0.00000000000E+00 0.  1.
         21    1    1    2  504  502 -0.10408098055E+03  0.15646444050E+02 -0.13080332513E+03  0.16789035585E+03  0.00000000000E+00 0.  1.
         21    1    1    2  505  501 -0.29591327236E+02  0.85620328823E+01  0.33370408237E+02  0.45415186894E+02  0.00000000000E+00 0.  1.
         21    1    1    2  506  504  0.41130777348E+02  0.19150683423E+02  0.38339594981E+02  0.59400455084E+02  0.00000000000E+00 0. -1.
<scales pt_clust_3="103.67278" pt_clust_4="14000.00000" pt_clust_5="30.80511" pt_clust_6="36.99963"></scales>
<clustering>
<clus scale="   30.805">  1  5  2 -1</clus>
<clus scale="   37.000">  1  6  2 -1</clus>
<clus scale="  103.673">  1  3  2 -1</clus>
<clus scale="   30.805">  1  3  2 -1</clus>
</clustering>
</event>
<event>
 6    0  0.2036847E+002  0.1498200E+03  0.7546771E-02  0.1200694E+00
         21   -1    0    0  506  501  0.00000000000E+00  0.00000000000E+00  0.30477524616E+03  0.30477524616E+03  0.00000000000E+00 0.  1.
         21   -1    0    0  505  502 -0.00000000000E+00 -0.00000000000E+00 -0.87302585567E+03  0.87302585567E+03  0.00000000000E+00 0.  1.
         21    1    1    2  503  504  0.45368340554E+02  0.11814795036E+02 -0.15197451608E+03  0.15904128157E+03  0.00000000000E+00 0.  1.
         21    1    1    2  504  501 -0.77649194682E+02 -0.99708502438E+02  0.20109899046E+03  0.23751207729E+03  0.00000000000E+00 0.  1.
         21    1    1    2  505  503  0.73151468925E+02  0.57746291171E+02 -0.68798597823E+03  0.69426974426E+03  0.00000000000E+00 0.  1.
         21    1    1    2  506  502 -0.40870614797E+02  0.30147416231E+02  0.70610894347E+02  0.86977998711E+02  0.00000000000E+00 0.  1.
<scales pt_clust_3="43.26061" pt_clust_4="136.84173" pt_clust_5="43.26061" pt_clust_6="50.78655"></scales>
<clustering>
<clus scale="   43.261">  3  5 -1 -1</clus>
<clus scale="   50.787">  1  6  2 -1</clus>
<clus scale="  136.842">  1  4  2 -1</clus>
<clus scale="   50.787">  1  3  2 -1</clus>
</clustering>
</event>
<event>
 6    0  0.2036847E+002  0.1371154E+03  0.7546771E-02  0.1217264E+00
         21   -1    0    0  506  501  0.00000000000E+00  0.00000000000E+00  0.31960343429E+03  0.31960343429E+03  0.00000000000E+00 0. -1.
         21   -1    0    0  505  502 -0.00000000000E+00 -0.00000000000E+00 -0.10164031965E+03  0.10164031965E+03  0.00000000000E+00 0. -1.
         21    1    1    2  503  502 -0.60891625931E+01  0.78195317116E+02  0.62754374893E+02  0.10044748423E+03  0.00000000000E+00 0. -1.
         21    1    1    2  504  501 -0.87390604936E+01 -0.10911597524E+03  0.11043381350E+03  0.15549371176E+03  0.00000000000E+00 0. -1.
         21    1    1    2  505  504 -0.27827996212E+02 -0.52749167306E+02 -0.34295726074E+01  0.59738044770E+02  0.00000000000E+00 0.  1.
         21    1    1    2  506  503  0.42656219299E+02  0.83669825435E+02  0.48204498848E+02  0.10556451318E+03  0.00000000000E+00 0.  1.
<scales pt_clust_3="46.52228" pt_clust_4="127.31470" pt_clust_5="59.63952" pt_clust_6="46.52228"></scales>
<clustering>
<clus scale="   46.522">  3  6 -1 -1</clus>
<clus scale="   59.640">  2  5  1 -1</clus>
<clus scale="  127.315">  1  4  2 -1</clus>
<clus scale="  127.315">  1  3  2 -1</clus>
</clustering>
</event>
<event>
 6    0  0.2036847E+002  0.8333465E+02  0.7546771E-02  0.1319846E+00
         21   -1    0    0  503  501  0.00000000000E+00  0.00000000000E+00  0.79098203487E+02  0.79098203487E+02  0.00000000000E+00 0.  1.
         21   -1    0    0  505  502 -0.00000000000E+00 -0.00000000000E+00 -0.36579734624E+04  0.36579734624E+04  0.00000000000E+00 0.  1.
         21    1    1    2  503  506 -0.38122775596E+02  0.19622843514E+02 -0.84032698596E+02  0.94339262452E+02  0.00000000000E+00 0.  1.
         21    1    1    2  504  501  0.87728387123E+02  0.13493886292E+02  0.44180130633E+02  0.99147560823E+02  0.00000000000E+00 0.  1.
         21    1    1    2  505  504 -0.63576561257E+01  0.68663304586E+02 -0.12767255355E+04  0.12785863922E+04  0.00000000000E+00 0.  1.
         21    1    1    2  506  502 -0.43247955402E+02 -0.10178003439E+03 -0.22622971554E+04  0.22649984504E+04  0.00000000000E+00 0.  1.
<scales pt_clust_3="42.87659" pt_clust_4="60.29731" pt_clust_5="83.33465" pt_clust_6="14000.00000"></scales>
<clustering>
<clus scale="   42.877">  1  3  2 -1</clus>
<clus scale="   60.297">  1  4  2 -1</clus>
<clus scale="   83.335">  2  5  1 -1</clus>
<clus scale="   42.877">  1  3  2 -1</clus>
</clustering>
</event>
<event>
 6    0  0.2036847E+002  0.1529781E+03  0.7546771E-02  0.1196861E+00
         21   -1    0    0  503  501  0.00000000000E+00  0.00000000000E+00  0.33596726659E+03  0.33596726659E+03  0.00000000000E+00 0.  1.
         21   -1    0    0  501  502 -0.00000000000E+00 -0.00000000000E+00 -0.85414742540E+02  0.85414742540E+02  0.00000000000E+00 0.  1.
         21    1    1    2  503  506 -0.53927124448E+02  0.47342149333E+02  0.16271649541E+03  0.17783720570E+03  0.00000000000E+00 0.  1.
         21    1    1    2  504  502  0.62696402857E+02 -0.37867219334E+02  0.54332811794E+01  0.73445801620E+02  0.00000000000E+00 0.  1.
         21    1    1    2  505  504  0.27633077332E+02 -0.69393630147E+02  0.22849249975E+02  0.78109865524E+02  0.00000000000E+00 0.  1.
         21    1    1    2  506  505 -0.36402355741E+02  0.59918700147E+02  0.59553497490E+02  0.91989136284E+02  0.00000000000E+00 0.  1.
<scales pt_clust_3="60.43236" pt_clust_4="49.56142" pt_clust_5="148.89331" pt_clust_6="60.43236"></scales>
<clustering>
<clus scale="   49.561">  4  5 -1 -1</clus>
<clus scale="   60.432">  3  6 -1 -1</clus>
<clus scale="  148.893">  2  4  1 -1</clus>
<clus scale="  152.978">  1  3  2 -1</clus>
</clustering>
</event>
<event>
 6    0  0.2036847E+002  0.1116050E+03  0.7546771E-02  0.1257626E+00
         21   -1    0    0  504  501  0.00000000000E+00  0.00000000000E+00  0.36652611006E+03  0.36652611006E+03  0.00000000000E+00 0.  1.
         21   -1    0    0  503  502 -0.00000000000E+00 -0.00000000000E+00 -0.13217173012E+04  0.13217173012E+04  0.00000000000E+00 0. -1.
         21    1    1    2  503  505 -0.74813943146E+02 -0.88210762695E+02 -0.10426301747E+04  0.10490261894E+04  0.00000000000E+00 0. -1.
         21    1    1    2  504  506  0.50038873521E+02 -0.98882084202E+02  0.19769349027E+03  0.22663687153E+03  0.00000000000E+00 0.  1.
         21    1    1    2  505  501  0.23283926622E+02  0.12806707149E+03  0.11868359790E+03  0.17615082302E+03  0.00000000000E+00 0.  1.
         21    1    1    2  506  502  0.14911430035E+01  0.59025775404E+02 -0.22893810463E+03  0.23642952739E+03  0.00000000000E+00 0. -1.
<scales pt_clust_3="79.86768" pt_clust_4="111.60501" pt_clust_5="14000.00000" pt_clust_6="59.04461"></scales>
<clustering>
<clus scale="   59.045">  2  6  1 -1</clus>
<clus scale="   79.868">  2  3  1 -1</clus>
<clus scale="  111.605">  1  4  2 -1</clus>
<clus scale="  111.605">  1  3  2 -1</clus>
</clustering>
</event>
<event>
 6    0  0.2036847E+002  0.1703075E+03  0.7546771E-02  0.1177528E+00
         21   -1    0    0  503  501  0.00000000000E+00  0.00000000000E+00  0.25175996613E+03  0.25175996613E+03  0.00000000000E+00 0. -1.
         21   -1    0    0  505  502 -0.00000000000E+00 -0.00000000000E+00 -0.11523776364E+04  0.11523776364E+04  0.00000000000E+00 0. -1.
         21    1    1    2  503  502  0.38840643605E+02 -0.13266593469E+02 -0.13230788380E+03  0.13852788244E+03  0.00000000000E+00 0. -1.
         21    1    1    2  504  501 -0.37866143699E+02  0.31420386959E+02  0.99406524758E+02  0.11091772951E+03  0.00000000000E+00 0. -1.
         21    1    1    2  505  506  0.28612597349E+02 -0.13034568327E+03 -0.98247629078E+03  0.99149802814E+03  0.00000000000E+00 0. -1.
         21    1    1    2  506  504 -0.29587097256E+02  0.11219188978E+03  0.11475997957E+03  0.16319396242E+03  0.00000000000E+00 0. -1.
<scales pt_clust_3="41.04386" pt_clust_4="41.67979" pt_clust_5="157.82633" pt_clust_6="41.67979"></scales>
<clustering>
<clus scale="   41.044">  2  3  1 -1</clus>
<clus scale="   41.680">  4  6 -1 -1</clus>
<clus scale="  157.826">  2  5  1 -1</clus>
<clus scale="  170.308">  1  3  2 -1</clus>
</clustering>
</event>
<event>
 6    0  0.2036847E+002  0.1445650E+03  0.7546771E-02  0.1207315E+00
         21   -1    0    0  503  501  0.00000000000E+00  0.00000000000E+00  0.20901039592E+04  0.20901039592E+04  0.00000000000E+00 0.  1.
         21   -1    0    0  506  502 -0.00000000000E+00 -0.00000000000E+00 -0.26249033983E+03  0.26249033983E+03  0.00000000000E+00 0. -1.
         21    1    1    2  503  505  0.32541893912E+02 -0.38643500334E+02  0.66967524092E+03  0.67157815872E+03  0.00000000000E+00 0.  1.
         21    1    1    2  504  502 -0.35037915173E+02  0.61295656982E+01 -0.21811476830E+03  0.22099610681E+03  0.00000000000E+00 0. -1.
         21    1    1    2  505  504  0.93653055743E+02 -0.21158219169E+02  0.13468649183E+04  0.13502828123E+04  0.00000000000E+00 0.  1.
         21    1    1    2  506  501 -0.91157034483E+02  0.53672153805E+02  0.29188228434E+02  0.10973722116E+03  0.00000000000E+00 0. -1.
<scales pt_clust_3="32.32765" pt_clust_4="35.57003" pt_clust_5="32.32765" pt_clust_6="137.52412"></scales>
<clustering>
<clus scale="   32.328">  3  5 -1 -1</clus>
<clus scale="   35.570">  2  4  1 -1</clus>
<clus scale="  137.524">  2  6  1 -1</clus>
<clus scale="  144.565">  1  3  2 -1</clus>
</clustering>
</event>
<event>
 6    0  0.2036847E+002  0.1839152E+03  0.7546771E-02  0.1164067E+00
         21   -1    0    0  505  501  0.00000000000E+00  0.00000000000E+00  0.41454191719E+02  0.41454191719E+02  0.00000000000E+00 0. -1.
         21   -1    0    0  503  502 -0.00000000000E+00 -0.00000000000E+00 -0.18521665883E+04  0.18521665883E+04  0.00000000000E+00 0. -1.
         21    1    1    2  503  504  0.95684247147E+02  0.13043259454E+02 -0.13039914674E+03  0.16226379522E+03  0.00000000000E+00 0.  1.
         21    1    1    2  504  501  0.79949779082E+02 -0.82574193421E+01 -0.59148358855E+02  0.99793188669E+02  0.00000000000E+00 0. -1.
         21    1    1    2  505  506 -0.40929947562E+02  0.22154793015E+02 -0.41373713775E+03  0.41634662796E+03  0.00000000000E+00 0. -1.
         21    1    1    2  506  502 -0.13470407867E+03 -0.26940633126E+02 -0.12074277533E+04  0.12152171682E+04  0.00000000000E+00 0. -1.
<scales pt_clust_3="180.95747" pt_clust_4="39.50821" pt_clust_5="31.63882" pt_clust_6="31.63882"></scales>
<clustering>
<clus scale="   31.639">  5  6 -1 -1</clus>
<clus scale="   39.508">  3  4 -1 -1</clus>
<clus scale="  180.957">  1  3  2 -1</clus>
<clus scale="  180.957">  1  3  2 -1</clus>
</clustering>
</event>
<event>
 6    0  0.2036847E+002  0.7738656E+02  0.7546771E-02  0.1336636E+00
         21   -1    0    0  504  501  0.00000000000E+00  0.00000000000E+00  0.71532674824E+02  0.71532674824E+02  0.00000000000E+00 0. -1.
         21   -1    0    0  505  502 -0.00000000000E+00 -0.00000000000E+00 -0.23103290969E+04  0.23103290969E+04  0.00000000000E+00 0. -1.
         21    1    1    2  503  502  0.41032244785E+02 -0.97084473719E+01 -0.79258255364E+03  0.79370334722E+03  0.00000000000E+00 0.  1.
         21    1    1    2  504  506 -0.41608791519E+02  0.11783411970E+02  0.12200766225E+01  0.43262326755E+02  0.00000000000E+00 0. -1.
         21    1    1    2  505  501 -0.67028213904E+02 -0.62776644968E+02 -0.14510629503E+04  0.14539660843E+04  0.00000000000E+00 0. -1.
         21    1    1    2  506  503  0.67604760638E+02  0.60701680370E+02  0.36290052520E+01  0.90930013416E+02  0.00000000000E+00 0. -1.
<scales pt_clust_3="42.16514" pt_clust_4="42.66147" pt_clust_5="14000.00000" pt_clust_6="77.38656"></scales>
<clustering>
<clus scale="   42.165">  2  3  1 -1</clus>
<clus scale="   42.661">  1  4  2 -1</clus>
<clus scale="   77.387">  1  6  2 -1</clus>
<clus scale="   42.661">  1  3  2 -1</clus>
</clustering>
</event>
<event>
 6    0  0.2036847E+002  0.1733100E+03  0.7546771E-02  0.1174439E+00
         21   -1    0    0  503  501  0.00000000000E+00  0.00000000000E+00  0.65723246334E+03  0.65723246334E+03  0.00000000000E+00 0. -1.
         21   -1    0    0  506  502 -0.00000000000E+00 -0.00000000000E+00 -0.26498833993E+03  0.26498833993E+03  0.00000000000E+00 0. -1.
         21    1    1    2  503  502 -0.10981148453E+03  0.51608600315E+02 -0.21631935308E+03  0.24802433807E+03  0.00000000000E+00 0. -1.
         21    1    1    2  504  505  0.10761950420E+03 -0.42357924885E+01  0.42710457437E+03  0.44047499029E+03  0.00000000000E+00 0. -1.
         21    1    1    2  505  501  0.34625930914E+02 -0.55239204479E+02  0.18863599156E+03  0.19958422311E+03  0.00000000000E+00 0. -1.
         21    1    1    2  506  504 -0.32433950579E+02  0.78663966525E+01 -0.71770894488E+01  0.34137251785E+02  0.00000000000E+00 0. -1.
<scales pt_clust_3="152.53863" pt_clust_4="64.01197" pt_clust_5="64.01197" pt_clust_6="33.37426"></scales>
<clustering>
<clus scale="   33.374">  2  6  1 -1</clus>
<clus scale="   64.012">  4  5 -1 -1</clus>
<clus scale="  152.539">  2  3  1 -1</clus>
<clus scale="  173.310">  1  3  2 -1</clus>
</clustering>
</event>
<event>
 6    0  0.2036847E+002  0.1640370E+03  0.7546771E-02  0.1184213E+00
         21   -1    0    0  505  501  0.00000000000E+00  0.00000000000E+00  0.61058168435E+03  0.61058168435E+03  0.00000000000E+00 0. -1.
         21   -1    0    0  504  502 -0.00000000000E+00 -0.00000000000E+00 -0.85824514757E+02  0.85824514757E+02  0.00000000000E+00 0. -1.
         21    1    1    2  503  502  0.78243026964E+02 -0.66657012224E+02  0.58398645491E+01  0.10295257435E+03  0.00000000000E+00 0. -1.
         21    1    1    2  504  506 -0.52239911276E+02  0.88664890442E+02  0.41934230930E+03  0.43178518212E+03  0.00000000000E+00 0. -1.
         21    1    1    2  505  503 -0.24133919988E+01 -0.67821859276E+02  0.27862603876E+02  0.73361800355E+02  0.00000000000E+00 0. -1.
         21    1    1    2  506  501 -0.23589723690E+02  0.45813981059E+02  0.71712391866E+02  0.88306642283E+02  0.00000000000E+00 0. -1.
<scales pt_clust_3="63.03918" pt_clust_4="144.19408" pt_clust_5="63.03918" pt_clust_6="51.53053"></scales>
<clustering>
<clus scale="   51.531">  1  6  2 -1</clus>
<clus scale="   63.039">  3  5 -1 -1</clus>
<clus scale="  144.194">  1  4  2 -1</clus>
<clus scale="   51.531">  1  3  2 -1</clus>
</clustering>
</event>
<event>
 6    0  0.2036847E+002  0.1753752E+03  0.7546771E-02  0.1172356E+00
         21   -1    0    0  503  501  0.00000000000E+00  0.00000000000E+00  0.53333659351E+03  0.53333659351E+03  0.00000000000E+00 0. -1.
         21   -1    0    0  505  502 -0.00000000000E+00 -0.00000000000E+00 -0.75163479184E+03  0.75163479184E+03  0.00000000000E+00 0.  1.
         21    1    1    2  503  502 -0.65980598317E+02  0.11792495244E+03  0.47384670187E+03  0.49273768948E+03  0.00000000000E+00 0. -1.
         21    1    1    2  504  501  0.12773771840E+02  0.37107066738E+02  0.29718204139E+02  0.49226774282E+02  0.00000000000E+00 0. -1.
         21    1    1    2  505  506  0.87583778951E+01 -0.90733995818E+02 -0.48759122609E+03  0.49603888048E+03  0.00000000000E+00 0.  1.
         21    1    1    2  506  504  0.44448448581E+02 -0.64298023357E+02 -0.23427187825E+03  0.24696804111E+03  0.00000000000E+00 0.  1.
<scales pt_clust_3="163.24645" pt_clust_4="39.24415" pt_clust_5="59.33089" pt_clust_6="59.33089"></scales>
<clustering>
<clus scale="   39.244">  1  4  2 -1</clus>
<clus scale="   59.331">  5  6 -1 -1</clus>
<clus scale="  163.246">  1  3  2 -1</clus>
<clus scale="   39.244">  1  3  2 -1</clus>
</clustering>
</event>
<event>
 6    0  0.2036847E+002  0.1556694E+03  0.7546771E-02  0.1193675E+00
         21   -1    0    0  503  501  0.00000000000E+00  0.00000000000E+00  0.42440883948E+03  0.42440883948E+03  0.00000000000E+00 0.  1.
         21   -1    0    0  504  502 -0.00000000000E+00 -0.00000000000E+00 -0.61346572472E+02  0.61346572472E+02  0.00000000000E+00 0.  1.
         21    1    1    2  503  505 -0.63528590767E+02 -0.49014601455E+02  0.55102943916E+02  0.97337800616E+02  0.00000000000E+00 0.  1.
         21    1    1    2  504  506  0.24694717368E+02  0.81262563225E+02  0.13194971609E+03  0.15692087440E+03  0.00000000000E+00 0.  1.
         21    1    1    2  505  502 -0.24960271533E+02 -0.60365935316E+02  0.34797885654E+02  0.74013202522E+02  0.00000000000E+00 0.  1.
         21    1    1    2  506  501  0.63794144932E+02  0.28117973546E+02  0.14121172134E+03  0.15748353441E+03  0.00000000000E+00 0.  1.
<scales pt_clust_3="145.87326" pt_clust_4="60.36047" pt_clust_5="34.76545" pt_clust_6="60.36047"></scales>
<clustering>
<clus scale="   34.765">  3  5 -1 -1</clus>
<clus scale="   60.360">  4  6 -1 -1</clus>
<clus scale="  145.873">  2  3  1 -1</clus>
<clus scale="  155.669">  1  3  2 -1</clus>
</clustering>
</event>
<event>
 6    0  0.2036847E+002  0.2052094E+03  0.7546771E-02  0.1145417E+00
         21   -1    0    0  506  501  0.00000000000E+00  0.00000000000E+00  0.18978368596E+03  0.18978368596E+03  0.00000000000E+00 0.  1.
         21   -1    0    0  503  502 -0.00000000000E+00 -0.00000000000E+00 -0.67008951580E+03  0.67008951580E+03  0.00000000000E+00 0. -1.
         21    1    1    2  503  504 -0.31008076652E+02 -0.20182823944E+02 -0.31143687220E+02  0.48360897982E+02  0.00000000000E+00 0.  1.
         21    1    1    2  504  505 -0.14644173657E+03 -0.47146618324E+02  0.46708042340E+02  0.16077819208E+03  0.00000000000E+00 0.  1.
         21    1    1    2  505  501 -0.38197857567E+02  0.97795740620E+01  0.48428958152E+02  0.62450623530E+02  0.00000000000E+00 0. -1.
         21    1    1    2  506  502  0.21564767079E+03  0.57549868206E+02 -0.54429914311E+03  0.58828348816E+03  0.00000000000E+00 0. -1.
<scales pt_clust_3="36.99794" pt_clust_4="36.82829" pt_clust_5="36.82829" pt_clust_6="191.88255"></scales>
<clustering>
<clus scale="   36.828">  4  5 -1 -1</clus>
<clus scale="   36.998">  2  3  1 -1</clus>
<clus scale="  191.883">  2  6  1 -1</clus>
<clus scale="  205.209">  1  3  2 -1</clus>
</clustering>
</event>
<event>
 6    0  0.2036847E+002  0.1045650E+03  0.7546771E-02  0.1270979E+00
         21   -1    0    0  506  501  0.00000000000E+00  0.00000000000E+00  0.73410438102E+03  0.73410438102E+03  0.00000000000E+00 0. -1.
         21   -1    0    0  503  502 -0.00000000000E+00 -0.00000000000E+00 -0.34393061716E+03  0.34393061716E+03  0.00000000000E+00 0.  1.
         21    1    1    2  503  505 -0.90155650117E+02 -0.60639677347E+02 -0.27790573985E+03  0.29839036841E+03  0.00000000000E+00 0.  1.
         21    1    1    2  504  501  0.51423976088E+02 -0.13098956960E+01  0.46760885055E+03  0.47042978037E+03  0.00000000000E+00 0. -1.
         21    1    1    2  505  504  0.43417281618E+02 -0.19896660915E+02  0.21984793207E+03  0.22497566689E+03  0.00000000000E+00 0.  1.
         21    1    1    2  506  502 -0.46856075892E+01  0.81846233958E+02 -0.19377278913E+02  0.84239182509E+02  0.00000000000E+00 0. -1.
<scales pt_clust_3="96.88398" pt_clust_4="37.90234" pt_clust_5="37.90234" pt_clust_6="81.98025"></scales>
<clustering>
<clus scale="   37.902">  4  5 -1 -1</clus>
<clus scale="   81.980">  2  6  1 -1</clus>
<clus scale="   96.884">  2  3  1 -1</clus>
<clus scale="  104.565">  1  3  2 -1</clus>
</clustering>
</event>
<event>
 6    0  0.2036847E+002  0.1251069E+03  0.7546771E-02  0.1234902E+00
         21   -1    0    0  502  501  0.00000000000E+00  0.00000000000E+00  0.47899590349E+03  0.47899590349E+03  0.00000000000E+00 0. -1.
         21   -1    0    0  505  502 -0.00000000000E+00 -0.00000000000E+00 -0.77251007244E+02  0.77251007244E+02  0.00000000000E+00 0. -1.
         21    1    1    2  503  504 -0.41625885547E+02 -0.90586955856E+02  0.23478192747E+03  0.25507109673E+03  0.00000000000E+00 0. -1.
         21    1    1    2  504  501  0.73248155670E+02 -0.37845779400E+02  0.13792896085E+03  0.16069223244E+03  0.00000000000E+00 0. -1.
         21    1    1    2  505  506 -0.10294914968E+01  0.72453474584E+02  0.24653684630E+02  0.76539989533E+02  0.00000000000E+00 0. -1.
         21    1    1    2  506  503 -0.30592778625E+02  0.55979260672E+02  0.43803232999E+01  0.63943592030E+02  0.00000000000E+00 0. -1.
<scales pt_clust_3="119.39012" pt_clust_4="82.44753" pt_clust_5="35.07903" pt_clust_6="35.07903"></scales>
<clustering>
<clus scale="   35.079">  5  6 -1 -1</clus>
<clus scale="   82.448">  1  4  2 -1</clus>
<clus scale="  119.390">  1  3  2 -1</clus>
<clus scale="   82.448">  1  3  2 -1</clus>
</clustering>
</event>
<event>
 6    0  0.2036847E+002  0.1549212E+03  0.7546771E-02  0.1194553E+00
         21   -1    0    0  504  501  0.00000000000E+00  0.00000000000E+00  0.24451713249E+03  0.24451713249E+03  0.00000000000E+00 0. -1.
         21   -1    0    0  506  502 -0.00000000000E+00 -0.00000000000E+00 -0.64345642416E+03  0.64345642416E+03  0.00000000000E+00 0.  1.
         21    1    1    2  503  501  0.37399075171E+02 -0.48188292278E+02  0.16657079757E+03  0.17738836755E+03  0.00000000000E+00 0. -1.
         21    1    1    2  504  505  0.22779234509E+02 -0.25685282187E+02 -0.13812969532E+02  0.37005747839E+02  0.00000000000E+00 0. -1.
         21    1    1    2  505  502 -0.68432669543E+02  0.12430810850E+03 -0.59182729605E+03  0.60860092380E+03  0.00000000000E+00 0.  1.
         21    1    1    2  506  503  0.82543598633E+01 -0.50434534036E+02  0.40130176336E+02  0.64978517473E+02  0.00000000000E+00 0. -1.
<scales pt_clust_3="53.07237" pt_clust_4="34.33114" pt_clust_5="140.69425" pt_clust_6="53.07237"></scales>
<clustering>
<clus scale="   34.331">  1  4  2 -1</clus>
<clus scale="   53.072">  3  6 -1 -1</clus>
<clus scale="  140.694">  2  5  1 -1</clus>
<clus scale="   34.331">  1  3  2 -1</clus>
</clustering>
</event>
<event>
 6    0  0.2036847E+002  0.1415869E+03  0.7546771E-02  0.1211210E+00
         21   -1    0    0  504  501  0.00000000000E+00  0.00000000000E+00  0.12538542592E+03  0.12538542592E+03  0.00000000000E+00 0. -1.
         21   -1    0    0  505  502 -0.00000000000E+00 -0.00000000000E+00 -0.21015645450E+03  0.21015645450E+03  0.00000000000E+00 0. -1.
         21    1    1    2  503  501  0.48227552499E+02  0.36154142367E+02  0.24802968318E+02  0.65178263768E+02  0.00000000000E+00 0. -1.
         21    1    1    2  504  506 -0.53399302897E+02 -0.69737859874E+02 -0.99782616955E+02  0.13293391327E+03  0.00000000000E+00 0. -1.
         21    1    1    2  505  503 -0.76054099005E+01  0.80282578625E+02  0.16534858850E+02  0.82319719676E+02  0.00000000000E+00 0. -1.
         21    1    1    2  506  502  0.12777160299E+02 -0.46698861118E+02 -0.26326238799E+02  0.55109983708E+02  0.00000000000E+00 0.  1.
<scales pt_clust_3="60.14115" pt_clust_4="139.48858" pt_clust_5="60.14115" pt_clust_6="48.39749"></scales>
<clustering>
<clus scale="   48.397">  4  6 -1 -1</clus>
<clus scale="   60.141">  3  5 -1 -1</clus>
<clus scale="  139.489">  2  4  1 -1</clus>
<clus scale="  141.587">  1  3  2 -1</clus>
</clustering>
</event>
<event>
 6    0  0.2036847E+002  0.1145528E+03  0.7546771E-02  0.1252364E+00
         21   -1    0    0  503  501  0.00000000000E+00  0.00000000000E+00  0.86223418548E+02  0.86223418548E+02  0.00000000000E+00 0. -1.
         21   -1    0    0  506  502 -0.00000000000E+00 -0.00000000000E+00 -0.11505593799E+04  0.11505593799E+04  0.00000000000E+00 0. -1.
         21    1    1    2  503  504  0.79612017940E+02 -0.48434189006E+02  0.48052242255E+02  0.10484732734E+03  0.00000000000E+00 0. -1.
         21    1    1    2  504  502 -0.27724775524E+02  0.36732592810E+02 -0.19886944706E+03  0.20412497037E+03  0.00000000000E+00 0.  1.
         21    1    1    2  505  501  0.55365069761E+01 -0.38271752736E+02 -0.63206061045E+02  0.74097139755E+02  0.00000000000E+00 0.  1.
         21    1    1    2  506  505 -0.57423749392E+02  0.49973348932E+02 -0.85031269550E+03  0.85371336099E+03  0.00000000000E+00 0. -1.
<scales pt_clust_3="14000.00000" pt_clust_4="44.92302" pt_clust_5="38.67014" pt_clust_6="114.55275"></scales>
<clustering>
<clus scale="   38.670">  1  5  2 -1</clus>
<clus scale="   44.923">  2  4  1 -1</clus>
<clus scale="  114.553">  2  6  1 -1</clus>
<clus scale="   38.670">  1  3  2 -1</clus>
</clustering>
</event>
<event>
 6    0  0.2036847E+002  0.9527723E+02  0.7546771E-02  0.1290553E+00
         21   -1    0    0  506  501  0.00000000000E+00  0.00000000000E+00  0.14342251203E+03  0.14342251203E+03  0.00000000000E+00 0. -1.
         21   -1    0    0  503  502 -0.00000000000E+00 -0.00000000000E+00 -0.15873826165E+03  0.15873826165E+03  0.00000000000E+00 0. -1.
         21    1    1    2  503  505 -0.51550987736E+02 -0.86079156487E+02  0.45115614016E+02  0.11001156369E+03  0.00000000000E+00 0. -1.
         21    1    1    2  504  502 -0.55994170370E+01 -0.30737615307E+02 -0.34900647689E+02  0.46842391858E+02  0.00000000000E+00 0. -1.
         21    1    1    2  505  501  0.28553203491E+02  0.10231644468E+02  0.51529885751E+01  0.30765650804E+02  0.00000000000E+00 0. -1.
         21    1    1    2  506  504  0.28597201282E+02  0.10658512733E+03 -0.30683704520E+02  0.11454116732E+03  0.00000000000E+00 0. -1.
<scales pt_clust_3="14000.00000" pt_clust_4="30.54646" pt_clust_5="30.33104" pt_clust_6="95.27723"></scales>
<clustering>
<clus scale="   30.331">  1  5  2 -1</clus>
<clus scale="   30.546">  2  4  1 -1</clus>
<clus scale="   95.277">  2  6  1 -1</clus>
<clus scale="   30.331">  1  3  2 -1</clus>
</clustering>
</event>
<event>
 6    0  0.2036847E+002  0.1497431E+03  0.7546771E-02  0.1200789E+00
         21   -1    0    0  504  501  0.00000000000E+00  0.00000000000E+00  0.45720122952E+02  0.45720122952E+02  0.00000000000E+00 0.  1.
         21   -1    0    0  506  502 -0.00000000000E+00 -0.00000000000E+00 -0.75665842498E+03  0.75665842498E+03  0.00000000000E+00 0.  1.
         21    1    1    2  503  505  0.86029421565E+02 -0.19077046345E+02 -0.73759543821E+02  0.11491503547E+03  0.00000000000E+00 0.  1.
         21    1    1    2  504  503  0.53736624653E+02 -0.31498831898E+02 -0.91979559702E+02  0.11108573555E+03  0.00000000000E+00 0. -1.
         21    1    1    2  505  502 -0.14050774223E+03  0.82927715782E+01 -0.36294979550E+03  0.38928620544E+03  0.00000000000E+00 0.  1.
         21    1    1    2  506  501  0.74169601526E+00  0.42283106664E+02 -0.18224940300E+03  0.18709157147E+03  0.00000000000E+00 0.  1.
<scales pt_clust_3="32.71838" pt_clust_4="32.71838" pt_clust_5="144.59796" pt_clust_6="42.28961"></scales>
<clustering>
<clus scale="   32.718">  3  4 -1 -1</clus>
<clus scale="   42.290">  2  6  1 -1</clus>
<clus scale="  144.598">  2  5  1 -1</clus>
<clus scale="  149.743">  1  3  2 -1</clus>
</clustering>
</event>
<event>
 6    0  0.2036847E+002  0.1000501E+03  0.7546771E-02  0.1280191E+00
         21   -1    0    0  504  501  0.00000000000E+00  0.00000000000E+00  0.55275467229E+03  0.55275467229E+03  0.00000000000E+00 0.  1.
         21   -1    0    0  503  502 -0.00000000000E+00 -0.00000000000E+00 -0.14953212445E+03  0.14953212445E+03  0.00000000000E+00 0.  1.
         21    1    1    2  503  505 -0.36671783334E+01 -0.11037624705E+03 -0.99847303476E+02  0.14888199394E+03  0.00000000000E+00 0.  1.
         21    1    1    2  504  506 -0.46453001671E+02  0.14336120540E+02  0.47233166290E+02  0.67781839117E+02  0.00000000000E+00 0.  1.
         21    1    1    2  505  501  0.42985250345E+02  0.30931737649E+02  0.38699236271E+03  0.39059901809E+03  0.00000000000E+00 0.  1.
         21    1    1    2  506  502  0.71349296601E+01  0.65108388857E+02  0.68844322315E+02  0.95023945592E+02  0.00000000000E+00 0.  1.
<scales pt_clust_3="100.05011" pt_clust_4="48.61487" pt_clust_5="42.68680" pt_clust_6="14000.00000"></scales>
<clustering>
<clus scale="   48.615">  1  4  2 -1</clus>
<clus scale="   42.687">  1  5  2 -1</clus>
<clus scale="  100.050">  2  3  1 -1</clus>
<clus scale="   48.615">  1  3  2 -1</clus>
</clustering>
</event>
<event>
 6    0  0.2114384E+002  0.1025150E+03  0.7546771E-02  0.1275094E+00
         21   -1    0    0  505  501  0.00000000000E+00  0.00000000000E+00  0.45225169286E+03  0.45225169286E+03  0.00000000000E+00 0. -1.
         21   -1    0    0  503  502 -0.00000000000E+00 -0.00000000000E+00 -0.38760575206E+03  0.38760575206E+03  0.00000000000E+00 0.  1.
         21    1    1    2  503  504  0.54697406306E+02  0.76727303288E+02 -0.33296525638E+03  0.34604153982E+03  0.00000000000E+00 0.  1.
         21    1    1    2  504  501 -0.68171684482E+02 -0.14721960863E+02  0.37075023980E+03  0.37725303843E+03  0.00000000000E+00 0. -1.
         21    1    1    2  505  506 -0.22752285401E+02 -0.38339795942E+02  0.50411885383E+02  0.67297582658E+02  0.00000000000E+00 0. -1.
         21    1    1    2  506  502  0.36226563576E+02 -0.23665546483E+02 -0.23550927994E+02  0.49265284007E+02  0.00000000000E+00 0. -1.
<scales pt_clust_3="102.51501" pt_clust_4="14000.00000" pt_clust_5="44.63949" pt_clust_6="43.27149"></scales>
<clustering>
<clus scale="   43.271">  2  6  1 -1</clus>
<clus scale="   44.639">  1  5  2 -1</clus>
<clus scale="  102.515">  2  3  1 -1</clus>
<clus scale="   44.639">  1  3  2 -1</clus>
</clustering>
</event>
<event>
 6    0  0.2036847E+002  0.1531567E+03  0.7546771E-02  0.1196647E+00
         21   -1    0    0  504  501  0.00000000000E+00  0.00000000000E+00  0.48443077307E+03  0.48443077307E+03  0.00000000000E+00 0. -1.
         21   -1    0    0  503  502 -0.00000000000E+00 -0.00000000000E+00 -0.33204787129E+03  0.33204787129E+03  0.00000000000E+00 0. -1.
         21    1    1    2  503  501  0.10860318012E+03 -0.77782185161E+02 -0.86457918029E+02  0.15912162220E+03  0.00000000000E+00 0. -1.
         21    1    1    2  504  505 -0.35010665454E+02  0.15531532083E+03  0.41691048625E+03  0.44627676292E+03  0.00000000000E+00 0. -1.
         21    1    1    2  505  506 -0.36363656002E+02 -0.53489515662E+02 -0.75952127976E+02  0.99760560883E+02  0.00000000000E+00 0. -1.
         21    1    1    2  506  502 -0.37228858663E+02 -0.24043620004E+02 -0.10211753847E+03  0.11131969836E+03  0.00000000000E+00 0. -1.
<scales pt_clust_3="153.15668" pt_clust_4="14000.00000" pt_clust_5="113.34050" pt_clust_6="31.17962"></scales>
<clustering>
<clus scale="   31.180">  5  6 -1 -1</clus>
<clus scale="  113.341">  2  5  1 -1</clus>
<clus scale="  153.157">  2  3  1 -1</clus>
<clus scale="  153.157">  1  3  2 -1</clus>
</clustering>
</event>
<event>
 6    0  0.2036847E+002  0.1330911E+03  0.7546771E-02  0.1222940E+00
         21   -1    0    0  506  501  0.00000000000E+00  0.00000000000E+00  0.72041953506E+02  0.72041953506E+02  0.00000000000E+00 0.  1.
         21   -1    0    0  503  502 -0.00000000000E+00 -0.00000000000E+00 -0.17699280221E+04  0.17699280221E+04  0.00000000000E+00 0.  1.
         21    1    1    2  503  505  0.48649202429E+02 -0.10728299218E+03 -0.66473253874E+03  0.67508942620E+03  0.00000000000E+00 0.  1.
         21    1    1    2  504  501 -0.22491019336E+02  0.25613049281E+02 -0.61976207676E+01  0.34645125883E+02  0.00000000000E+00 0. -1.
         21    1    1    2  505  504  0.25315411276E+02 -0.57816271980E+02  0.26417156492E+02  0.68421177357E+02  0.00000000000E+00 0.  1.
         21    1    1    2  506  502 -0.51473594368E+02  0.13948621488E+03 -0.10533730656E+04  0.10638142462E+04  0.00000000000E+00 0.  1.
<scales pt_clust_3="133.09106" pt_clust_4="34.08628" pt_clust_5="37.44544" pt_clust_6="14000.00000"></scales>
<clustering>
<clus scale="   34.086">  1  4  2 -1</clus>
<clus scale="   37.445">  1  5  2 -1</clus>
<clus scale="  133.091">  2  3  1 -1</clus>
<clus scale="   34.086">  1  3  2 -1</clus>
</clustering>
</event>
<event>
 6    0  0.2036847E+002  0.1100167E+03  0.7546771E-02  0.1260539E+00
         21   -1    0    0  505  501  0.00000000000E+00  0.00000000000E+00  0.10160378140E+04  0.10160378140E+04  0.00000000000E+00 0.  1.
         21   -1    0    0  501  502 -0.00000000000E+00 -0.00000000000E+00 -0.41378248660E+02  0.41378248660E+02  0.00000000000E+00 0. -1.
         21    1    1    2  503  502 -0.53793998933E+02 -0.22337289259E+02  0.37088253008E+02  0.69052786503E+02  0.00000000000E+00 0. -1.
         21    1    1    2  504  506 -0.27538131358E+02 -0.83729117298E+02  0.28725082126E+03  0.30046954600E+03  0.00000000000E+00 0.  1.
         21    1    1    2  505  504  0.53119586089E+02 -0.31221677655E+02  0.36321609942E+03  0.36840523674E+03  0.00000000000E+00 0.  1.
         21    1    1    2  506  503  0.28212544202E+02  0.13728808421E+03  0.28710439168E+03  0.31948849344E+03  0.00000000000E+00 0. -1.
<scales pt_clust_3="58.24731" pt_clust_4="110.01673" pt_clust_5="58.22820" pt_clust_6="14000.00000"></scales>
<clustering>
<clus scale="   58.247">  2  3  1 -1</clus>
<clus scale="   58.228">  1  5  2 -1</clus>
<clus scale="  110.017">  1  4  2 -1</clus>
<clus scale="   58.228">  1  3  2 -1</clus>
</clustering>
</event>
<event>
 6    0  0.2036847E+002  0.9106998E+02  0.7546771E-02  0.1300281E+00
         21   -1    0    0  506  501  0.00000000000E+00  0.00000000000E+00  0.24603188846E+03  0.24603188846E+03  0.00000000000E+00 0.  1.
         21   -1    0    0  503  502 -0.00000000000E+00 -0.00000000000E+00 -0.19218915944E+03  0.19218915944E+03  0.00000000000E+00 0. -1.
         21    1    1    2  503  505  0.10898523917E+03  0.57432924659E+02 -0.75808723799E+02  0.14464883614E+03  0.00000000000E+00 0. -1.
         21    1    1    2  504  501 -0.19150907970E+02 -0.44560194593E+02  0.12251630684E+03  0.13176727082E+03  0.00000000000E+00 0.  1.
         21    1    1    2  505  504 -0.16707372367E+02 -0.62024667978E+02  0.29822038118E+02  0.70820545654E+02  0.00000000000E+00 0.  1.
         21    1    1    2  506  502 -0.73126958838E+02  0.49151937912E+02 -0.22686892149E+02  0.90984395282E+02  0.00000000000E+00 0. -1.
<scales pt_clust_3="91.06998" pt_clust_4="48.50122" pt_clust_5="84.60557" pt_clust_6="14000.00000"></scales>
<clustering>
<clus scale="   48.501">  1  4  2 -1</clus>
<clus scale="   84.606">  1  5  2 -1</clus>
<clus scale="   91.070">  1  3  2 -1</clus>
<clus scale="   48.501">  1  3  2 -1</clus>
</clustering>
</event>
<event>
 6    0  0.2036847E+002  0.9845627E+02  0.7546771E-02  0.1283576E+00
         21   -1    0    0  505  501  0.00000000000E+00  0.00000000000E+00  0.35149252612E+03  0.35149252612E+03  0.00000000000E+00 0.  1.
         21   -1    0    0  506  502 -0.00000000000E+00 -0.00000000000E+00 -0.11186700446E+03  0.11186700446E+03  0.00000000000E+00 0.  1.
         21    1    1    2  503  504 -0.32125116614E+02  0.59747262741E+02  0.83345604020E+02  0.10746277603E+03  0.00000000000E+00 0.  1.
         21    1    1    2  504  501 -0.61943826215E+02  0.17498765176E+02  0.17002233314E+03  0.18179889481E+03  0.00000000000E+00 0.  1.
         21    1    1    2  505  502 -0.27735607692E+02 -0.26000391383E+02 -0.17606012823E+02  0.41895775129E+02  0.00000000000E+00 0.  1.
         21    1    1    2  506  503  0.12180455052E+03 -0.51245636534E+02  0.38635973309E+01  0.13220208461E+03  0.00000000000E+00 0.  1.
<scales pt_clust_3="14000.00000" pt_clust_4="65.81655" pt_clust_5="38.01689" pt_clust_6="98.45627"></scales>
<clustering>
<clus scale="   38.017">  2  5  1 -1</clus>
<clus scale="   65.817">  1  4  2 -1</clus>
<clus scale="   98.456">  2  6  1 -1</clus>
<clus scale="   65.817">  1  3  2 -1</clus>
</clustering>
</event>
<event>
 6    0  0.2036847E+002  0.1772600E+03  0.7546771E-02  0.1170481E+00
         21   -1    0    0  502  501  0.00000000000E+00  0.00000000000E+00  0.43605713982E+02  0.43605713982E+02  0.00000000000E+00 0. -1.
         21   -1    0    0  505  502 -0.00000000000E+00 -0.00000000000E+00 -0.89766939355E+03  0.89766939355E+03  0.00000000000E+00 0. -1.
         21    1    1    2  503  504  0.38761568755E+02  0.37390297509E+02 -0.83661968763E+02  0.99497832024E+02  0.00000000000E+00 0. -1.
         21    1    1    2  504  501  0.23293138549E+02  0.11949866117E+03 -0.12966276944E+03  0.17786212105E+03  0.00000000000E+00 0. -1.
         21    1    1    2  505  506 -0.19877010880E+02 -0.65552285635E+02 -0.33884083269E+03  0.34569539715E+03  0.00000000000E+00 0. -1.
         21    1    1    2  506  503 -0.42177696425E+02 -0.91336673046E+02 -0.30189810868E+03  0.31821975731E+03  0.00000000000E+00 0. -1.
<scales pt_clust_3="36.16197" pt_clust_4="36.16197" pt_clust_5="34.73502" pt_clust_6="173.88773"></scales>
<clustering>
<clus scale="   34.735">  5  6 -1 -1</clus>
<clus scale="   36.162">  3  4 -1 -1</clus>
<clus scale="  173.888">  2  5  1 -1</clus>
<clus scale="  177.260">  1  3  2 -1</clus>
</clustering>
</event>
<event>
 6    0  0.2036847E+002  0.1345851E+03  0.7546771E-02  0.1220807E+00
         21   -1    0    0  504  501  0.00000000000E+00  0.00000000000E+00  0.76884997622E+03  0.76884997622E+03  0.00000000000E+00 0.  1.
         21   -1    0    0  506  502 -0.00000000000E+00 -0.00000000000E+00 -0.12637122310E+03  0.12637122310E+03  0.00000000000E+00 0.  1.
         21    1    1    2  503  501  0.39033377493E+02  0.61913502317E+01  0.11139453571E+03  0.11819763095E+03  0.00000000000E+00 0. -1.
         21    1    1    2  504  505 -0.52120747754E+02 -0.56133155410E+01 -0.36943578363E+02  0.64131970499E+02  0.00000000000E+00 0.  1.
         21    1    1    2  505  502 -0.42428123590E+02 -0.72023629477E+02 -0.43826340346E+02  0.94383774996E+02  0.00000000000E+00 0.  1.
         21    1    1    2  506  503  0.55515493852E+02  0.71445594786E+02  0.61185413612E+03  0.61850782288E+03  0.00000000000E+00 0.  1.
<scales pt_clust_3="39.52135" pt_clust_4="47.65505" pt_clust_5="47.65505" pt_clust_6="120.31906"></scales>
<clustering>
<clus scale="   39.521">  1  3  2 -1</clus>
<clus scale="   47.655">  4  5 -1 -1</clus>
<clus scale="  120.319">  1  6  2 -1</clus>
<clus scale="   39.521">  1  3  2 -1</clus>
</clustering>
</event>
<event>
 6    0  0.2036847E+002  0.1295251E+03  0.7546771E-02  0.1228162E+00
         21   -1    0    0  506  501  0.00000000000E+00  0.00000000000E+00  0.53287049801E+02  0.53287049801E+02  0.00000000000E+00 0.  1.
         21   -1    0    0  504  502 -0.00000000000E+00 -0.00000000000E+00 -0.86158341068E+03  0.86158341068E+03  0.00000000000E+00 0.  1.
         21    1    1    2  503  501  0.63913167776E+02  0.38943174053E+02 -0.29212654665E+02  0.80342037645E+02  0.00000000000E+00 0.  1.
         21    1    1    2  504  505  0.27466994437E+02 -0.25174589029E+02 -0.51236014740E+03  0.51371306812E+03  0.00000000000E+00 0.  1.
         21    1    1    2  505  503  0.42653295788E+02  0.27428850867E+01 -0.54389041081E+02  0.69173657196E+02  0.00000000000E+00 0.  1.
         21    1    1    2  506  502 -0.13403345800E+03 -0.16511470110E+02 -0.21233451774E+03  0.25164169752E+03  0.00000000000E+00 0.  1.
<scales pt_clust_3="36.01730" pt_clust_4="37.25850" pt_clust_5="36.01730" pt_clust_6="120.43751"></scales>
<clustering>
<clus scale="   36.017">  3  5 -1 -1</clus>
<clus scale="   37.258">  2  4  1 -1</clus>
<clus scale="  120.438">  2  6  1 -1</clus>
<clus scale="  129.525">  1  3  2 -1</clus>
</clustering>
</event>
<event>
 6    0  0.2036847E+002  0.1407397E+03  0.7546771E-02  0.1212337E+00
         21   -1    0    0  504  501  0.00000000000E+00  0.00000000000E+00  0.39966545970E+03  0.39966545970E+03  0.00000000000E+00 0. -1.
         21   -1    0    0  506  502 -0.00000000000E+00 -0.00000000000E+00 -0.25825722256E+03  0.25825722256E+03  0.00000000000E+00 0.  1.
         21    1    1    2  503  505 -0.66171487637E+02  0.17627974177E+02 -0.77436518394E+02  0.10337226722E+03  0.00000000000E+00 0.  1.
         21    1    1    2  504  503  0.43642991475E+02 -0.15868829785E+02  0.23853439169E+02  0.52206484500E+02  0.00000000000E+00 0.  1.
         21    1    1    2  505  502 -0.68365200622E+02  0.20917358173E+02 -0.13854365248E+03  0.15590279077E+03  0.00000000000E+00 0.  1.
         21    1    1    2  506  501  0.90893696785E+02 -0.22676502565E+02  0.33353496884E+03  0.34644113977E+03  0.00000000000E+00 0. -1.
<scales pt_clust_3="30.79784" pt_clust_4="46.43846" pt_clust_5="30.79784" pt_clust_6="137.17659"></scales>
<clustering>
<clus scale="   30.798">  3  5 -1 -1</clus>
<clus scale="   46.438">  1  4  2 -1</clus>
<clus scale="  137.177">  1  6  2 -1</clus>
<clus scale="   46.438">  1  3  2 -1</clus>
</clustering>
</event>
<event>
 6    0  0.2036847E+002  0.1312792E+03  0.7546771E-02  0.1225570E+00
         21   -1    0    0  504  501  0.00000000000E+00  0.00000000000E+00  0.17661443533E+04  0.17661443533E+04  0.00000000000E+00 0. -1.
         21   -1    0    0  506  502 -0.00000000000E+00 -0.00000000000E+00 -0.13128772605E+03  0.13128772605E+03  0.00000000000E+00 0. -1.
         21    1    1    2  503  505  0.12168270843E+01 -0.46214526566E+02 -0.15001142438E+02  0.48603471155E+02  0.00000000000E+00 0. -1.
         21    1    1    2  504  502  0.45832692414E+02 -0.41468315702E+02  0.32551395225E+03  0.33133003185E+03  0.00000000000E+00 0. -1.
         21    1    1    2  505  501 -0.98645323850E+02  0.14892766861E+03  0.13975971113E+04  0.14089670102E+04  0.00000000000E+00 0. -1.
         21    1    1    2  506  503  0.51595804353E+02 -0.61244826344E+02 -0.73253293863E+02  0.10853156611E+03  0.00000000000E+00 0. -1.
<scales pt_clust_3="38.48727" pt_clust_4="61.80823" pt_clust_5="121.11292" pt_clust_6="38.48727"></scales>
<clustering>
<clus scale="   38.487">  3  6 -1 -1</clus>
<clus scale="   61.808">  1  4  2 -1</clus>
<clus scale="  121.113">  1  5  2 -1</clus>
<clus scale="   61.808">  1  3  2 -1</clus>
</clustering>
</event>
<event>
 6    0  0.2036847E+002  0.1255886E+03  0.7546771E-02  0.1234152E+00
         21   -1    0    0  505  501  0.00000000000E+00  0.00000000000E+00  0.43433432239E+03  0.43433432239E+03  0.00000000000E+00 0. -1.
         21   -1    0    0  503  502 -0.00000000000E+00 -0.00000000000E+00 -0.11286586506E+03  0.11286586506E+03  0.00000000000E+00 0. -1.
         21    1    1    2  503  501 -0.86737072710E+02 -0.97182029229E+02  0.16504702612E+03  0.21025743131E+03  0.00000000000E+00 0. -1.
         21    1    1    2  504  506  0.29806861366E+02  0.10493623208E+03  0.26918471437E+02  0.11235953850E+03  0.00000000000E+00 0. -1.
         21    1    1    2  505  504 -0.16645482130E+02 -0.27222175005E+02  0.14366789683E+03  0.14716855461E+03  0.00000000000E+00 0. -1.
         21    1    1    2  506  502  0.73575693474E+02  0.19467972157E+02 -0.14164937066E+02  0.77414663030E+02  0.00000000000E+00 0. -1.
<scales pt_clust_3="125.58861" pt_clust_4="14000.00000" pt_clust_5="31.90798" pt_clust_6="73.62371"></scales>
<clustering>
<clus scale="   31.908">  1  5  2 -1</clus>
<clus scale="   73.624">  2  6  1 -1</clus>
<clus scale="  125.589">  1  3  2 -1</clus>
<clus scale="   31.908">  1  3  2 -1</clus>
</clustering>
</event>
<event>
 6    0  0.2036847E+002  0.3030089E+03  0.7546771E-02  0.1083746E+00
         21   -1    0    0  502  501  0.00000000000E+00  0.00000000000E+00  0.86971426375E+03  0.86971426375E+03  0.00000000000E+00 0.  1.
         21   -1    0    0  506  502 -0.00000000000E+00 -0.00000000000E+00 -0.15393260318E+03  0.15393260318E+03  0.00000000000E+00 0. -1.
         21    1    1    2  503  504  0.50738751336E+02  0.21247481718E+02  0.72675038394E+02  0.91145694205E+02  0.00000000000E+00 0.  1.
         21    1    1    2  504  501  0.20174999972E+03  0.13370273895E+03  0.57766435261E+03  0.62631907928E+03  0.00000000000E+00 0.  1.
         21    1    1    2  505  503 -0.12822480035E+03 -0.83460027501E+02  0.13058214328E+02  0.15355029331E+03  0.00000000000E+00 0. -1.
         21    1    1    2  506  505 -0.12426395071E+03 -0.71490193171E+02  0.52384055235E+02  0.15263180012E+03  0.00000000000E+00 0. -1.
<scales pt_clust_3="30.35505" pt_clust_4="30.35505" pt_clust_5="299.10664" pt_clust_6="39.96640"></scales>
<clustering>
<clus scale="   30.355">  3  4 -1 -1</clus>
<clus scale="   39.966">  5  6 -1 -1</clus>
<clus scale="  299.107">  2  5  1 -1</clus>
<clus scale="  303.009">  1  3  2 -1</clus>
</clustering>
</event>
<event>
 6    0  0.2036847E+002  0.5242286E+02  0.7546771E-02  0.1432695E+00
         21   -1    0    0  505  501  0.00000000000E+00  0.00000000000E+00  0.77363509850E+02  0.77363509850E+02  0.00000000000E+00 0.  1.
         21   -1    0    0  504  502 -0.00000000000E+00 -0.00000000000E+00 -0.91122454941E+03  0.91122454941E+03  0.00000000000E+00 0.  1.
         21    1    1    2  503  501  0.37019439280E+02  0.29074573419E+02  0.35591765336E+02  0.59013078752E+02  0.00000000000E+00 0.  1.
         21    1    1    2  504  506 -0.72421229104E-01  0.72068600103E+02 -0.31354852597E+03  0.32172436417E+03  0.00000000000E+00 0.  1.
         21    1    1    2  505  502  0.25905813167E+02 -0.37832736109E+02 -0.50100818850E+03  0.50310200956E+03  0.00000000000E+00 0.  1.
         21    1    1    2  506  503 -0.62852831218E+02 -0.63310437413E+02 -0.54896090432E+02  0.10474860678E+03  0.00000000000E+00 0.  1.
<scales pt_clust_3="47.00451" pt_clust_4="14000.00000" pt_clust_5="45.85223" pt_clust_6="52.42286"></scales>
<clustering>
<clus scale="   45.852">  2  5  1 -1</clus>
<clus scale="   47.005">  1  3  2 -1</clus>
<clus scale="   52.423">  1  6  2 -1</clus>
<clus scale="   47.005">  1  3  2 -1</clus>
</clustering>
</event>
<event>
 6    0  0.2036847E+002  0.1394036E+03  0.7546771E-02  0.1214134E+00
         21   -1    0    0  503  501  0.00000000000E+00  0.00000000000E+00  0.23673028498E+03  0.23673028498E+03  0.00000000000E+00 0.  1.
         21   -1    0    0  504  502 -0.00000000000E+00 -0.00000000000E+00 -0.27709390527E+03  0.27709390527E+03  0.00000000000E+00 0. -1.
         21    1    1    2  503  506 -0.72377444413E+02  0.86996015750E+02  0.11581109037E+03  0.16192285160E+03  0.00000000000E+00 0.  1.
         21    1    1    2  504  501  0.13183682681E+02  0.35090026941E+02  0.72985636418E+02  0.82048903729E+02  0.00000000000E+00 0.  1.
         21    1    1    2  505  502  0.41675365653E+02 -0.38610880480E+02 -0.81932851840E+02  0.99702700086E+02  0.00000000000E+00 0. -1.
         21    1    1    2  506  505  0.17518396080E+02 -0.83475162211E+02 -0.14722749525E+03  0.17014973484E+03  0.00000000000E+00 0. -1.
<scales pt_clust_3="132.42503" pt_clust_4="37.48492" pt_clust_5="35.54619" pt_clust_6="35.54619"></scales>
<clustering>
<clus scale="   35.546">  5  6 -1 -1</clus>
<clus scale="   37.485">  1  4  2 -1</clus>
<clus scale="  132.425">  1  3  2 -1</clus>
<clus scale="   37.485">  1  3  2 -1</clus>
</clustering>
</event>
<event>
 6    0  0.2036847E+002  0.8408869E+02  0.7546771E-02  0.1317833E+00
         21   -1    0    0  505  501  0.00000000000E+00  0.00000000000E+00  0.88331186883E+02  0.88331186883E+02  0.00000000000E+00 0.  1.
         21   -1    0    0  506  502 -0.00000000000E+00 -0.00000000000E+00 -0.32187008791E+03  0.32187008791E+03  0.00000000000E+00 0.  1.
         21    1    1    2  503  501 -0.45047996217E+02  0.74733824795E+02  0.26713902426E+02  0.91258419417E+02  0.00000000000E+00 0.  1.
         21    1    1    2  504  502 -0.44987759946E+02 -0.11261417751E+02 -0.40491649460E+02  0.61565345371E+02  0.00000000000E+00 0.  1.
         21    1    1    2  505  504  0.52800587958E+02 -0.87115193838E+01 -0.43098938450E+02  0.68711797780E+02  0.00000000000E+00 0.  1.
         21    1    1    2  506  503  0.37235168205E+02 -0.54760887661E+02 -0.17666221555E+03  0.18866571223E+03  0.00000000000E+00 0.  1.
<scales pt_clust_3="14000.00000" pt_clust_4="46.37584" pt_clust_5="44.89216" pt_clust_6="84.08869"></scales>
<clustering>
<clus scale="   46.376">  2  4  1 -1</clus>
<clus scale="   44.892">  2  5  1 -1</clus>
<clus scale="   84.089">  2  6  1 -1</clus>
<clus scale="   84.089">  1  3  2 -1</clus>
</clustering>
</event>
<event>
 6    0  0.2036847E+002  0.2846485E+03  0.7546771E-02  0.1093177E+00
         21   -1    0    0  505  501  0.00000000000E+00  0.00000000000E+00  0.59206847666E+03  0.59206847666E+03  0.00000000000E+00 0.  1.
         21   -1    0    0  503  502 -0.00000000000E+00 -0.00000000000E+00 -0.56180998705E+03  0.56180998705E+03  0.00000000000E+00 0.  1.
         21    1    1    2  503  504 -0.37755710358E+02 -0.29649991846E+02 -0.71774826475E+01  0.48540003485E+02  0.00000000000E+00 0. -1.
         21    1    1    2  504  506 -0.19283445195E+00 -0.67845788051E+02 -0.89038967627E+01  0.68427827081E+02  0.00000000000E+00 0. -1.
         21    1    1    2  505  502  0.26590616527E+03  0.11760296302E+03  0.47157841608E+03  0.55400609036E+03  0.00000000000E+00 0.  1.
         21    1    1    2  506  501 -0.22795762046E+03 -0.20107183127E+02 -0.42523854706E+03  0.48290454279E+03  0.00000000000E+00 0.  1.
<scales pt_clust_3="41.86783" pt_clust_4="115.85708" pt_clust_5="284.64855" pt_clust_6="14000.00000"></scales>
<clustering>
<clus scale="   41.868">  3  4 -1 -1</clus>
<clus scale="  115.857">  2  3  1 -1</clus>
<clus scale="  284.649">  1  5  2 -1</clus>
<clus scale="  284.649">  1  3  2 -1</clus>
</clustering>
</event>
<event>
 6    0  0.2036847E+002  0.2176572E+03  0.7546771E-02  0.1135642E+00
         21   -1    0    0  505  501  0.00000000000E+00  0.00000000000E+00  0.13436092103E+04  0.13436092103E+04  0.00000000000E+00 0. -1.
         21   -1    0    0  504  502 -0.00000000000E+00 -0.00000000000E+00 -0.35861591742E+02  0.35861591742E+02  0.00000000000E+00 0. -1.
         21    1    1    2  503  502 -0.99199942868E+02  0.10286793149E+03  0.24859547701E+03  0.28674405169E+03  0.00000000000E+00 0. -1.
         21    1    1    2  504  506  0.58973738305E+02 -0.28125482515E+02  0.32531947438E+03  0.33181576964E+03  0.00000000000E+00 0. -1.
         21    1    1    2  505  503 -0.56526716477E+02  0.25106790986E+02  0.24543315425E+03  0.25310680321E+03  0.00000000000E+00 0. -1.
         21    1    1    2  506  501  0.96752921040E+02 -0.99849239957E+02  0.48839951295E+03  0.50780417751E+03  0.00000000000E+00 0. -1.
<scales pt_clust_3="54.03592" pt_clust_4="32.11504" pt_clust_5="54.03592" pt_clust_6="206.93735"></scales>
<clustering>
<clus scale="   32.115">  4  6 -1 -1</clus>
<clus scale="   54.036">  3  5 -1 -1</clus>
<clus scale="  206.937">  1  4  2 -1</clus>
<clus scale="  206.937">  1  3  2 -1</clus>
</clustering>
</event>
<event>
 6    0  0.2036847E+002  0.1412429E+03  0.7546771E-02  0.1211666E+00
         21   -1    0    0  503  501  0.00000000000E+00  0.00000000000E+00  0.49559772769E+02  0.49559772769E+02  0.00000000000E+00 0. -1.
         21   -1    0    0  506  502 -0.00000000000E+00 -0.00000000000E+00 -0.11708456019E+04  0.11708456019E+04  0.00000000000E+00 0. -1.
         21    1    1    2  503  502 -0.13723071025E+03 -0.41200092990E+02 -0.37218023694E+03  0.39880802934E+03  0.00000000000E+00 0. -1.
         21    1    1    2  504  501 -0.32909508947E+02  0.38953895546E+01  0.99318882630E+01  0.34595552364E+02  0.00000000000E+00 0. -1.
         21    1    1    2  505  504  0.28828192402E+02  0.29388004338E+02 -0.54020660423E+02  0.67918710446E+02  0.00000000000E+00 0. -1.
         21    1    1    2  506  505  0.14131202679E+03  0.79166990976E+01 -0.70501682008E+03  0.71908308256E+03  0.00000000000E+00 0. -1.
<scales pt_clust_3="14000.00000" pt_clust_4="33.13925" pt_clust_5="36.62147" pt_clust_6="141.24291"></scales>
<clustering>
<clus scale="   33.139">  1  4  2 -1</clus>
<clus scale="   36.621">  1  5  2 -1</clus>
<clus scale="  141.243">  2  6  1 -1</clus>
<clus scale="   33.139">  1  3  2 -1</clus>
</clustering>
</event>
<event>
 6    0  0.2036847E+002  0.1188821E+03  0.7546771E-02  0.1244953E+00
         21   -1    0    0  504  501  0.00000000000E+00  0.00000000000E+00  0.43884979855E+03  0.43884979855E+03  0.00000000000E+00 0. -1.
         21   -1    0    0  503  502 -0.00000000000E+00 -0.00000000000E+00 -0.42240312023E+03  0.42240312023E+03  0.00000000000E+00 0. -1.
         21    1    1    2  503  505 -0.35940553663E+02  0.35217418164E+02 -0.14036359435E+03  0.14911045758E+03  0.00000000000E+00 0. -1.
         21    1    1    2  504  502 -0.12541836520E+02 -0.33503964074E+02 -0.10529431502E+02  0.37291851653E+02  0.00000000000E+00 0. -1.
         21    1    1    2  505  506 -0.69209943223E+02 -0.27570529932E+02 -0.23935450543E+03  0.25068053301E+03  0.00000000000E+00 0. -1.
         21    1    1    2  506  501  0.11769233341E+03  0.25857075841E+02  0.40669420959E+03  0.42417007654E+03  0.00000000000E+00 0. -1.
<scales pt_clust_3="46.59556" pt_clust_4="35.77448" pt_clust_5="14000.00000" pt_clust_6="118.88208"></scales>
<clustering>
<clus scale="   35.774">  2  4  1 -1</clus>
<clus scale="   46.596">  2  3  1 -1</clus>
<clus scale="  118.882">  1  6  2 -1</clus>
<clus scale="  118.882">  1  3  2 -1</clus>
</clustering>
</event>
<event>
 6    0  0.2036847E+002  0.1853233E+03  0.7546771E-02  0.1162748E+00
         21   -1    0    0  503  501  0.00000000000E+00  0.00000000000E+00  0.55233239511E+03  0.55233239511E+03  0.00000000000E+00 0. -1.
         21   -1    0    0  504  502 -0.00000000000E+00 -0.00000000000E+00 -0.23646822102E+03  0.23646822102E+03  0.00000000000E+00 0. -1.
         21    1    1    2  503  502  0.36125139577E+00  0.32711464689E+02  0.20888473863E+02  0.38813641481E+02  0.00000000000E+00 0. -1.
         21    1    1    2  504  506  0.48636882702E+02 -0.15037315234E+02 -0.88814330765E+02  0.10237017416E+03  0.00000000000E+00 0. -1.
         21    1    1    2  505  501 -0.17376111191E+03 -0.34691952869E+01  0.46611851862E+03  0.49746500654E+03  0.00000000000E+00 0. -1.
         21    1    1    2  506  505  0.12476297781E+03 -0.14204954167E+02 -0.82328487628E+02  0.15015179396E+03  0.00000000000E+00 0. -1.
<scales pt_clust_3="32.71346" pt_clust_4="37.94897" pt_clust_5="175.47045" pt_clust_6="37.94897"></scales>
<clustering>
<clus scale="   32.713">  1  3  2 -1</clus>
<clus scale="   37.949">  4  6 -1 -1</clus>
<clus scale="  175.470">  1  5  2 -1</clus>
<clus scale="   32.713">  1  3  2 -1</clus>
</clustering>
</event>
<event>
 6    0  0.2036847E+002  0.1226198E+03  0.7546771E-02  0.1238837E+00
         21   -1    0    0  505  501  0.00000000000E+00  0.00000000000E+00  0.40840339250E+03  0.40840339250E+03  0.00000000000E+00 0.  1.
         21   -1    0    0  504  502 -0.00000000000E+00 -0.00000000000E+00 -0.40053646615E+03  0.40053646615E+03  0.00000000000E+00 0. -1.
         21    1    1    2  503  502 -0.58531268244E+02  0.11566283623E+03 -0.27801660208E+03  0.30675239539E+03  0.00000000000E+00 0. -1.
         21    1    1    2  504  501  0.38069674067E+02  0.17052471041E+02 -0.82380734945E+02  0.92339982360E+02  0.00000000000E+00 0.  1.
         21    1    1    2  505  506  0.18809327953E+02 -0.53936002271E+02  0.30061843819E+03  0.30599726884E+03  0.00000000000E+00 0.  1.
         21    1    1    2  506  503  0.16522662233E+01 -0.78779305000E+02  0.67645825184E+02  0.10385021206E+03  0.00000000000E+00 0.  1.
<scales pt_clust_3="122.61979" pt_clust_4="41.71435" pt_clust_5="57.09215" pt_clust_6="14000.00000"></scales>
<clustering>
<clus scale="   41.714">  2  4  1 -1</clus>
<clus scale="   57.092">  1  5  2 -1</clus>
<clus scale="  122.620">  2  3  1 -1</clus>
<clus scale="   57.092">  1  3  2 -1</clus>
</clustering>
</event>
<event>
 6    0  0.2036847E+002  0.1225917E+03  0.7546771E-02  0.1238882E+00
         21   -1    0    0  505  501  0.00000000000E+00  0.00000000000E+00  0.20961779168E+03  0.20961779168E+03  0.00000000000E+00 0.  1.
         21   -1    0    0  506  502 -0.00000000000E+00 -0.00000000000E+00 -0.78018558797E+03  0.78018558797E+03  0.00000000000E+00 0. -1.
         21    1    1    2  503  502 -0.34630133618E+02  0.13137504766E+02 -0.14788241108E+03  0.15245014822E+03  0.00000000000E+00 0. -1.
         21    1    1    2  504  501  0.10121364266E+03  0.58444829733E+02  0.15791552717E+03  0.19646198946E+03  0.00000000000E+00 0.  1.
         21    1    1    2  505  503 -0.27099300563E+02  0.41115702279E+02 -0.11424475528E+01  0.49256250886E+02  0.00000000000E+00 0.  1.
         21    1    1    2  506  504 -0.39484208478E+02 -0.11269803678E+03 -0.57945846483E+03  0.59163499108E+03  0.00000000000E+00 0. -1.
<scales pt_clust_3="37.03836" pt_clust_4="122.59173" pt_clust_5="50.45146" pt_clust_6="14000.00000"></scales>
<clustering>
<clus scale="   37.038">  2  3  1 -1</clus>
<clus scale="   50.451">  1  5  2 -1</clus>
<clus scale="  122.592">  1  4  2 -1</clus>
<clus scale="   50.451">  1  3  2 -1</clus>
</clustering>
</event>
<event>
 6    0  0.2036847E+002  0.1756057E+03  0.7546771E-02  0.1172125E+00
         21   -1    0    0  506  501  0.00000000000E+00  0.00000000000E+00  0.16181467758E+04  0.16181467758E+04  0.00000000000E+00 0.  1.
         21   -1    0    0  504  502 -0.00000000000E+00 -0.00000000000E+00 -0.23902124139E+03  0.23902124139E+03  0.00000000000E+00 0.  1.
         21    1    1    2  503  501 -0.72209139916E+02 -0.33054374786E+02  0.28849810135E+03  0.29922885232E+03  0.00000000000E+00 0.  1.
         21    1    1    2  504  503  0.21704598156E+02  0.23269789961E+02  0.30691310159E+01  0.31968613845E+02  0.00000000000E+00 0. -1.
         21    1    1    2  505  502  0.14794257281E+03 -0.78687775386E+02 -0.18328017832E+03  0.24833524641E+03  0.00000000000E+00 0.  1.
         21    1    1    2  506  505 -0.97438031049E+02  0.88472360211E+02  0.12708384803E+04  0.12776353046E+04  0.00000000000E+00 0.  1.
<scales pt_clust_3="78.71269" pt_clust_4="31.82095" pt_clust_5="14000.00000" pt_clust_6="175.60567"></scales>
<clustering>
<clus scale="   31.821">  2  4  1 -1</clus>
<clus scale="   78.713">  1  3  2 -1</clus>
<clus scale="  175.606">  1  6  2 -1</clus>
<clus scale="   78.713">  1  3  2 -1</clus>
</clustering>
</event>
<event>
 6    0  0.2036847E+002  0.2264766E+03  0.7546771E-02  0.1129145E+00
         21   -1    0    0  503  501  0.00000000000E+00  0.00000000000E+00  0.16911186894E+03  0.16911186894E+03  0.00000000000E+00 0.  1.
         21   -1    0    0  504  502 -0.00000000000E+00 -0.00000000000E+00 -0.11499438566E+04  0.11499438566E+04  0.00000000000E+00 0. -1.
         21    1    1    2  503  505 -0.18068414898E+02 -0.29704027914E+02  0.34069348563E+02  0.48677688963E+02  0.00000000000E+00 0.  1.
         21    1    1    2  504  501 -0.10020363467E+02  0.70055843832E+02 -0.12776433312E+03  0.14605462593E+03  0.00000000000E+00 0. -1.
         21    1    1    2  505  506  0.44828484894E+02 -0.20788085333E+03  0.86660930474E+01  0.21283595422E+03  0.00000000000E+00 0.  1.
         21    1    1    2  506  502 -0.16739706529E+02  0.16752903741E+03 -0.89580309618E+03  0.91148745645E+03  0.00000000000E+00 0. -1.
<scales pt_clust_3="34.76776" pt_clust_4="68.86500" pt_clust_5="14000.00000" pt_clust_6="226.47661"></scales>
<clustering>
<clus scale="   34.768">  1  3  2 -1</clus>
<clus scale="   68.865">  2  4  1 -1</clus>
<clus scale="  226.477">  2  6  1 -1</clus>
<clus scale="   34.768">  1  3  2 -1</clus>
</clustering>
</event>
<event>
 6    0  0.2036847E+002  0.1515741E+03  0.7546771E-02  0.1198552E+00
         21   -1    0    0  504  501  0.00000000000E+00  0.00000000000E+00  0.31093955897E+02  0.31093955897E+02  0.00000000000E+00 0.  1.
         21   -1    0    0  505  502 -0.00000000000E+00 -0.00000000000E+00 -0.75049006659E+03  0.75049006659E+03  0.00000000000E+00 0.  1.
         21    1    1    2  503  502 -0.26230331131E+02 -0.86150032157E+02 -0.31119770734E+03  0.32396584907E+03  0.00000000000E+00 0.  1.
         21    1    1    2  504  503 -0.32225061266E+02 -0.44586177982E+02 -0.11922562238E+03  0.13130548684E+03  0.00000000000E+00 0. -1.
         21    1    1    2  505  506  0.43892145672E+02  0.81561447645E+02 -0.23118637551E+03  0.24905005604E+03  0.00000000000E+00 0.  1.
         21    1    1    2  506  501  0.14563246725E+02  0.49174762494E+02 -0.57786405465E+02  0.77262630541E+02  0.00000000000E+00 0.  1.
<scales pt_clust_3="148.35008" pt_clust_4="30.25821" pt_clust_5="36.94994" pt_clust_6="36.94994"></scales>
<clustering>
<clus scale="   30.258">  3  4 -1 -1</clus>
<clus scale="   36.950">  5  6 -1 -1</clus>
<clus scale="  148.350">  2  3  1 -1</clus>
<clus scale="  151.574">  1  3  2 -1</clus>
</clustering>
</event>
<event>
 6    0  0.2036847E+002  0.1042020E+03  0.7546771E-02  0.1271700E+00
         21   -1    0    0  503  501  0.00000000000E+00  0.00000000000E+00  0.30903692845E+03  0.30903692845E+03  0.00000000000E+00 0. -1.
         21   -1    0    0  505  502 -0.00000000000E+00 -0.00000000000E+00 -0.29539653446E+03  0.29539653446E+03  0.00000000000E+00 0. -1.
         21    1    1    2  503  506  0.13164221511E+02 -0.60424838484E+02  0.70157138951E+02  0.93522628169E+02  0.00000000000E+00 0. -1.
         21    1    1    2  504  502  0.95558148172E+02 -0.41931913771E+02 -0.21756027168E+03  0.24129259601E+03  0.00000000000E+00 0. -1.
         21    1    1    2  505  501 -0.93341805004E+01  0.75381879703E+02 -0.28996550327E+01  0.76012911485E+02  0.00000000000E+00 0. -1.
         21    1    1    2  506  504 -0.99388189182E+02  0.26974872552E+02  0.16394318175E+03  0.19360532725E+03  0.00000000000E+00 0. -1.
<scales pt_clust_3="61.84220" pt_clust_4="104.20199" pt_clust_5="66.05469" pt_clust_6="14000.00000"></scales>
<clustering>
<clus scale="   61.842">  1  3  2 -1</clus>
<clus scale="   66.055">  1  5  2 -1</clus>
<clus scale="  104.202">  2  4  1 -1</clus>
<clus scale="   61.842">  1  3  2 -1</clus>
</clustering>
</event>
<event>
 6    0  0.2036847E+002  0.8251916E+02  0.7546771E-02  0.1322051E+00
         21   -1    0    0  504  501  0.00000000000E+00  0.00000000000E+00  0.26443463628E+04  0.26443463628E+04  0.00000000000E+00 0. -1.
         21   -1    0    0  506  502 -0.00000000000E+00 -0.00000000000E+00 -0.55238441975E+03  0.55238441975E+03  0.00000000000E+00 0. -1.
         21    1    1    2  503  505  0.62843679130E+02  0.48241643627E+01 -0.87626980788E+02  0.10794020720E+03  0.00000000000E+00 0. -1.
         21    1    1    2  504  503 -0.49880343305E+02 -0.11292132144E+03  0.18307932375E+04  0.18349504494E+04  0.00000000000E+00 0. -1.
         21    1    1    2  505  502  0.49403483044E+01  0.43477329836E+02 -0.45005650941E+03  0.45217866702E+03  0.00000000000E+00 0. -1.
         21    1    1    2  506  501 -0.17903684130E+02  0.64619827245E+02  0.79885219584E+03  0.80166145895E+03  0.00000000000E+00 0. -1.
<scales pt_clust_3="82.51916" pt_clust_4="14000.00000" pt_clust_5="43.75712" pt_clust_6="67.61743"></scales>
<clustering>
<clus scale="   43.757">  2  5  1 -1</clus>
<clus scale="   67.617">  1  6  2 -1</clus>
<clus scale="   82.519">  2  3  1 -1</clus>
<clus scale="   67.617">  1  3  2 -1</clus>
</clustering>
</event>
<event>
 6    0  0.2036847E+002  0.1129746E+03  0.7546771E-02  0.1255159E+00
         21   -1    0    0  503  501  0.00000000000E+00  0.00000000000E+00  0.84139890972E+03  0.84139890972E+03  0.00000000000E+00 0. -1.
         21   -1    0    0  505  502 -0.00000000000E+00 -0.00000000000E+00 -0.32061895553E+03  0.32061895553E+03  0.00000000000E+00 0. -1.
         21    1    1    2  503  502  0.52747558951E+01  0.38081969012E+02  0.37263466896E+02  0.53540875774E+02  0.00000000000E+00 0. -1.
         21    1    1    2  504  506  0.62631107487E+02  0.49163119050E+02 -0.15323680321E+03  0.17268811702E+03  0.00000000000E+00 0.  1.
         21    1    1    2  505  504 -0.18744240867E+02  0.57669433686E+02 -0.13553705618E+03  0.14848368174E+03  0.00000000000E+00 0. -1.
         21    1    1    2  506  501 -0.49161622515E+02 -0.14491452175E+03  0.77229034669E+03  0.78730519072E+03  0.00000000000E+00 0. -1.
<scales pt_clust_3="38.44554" pt_clust_4="112.97456" pt_clust_5="60.92060" pt_clust_6="14000.00000"></scales>
<clustering>
<clus scale="   38.446">  1  3  2 -1</clus>
<clus scale="   60.921">  2  5  1 -1</clus>
<clus scale="  112.975">  2  4  1 -1</clus>
<clus scale="   38.446">  1  3  2 -1</clus>
</clustering>
</event>
<event>
 6    0  0.2036847E+002  0.1163575E+03  0.7546771E-02  0.1249230E+00
         21   -1    0    0  503  501  0.00000000000E+00  0.00000000000E+00  0.10651946442E+04  0.10651946442E+04  0.00000000000E+00 0. -1.
         21   -1    0    0  504  502 -0.00000000000E+00 -0.00000000000E+00 -0.59557735119E+02  0.59557735119E+02  0.00000000000E+00 0. -1.
         21    1    1    2  503  506  0.10797105835E+02 -0.37962782356E+02  0.32338717115E+03  0.32578675971E+03  0.00000000000E+00 0. -1.
         21    1    1    2  504  501 -0.98094306753E+02  0.44261052079E+02  0.11617653676E+02  0.10824279942E+03  0.00000000000E+00 0. -1.
         21    1    1    2  505  502  0.17842924456E+02  0.27333474632E+02  0.26665380396E+02  0.42148918138E+02  0.00000000000E+00 0. -1.
         21    1    1    2  506  505  0.69454276462E+02 -0.33631744355E+02  0.64396670390E+03  0.64857390209E+03  0.00000000000E+00 0. -1.
<scales pt_clust_3="32.29427" pt_clust_4="107.23776" pt_clust_5="32.64183" pt_clust_6="32.29427"></scales>
<clustering>
<clus scale="   32.294">  3  6 -1 -1</clus>
<clus scale="   32.642">  2  5  1 -1</clus>
<clus scale="  107.238">  2  4  1 -1</clus>
<clus scale="  116.357">  1  3  2 -1</clus>
</clustering>
</event>
<event>
 6    0  0.2036847E+002  0.1504736E+03  0.7546771E-02  0.1199892E+00
         21   -1    0    0  506  501  0.00000000000E+00  0.00000000000E+00  0.14715614471E+02  0.14715614471E+02  0.00000000000E+00 0. -1.
         21   -1    0    0  505  502 -0.00000000000E+00 -0.00000000000E+00 -0.26632511274E+04  0.26632511274E+04  0.00000000000E+00 0. -1.
         21    1    1    2  503  502  0.76928282640E+02  0.79694618108E+02 -0.15742622914E+04  0.15781542875E+04  0.00000000000E+00 0. -1.
         21    1    1    2  504  503  0.44868214325E+02  0.43087811501E+01 -0.36481098877E+03  0.36758506468E+03  0.00000000000E+00 0.  1.
         21    1    1    2  505  501 -0.60456366635E+02  0.17119741665E+02 -0.25496498839E+03  0.26259322749E+03  0.00000000000E+00 0. -1.
         21    1    1    2  506  504 -0.61340130330E+02 -0.10112314092E+03 -0.45449724436E+03  0.46963416225E+03  0.00000000000E+00 0. -1.
<scales pt_clust_3="40.37286" pt_clust_4="40.37286" pt_clust_5="62.83357" pt_clust_6="136.51675"></scales>
<clustering>
<clus scale="   40.373">  3  4 -1 -1</clus>
<clus scale="   62.834">  1  5  2 -1</clus>
<clus scale="  136.517">  1  6  2 -1</clus>
<clus scale="   62.834">  1  3  2 -1</clus>
</clustering>
</event>
<event>
 6    0  0.3026419E+002  0.1186464E+03  0.7546771E-02  0.1245347E+00
         21   -1    0    0  504  501  0.00000000000E+00  0.00000000000E+00  0.89416254683E+03  0.89416254683E+03  0.00000000000E+00 0. -1.
         21   -1    0    0  506  502 -0.00000000000E+00 -0.00000000000E+00 -0.18724535717E+04  0.18724535717E+04  0.00000000000E+00 0. -1.
         21    1    1    2  503  502 -0.23122464391E+02  0.20952057510E+02 -0.17625009024E+04  0.17627770897E+04  0.00000000000E+00 0. -1.
         21    1    1    2  504  505  0.13416531684E+03  0.51649775969E+01  0.75727812326E+03  0.76908852885E+03  0.00000000000E+00 0. -1.
         21    1    1    2  505  503 -0.82544316700E+02 -0.97817195234E+01  0.11434743039E+03  0.14136683166E+03  0.00000000000E+00 0.  1.
         21    1    1    2  506  501 -0.28498535752E+02 -0.16335315584E+02 -0.87415676080E+02  0.93383668271E+02  0.00000000000E+00 0.  1.
<scales pt_clust_3="31.20316" pt_clust_4="118.64637" pt_clust_5="14000.00000" pt_clust_6="47.54177"></scales>
<clustering>
<clus scale="   31.203">  2  3  1 -1</clus>
<clus scale="   47.542">  2  6  1 -1</clus>
<clus scale="  118.646">  1  4  2 -1</clus>
<clus scale="  118.646">  1  3  2 -1</clus>
</clustering>
</event>
<event>
 6    0  0.2036847E+002  0.1174003E+03  0.7546771E-02  0.1247448E+00
         21   -1    0    0  505  501  0.00000000000E+00  0.00000000000E+00  0.98425251666E+03  0.98425251666E+03  0.00000000000E+00 0. -1.
         21   -1    0    0  504  502 -0.00000000000E+00 -0.00000000000E+00 -0.63265425980E+02  0.63265425980E+02  0.00000000000E+00 0. -1.
         21    1    1    2  503  501 -0.11302342813E+02  0.11034500309E+03  0.80805521364E+03  0.81563287755E+03  0.00000000000E+00 0. -1.
         21    1    1    2  504  503  0.14165630557E+02 -0.28656790610E+02  0.40194384451E+02  0.51356258416E+02  0.00000000000E+00 0.  1.
         21    1    1    2  505  506  0.29771763740E+02  0.10473476992E+02  0.76430109966E+02  0.82689862413E+02  0.00000000000E+00 0.  1.
         21    1    1    2  506  502 -0.32635051484E+02 -0.92161689467E+02 -0.36926173727E+01  0.97838944260E+02  0.00000000000E+00 0. -1.
<scales pt_clust_3="14000.00000" pt_clust_4="32.19832" pt_clust_5="31.56029" pt_clust_6="117.40031"></scales>
<clustering>
<clus scale="   31.560">  1  5  2 -1</clus>
<clus scale="   32.198">  2  4  1 -1</clus>
<clus scale="  117.400">  2  6  1 -1</clus>
<clus scale="   31.560">  1  3  2 -1</clus>
</clustering>
</event>
<event>
 6    0  0.2036847E+002  0.2341452E+03  0.7546771E-02  0.1123756E+00
         21   -1    0    0  503  501  0.00000000000E+00  0.00000000000E+00  0.41291493097E+03  0.41291493097E+03  0.00000000000E+00 0.  1.
         21   -1    0    0  505  502 -0.00000000000E+00 -0.00000000000E+00 -0.25800508923E+03  0.25800508923E+03  0.00000000000E+00 0. -1.
         21    1    1    2  503  502  0.24452067620E+02  0.49414720916E+02 -0.45425103719E+02  0.71436393400E+02  0.00000000000E+00 0. -1.
         21    1    1    2  504  506  0.14652186241E+03  0.84117801129E+02  0.22028006664E+03  0.27761082182E+03  0.00000000000E+00 0.  1.
         21    1    1    2  505  504 -0.22227908151E+03 -0.12288003703E+03 -0.53625424062E+02  0.25958270298E+03  0.00000000000E+00 0. -1.
         21    1    1    2  506  501  0.51305151483E+02 -0.10652485014E+02  0.33680302878E+02  0.62290102004E+02  0.00000000000E+00 0.  1.
<scales pt_clust_3="55.13364" pt_clust_4="44.91339" pt_clust_5="219.81785" pt_clust_6="44.91339"></scales>
<clustering>
<clus scale="   44.913">  4  6 -1 -1</clus>
<clus scale="   55.134">  2  3  1 -1</clus>
<clus scale="  219.818">  2  5  1 -1</clus>
<clus scale="  234.145">  1  3  2 -1</clus>
</clustering>
</event>
<event>
 6    0  0.2036847E+002  0.7854511E+02  0.7546771E-02  0.1333232E+00
         21   -1    0    0  504  501  0.00000000000E+00  0.00000000000E+00  0.28300226571E+03  0.28300226571E+03  0.00000000000E+00 0.  1.
         21   -1    0    0  503  502 -0.00000000000E+00 -0.00000000000E+00 -0.23572368271E+03  0.23572368271E+03  0.00000000000E+00 0. -1.
         21    1    1    2  503  505 -0.97224352586E+01 -0.30186875104E+02 -0.33702927226E+02  0.46278077742E+02  0.00000000000E+00 0. -1.
         21    1    1    2  504  502 -0.10034547802E+03  0.54775917283E+02  0.15721927366E+03  0.19439011313E+03  0.00000000000E+00 0.  1.
         21    1    1    2  505  506  0.39245842586E+02 -0.45777758313E+02 -0.15723353579E+03  0.16839900265E+03  0.00000000000E+00 0. -1.
         21    1    1    2  506  501  0.70822070689E+02  0.21188716134E+02  0.80995772360E+02  0.10965875491E+03  0.00000000000E+00 0.  1.
<scales pt_clust_3="31.71393" pt_clust_4="14000.00000" pt_clust_5="78.54511" pt_clust_6="72.63347"></scales>
<clustering>
<clus scale="   31.714">  2  3  1 -1</clus>
<clus scale="   72.633">  1  6  2 -1</clus>
<clus scale="   78.545">  2  5  1 -1</clus>
<clus scale="   72.633">  1  3  2 -1</clus>
</clustering>
</event>
<event>
 6    0  0.2036847E+002  0.1397102E+03  0.7546771E-02  0.1213719E+00
         21   -1    0    0  504  501  0.00000000000E+00  0.00000000000E+00  0.43122325275E+03  0.43122325275E+03  0.00000000000E+00 0. -1.
         21   -1    0    0  506  502 -0.00000000000E+00 -0.00000000000E+00 -0.11522311442E+04  0.11522311442E+04  0.00000000000E+00 0. -1.
         21    1    1    2  503  502 -0.46895151709E+02 -0.30303100891E+02 -0.80989616686E+03  0.81181847372E+03  0.00000000000E+00 0. -1.
         21    1    1    2  504  503 -0.96065016827E+02 -0.55264918756E+01 -0.31835778059E+03  0.33258187869E+03  0.00000000000E+00 0. -1.
         21    1    1    2  505  501  0.48671470479E+02  0.17800092593E+02  0.24596606186E+03  0.25136638383E+03  0.00000000000E+00 0. -1.
         21    1    1    2  506  505  0.94288698057E+02  0.18029500174E+02  0.16127999417E+03  0.18768766069E+03  0.00000000000E+00 0. -1.
<scales pt_clust_3="55.56792" pt_clust_4="14000.00000" pt_clust_5="51.82427" pt_clust_6="139.71022"></scales>
<clustering>
<clus scale="   51.824">  1  5  2 -1</clus>
<clus scale="   55.568">  2  3  1 -1</clus>
<clus scale="  139.710">  1  6  2 -1</clus>
<clus scale="   51.824">  1  3  2 -1</clus>
</clustering>
</event>
<event>
 6    0  0.2036847E+002  0.1843729E+03  0.7546771E-02  0.1163637E+00
         21   -1    0    0  506  501  0.00000000000E+00  0.00000000000E+00  0.64466875281E+03  0.64466875281E+03  0.00000000000E+00 0.  1.
         21   -1    0    0  505  502 -0.00000000000E+00 -0.00000000000E+00 -0.86506057242E+02  0.86506057242E+02  0.00000000000E+00 0.  1.
         21    1    1    2  503  502 -0.48317178544E+02  0.97693880768E+02  0.44740478953E+02  0.11781491645E+03  0.00000000000E+00 0.  1.
         21    1    1    2  504  501  0.36735992151E+02 -0.83837925392E+02  0.29545405185E+03  0.30930798181E+03  0.00000000000E+00 0.  1.
         21    1    1    2  505  504  0.62310623184E+02 -0.65998209270E+02  0.21253052129E+03  0.23110084350E+03  0.00000000000E+00 0.  1.
         21    1    1    2  506  503 -0.50729436791E+02  0.52142253894E+02  0.54376434766E+01  0.72951068292E+02  0.00000000000E+00 0.  1.
<scales pt_clust_3="184.04841" pt_clust_4="41.44567" pt_clust_5="41.44567" pt_clust_6="32.80941"></scales>
<clustering>
<clus scale="   32.809">  3  6 -1 -1</clus>
<clus scale="   41.446">  4  5 -1 -1</clus>
<clus scale="  184.048">  2  3  1 -1</clus>
<clus scale="  184.373">  1  3  2 -1</clus>
</clustering>
</event>
<event>
 6    0  0.2036847E+002  0.9333109E+02  0.7546771E-02  0.1294980E+00
         21   -1    0    0  506  501  0.00000000000E+00  0.00000000000E+00  0.84348898676E+03  0.84348898676E+03  0.00000000000E+00 0. -1.
         21   -1    0    0  503  502 -0.00000000000E+00 -0.00000000000E+00 -0.11372152147E+03  0.11372152147E+03  0.00000000000E+00 0. -1.
         21    1    1    2  503  505  0.53533804349E+02  0.10000825406E+02 -0.82755739648E+02  0.99067639326E+02  0.00000000000E+00 0. -1.
         21    1    1    2  504  502 -0.24469091389E+02 -0.30267363854E+02  0.21459458281E+02  0.44445000819E+02  0.00000000000E+00 0. -1.
         21    1    1    2  505  501  0.71300642161E+02 -0.29938440373E+02  0.28195768602E+03  0.29237001982E+03  0.00000000000E+00 0. -1.
         21    1    1    2  506  504 -0.10036535512E+03  0.50204978820E+02  0.50910606064E+03  0.52132784828E+03  0.00000000000E+00 0. -1.
<scales pt_clust_3="35.99587" pt_clust_4="38.92107" pt_clust_5="93.33109" pt_clust_6="14000.00000"></scales>
<clustering>
<clus scale="   38.921">  2  4  1 -1</clus>
<clus scale="   35.996">  2  3  1 -1</clus>
<clus scale="   93.331">  1  5  2 -1</clus>
<clus scale="   93.331">  1  3  2 -1</clus>
</clustering>
</event>
<event>
 6    0  0.2036847E+002  0.1198372E+03  0.7546771E-02  0.1243366E+00
         21   -1    0    0  503  501  0.00000000000E+00  0.00000000000E+00  0.16255761517E+03  0.16255761517E+03  0.00000000000E+00 0. -1.
         21   -1    0    0  504  502 -0.00000000000E+00 -0.00000000000E+00 -0.12719994826E+04  0.12719994826E+04  0.00000000000E+00 0. -1.
         21    1    1    2  503  506 -0.25351043419E+02  0.21925164388E+02 -0.13175542010E+02  0.36013652177E+02  0.00000000000E+00 0. -1.
         21    1    1    2  504  505 -0.45126047981E+02 -0.42262874327E+02 -0.91588814760E+03  0.91797255387E+03  0.00000000000E+00 0. -1.
         21    1    1    2  505  501  0.76681593941E+02  0.95900515930E+02  0.11945043379E+03  0.17130493845E+03  0.00000000000E+00 0. -1.
         21    1    1    2  506  502 -0.62045025409E+01 -0.75562805991E+02 -0.29982861160E+03  0.30926595324E+03  0.00000000000E+00 0. -1.
<scales pt_clust_3="33.51698" pt_clust_4="61.85113" pt_clust_5="119.83723" pt_clust_6="14000.00000"></scales>
<clustering>
<clus scale="   33.517">  1  3  2 -1</clus>
<clus scale="   61.851">  2  4  1 -1</clus>
<clus scale="  119.837">  1  5  2 -1</clus>
<clus scale="   33.517">  1  3  2 -1</clus>
</clustering>
</event>
<event>
 6    0  0.2036847E+002  0.7357157E+02  0.7546771E-02  0.1348352E+00
         21   -1    0    0  506  501  0.00000000000E+00  0.00000000000E+00  0.10267938464E+03  0.10267938464E+03  0.00000000000E+00 0. -1.
         21   -1    0    0  505  502 -0.00000000000E+00 -0.00000000000E+00 -0.96881162130E+03  0.96881162130E+03  0.00000000000E+00 0. -1.
         21    1    1    2  503  502  0.40009481395E+02  0.24531343200E+02 -0.69163384803E+03  0.69322429642E+03  0.00000000000E+00 0. -1.
         21    1    1    2  504  501 -0.82329455786E+02 -0.15322493925E+02  0.56486604114E+01  0.83933458612E+02  0.00000000000E+00 0. -1.
         21    1    1    2  505  504 -0.19372656427E+02  0.38976880059E+02 -0.20703715593E+03  0.21156294792E+03  0.00000000000E+00 0.  1.
         21    1    1    2  506  503  0.61692630818E+02 -0.48185729334E+02  0.26890106889E+02  0.82770302991E+02  0.00000000000E+00 0. -1.
<scales pt_clust_3="64.08831" pt_clust_4="73.57157" pt_clust_5="43.52582" pt_clust_6="14000.00000"></scales>
<clustering>
<clus scale="   43.526">  2  5  1 -1</clus>
<clus scale="   64.088">  2  3  1 -1</clus>
<clus scale="   73.572">  2  4  1 -1</clus>
<clus scale="   73.572">  1  3  2 -1</clus>
</clustering>
</event>
<event>
 6    0  0.2036847E+002  0.1072403E+03  0.7546771E-02  0.1265767E+00
         21   -1    0    0  503  501  0.00000000000E+00  0.00000000000E+00  0.41842094538E+03  0.41842094538E+03  0.00000000000E+00 0. -1.
         21   -1    0    0  505  502 -0.00000000000E+00 -0.00000000000E+00 -0.12200752116E+03  0.12200752116E+03  0.00000000000E+00 0. -1.
         21    1    1    2  503  504  0.10930095836E+03 -0.29924663333E+02  0.34786723419E+03  0.36586035259E+03  0.00000000000E+00 0. -1.
         21    1    1    2  504  506 -0.60285418194E+02  0.10289054232E+02 -0.54923709822E+02  0.82199818640E+02  0.00000000000E+00 0. -1.
         21    1    1    2  505  501 -0.43809696152E+02 -0.16649845849E+02  0.21446315467E+02  0.51540773092E+02  0.00000000000E+00 0.  1.
         21    1    1    2  506  502 -0.52058440130E+01  0.36285454950E+02 -0.17976415615E+02  0.40827522226E+02  0.00000000000E+00 0. -1.
<scales pt_clust_3="107.24031" pt_clust_4="14000.00000" pt_clust_5="45.93221" pt_clust_6="36.65699"></scales>
<clustering>
<clus scale="   36.657">  2  6  1 -1</clus>
<clus scale="   45.932">  2  5  1 -1</clus>
<clus scale="  107.240">  1  3  2 -1</clus>
<clus scale="  107.240">  1  3  2 -1</clus>
</clustering>
</event>
<event>
 6    0  0.2036847E+002  0.8818172E+02  0.7546771E-02  0.1307316E+00
         21   -1    0    0  506  501  0.00000000000E+00  0.00000000000E+00  0.19953720427E+04  0.19953720427E+04  0.00000000000E+00 0.  1.
         21   -1    0    0  505  502 -0.00000000000E+00 -0.00000000000E+00 -0.60757640711E+02  0.60757640711E+02  0.00000000000E+00 0.  1.
         21    1    1    2  503  502  0.10793945153E+02  0.79093819686E+02  0.38275480771E+02  0.88528831421E+02  0.00000000000E+00 0.  1.
         21    1    1    2  504  503  0.69277718148E+02 -0.35901160378E+02  0.20169096586E+03  0.21625804322E+03  0.00000000000E+00 0.  1.
         21    1    1    2  505  501  0.11104617590E+02 -0.30433838070E+02 -0.17432444990E+02  0.36788872908E+02  0.00000000000E+00 0.  1.
         21    1    1    2  506  504 -0.91176280891E+02 -0.12758821237E+02  0.17120804004E+04  0.17145539359E+04  0.00000000000E+00 0.  1.
<scales pt_clust_3="59.51046" pt_clust_4="88.18172" pt_clust_5="32.39647" pt_clust_6="14000.00000"></scales>
<clustering>
<clus scale="   32.396">  2  5  1 -1</clus>
<clus scale="   59.510">  2  3  1 -1</clus>
<clus scale="   88.182">  2  4  1 -1</clus>
<clus scale="   88.182">  1  3  2 -1</clus>
</clustering>
</event>
<event>
 6    0  0.2036847E+002  0.9966907E+02  0.7546771E-02  0.1280993E+00
         21   -1    0    0  503  501  0.00000000000E+00  0.00000000000E+00  0.12473243467E+03  0.12473243467E+03  0.00000000000E+00 0.  1.
         21   -1    0    0  505  502 -0.00000000000E+00 -0.00000000000E+00 -0.71816484323E+03  0.71816484323E+03  0.00000000000E+00 0. -1.
         21    1    1    2  503  502 -0.36636240112E+02  0.36899143734E+02 -0.55511355685E+02  0.76060972304E+02  0.00000000000E+00 0.  1.
         21    1    1    2  504  501  0.32490318684E+02  0.28903321094E+02  0.66117432039E+02  0.79136196509E+02  0.00000000000E+00 0.  1.
         21    1    1    2  505  506 -0.75471558521E+02 -0.71640020422E+02 -0.59871607023E+03  0.60769168286E+03  0.00000000000E+00 0. -1.
         21    1    1    2  506  504  0.79617479949E+02  0.58375555936E+01 -0.53224146926E+01  0.80008426224E+02  0.00000000000E+00 0.  1.
<scales pt_clust_3="52.23468" pt_clust_4="43.48589" pt_clust_5="14000.00000" pt_clust_6="99.66907"></scales>
<clustering>
<clus scale="   43.486">  1  4  2 -1</clus>
<clus scale="   52.235">  1  3  2 -1</clus>
<clus scale="   99.669">  1  6  2 -1</clus>
<clus scale="   43.486">  1  3  2 -1</clus>
</clustering>
</event>
<event>
 6    0  0.2036847E+002  0.1576266E+03  0.7546771E-02  0.1191403E+00
         21   -1    0    0  505  501  0.00000000000E+00  0.00000000000E+00  0.41490933717E+03  0.41490933717E+03  0.00000000000E+00 0.  1.
         21   -1    0    0  503  502 -0.00000000000E+00 -0.00000000000E+00 -0.46694365926E+03  0.46694365926E+03  0.00000000000E+00 0.  1.
         21    1    1    2  503  506 -0.66770465211E+02  0.93058639798E+02 -0.40305607331E+03  0.41901360801E+03  0.00000000000E+00 0.  1.
         21    1    1    2  504  502 -0.30459906449E+02  0.36240059775E+02 -0.19877512048E+02  0.51344554907E+02  0.00000000000E+00 0.  1.
         21    1    1    2  505  504  0.34134633952E+02 -0.26905652544E+00  0.83355655702E+02  0.90074474541E+02  0.00000000000E+00 0. -1.
         21    1    1    2  506  501  0.63095737708E+02 -0.12902964305E+03  0.28754360757E+03  0.32142035897E+03  0.00000000000E+00 0.  1.
<scales pt_clust_3="157.62657" pt_clust_4="46.29473" pt_clust_5="34.13569" pt_clust_6="14000.00000"></scales>
<clustering>
<clus scale="   34.136">  1  5  2 -1</clus>
<clus scale="   46.295">  2  4  1 -1</clus>
<clus scale="  157.627">  2  3  1 -1</clus>
<clus scale="   34.136">  1  3  2 -1</clus>
</clustering>
</event>
<event>
 6    0  0.2036847E+002  0.1279538E+03  0.7546771E-02  0.1230524E+00
         21   -1    0    0  506  501  0.00000000000E+00  0.00000000000E+00  0.48260072936E+03  0.48260072936E+03  0.00000000000E+00 0. -1.
         21   -1    0    0  504  502 -0.00000000000E+00 -0.00000000000E+00 -0.83810093081E+03  0.83810093081E+03  0.00000000000E+00 0. -1.
         21    1    1    2  503  502  0.10041438553E+03 -0.10231224157E+03 -0.78023277785E+03  0.79329315592E+03  0.00000000000E+00 0. -1.
         21    1    1    2  504  505 -0.43168143808E+02 -0.14295038469E+02 -0.24607989491E+02  0.51704834508E+02  0.00000000000E+00 0. -1.
         21    1    1    2  505  501 -0.52581672209E+02  0.69361576008E+02  0.39058064549E+03  0.40016134384E+03  0.00000000000E+00 0. -1.
         21    1    1    2  506  503 -0.46645695140E+01  0.47245704028E+02  0.58759920394E+02  0.75542325901E+02  0.00000000000E+00 0.  1.
<scales pt_clust_3="14000.00000" pt_clust_4="45.47347" pt_clust_5="127.95375" pt_clust_6="47.37296"></scales>
<clustering>
<clus scale="   45.473">  2  4  1 -1</clus>
<clus scale="   47.373">  1  6  2 -1</clus>
<clus scale="  127.954">  1  5  2 -1</clus>
<clus scale="   47.373">  1  3  2 -1</clus>
</clustering>
</event>
<event>
 6    0  0.2036847E+002  0.8275413E+02  0.7546771E-02  0.1321412E+00
         21   -1    0    0  503  501  0.00000000000E+00  0.00000000000E+00  0.21054423490E+03  0.21054423490E+03  0.00000000000E+00 0.  1.
         21   -1    0    0  506  502 -0.00000000000E+00 -0.00000000000E+00 -0.14069551129E+04  0.14069551129E+04  0.00000000000E+00 0. -1.
         21    1    1    2  503  505  0.72441733374E+02 -0.32955436690E+02  0.15414034111E+03  0.17347365880E+03  0.00000000000E+00 0.  1.
         21    1    1    2  504  501 -0.27404489867E+02  0.20635506333E+02  0.33487795995E+02  0.47940198864E+02  0.00000000000E+00 0.  1.
         21    1    1    2  505  502 -0.14508430688E+02 -0.72858576802E+02 -0.33434624993E+03  0.34250004616E+03  0.00000000000E+00 0. -1.
         21    1    1    2  506  504 -0.30528812819E+02  0.85178507159E+02 -0.10496927652E+04  0.10535854440E+04  0.00000000000E+00 0. -1.
<scales pt_clust_3="47.82461" pt_clust_4="34.30496" pt_clust_5="82.75413" pt_clust_6="14000.00000"></scales>
<clustering>
<clus scale="   34.305">  1  4  2 -1</clus>
<clus scale="   47.825">  1  3  2 -1</clus>
<clus scale="   82.754">  1  5  2 -1</clus>
<clus scale="   34.305">  1  3  2 -1</clus>
</clustering>
</event>
<event>
 6    0  0.2036847E+002  0.1369480E+03  0.7546771E-02  0.1217496E+00
         21   -1    0    0  503  501  0.00000000000E+00  0.00000000000E+00  0.47241023851E+03  0.47241023851E+03  0.00000000000E+00 0.  1.
         21   -1    0    0  504  502 -0.00000000000E+00 -0.00000000000E+00 -0.12538178862E+03  0.12538178862E+03  0.00000000000E+00 0.  1.
         21    1    1    2  503  505 -0.10882946795E+03  0.27162122507E+02 -0.36816592023E+02  0.11805547612E+03  0.00000000000E+00 0.  1.
         21    1    1    2  504  506  0.60472039999E+02 -0.13225831326E+02  0.13733457555E+03  0.15064055191E+03  0.00000000000E+00 0.  1.
         21    1    1    2  505  502 -0.55234409317E+01  0.36440524270E+02 -0.27080443651E+02  0.45735879101E+02  0.00000000000E+00 0.  1.
         21    1    1    2  506  501  0.53880868880E+02 -0.50376815451E+02  0.27359091002E+03  0.28336012001E+03  0.00000000000E+00 0.  1.
<scales pt_clust_3="127.98367" pt_clust_4="44.78769" pt_clust_5="36.85675" pt_clust_6="44.78769"></scales>
<clustering>
<clus scale="   36.857">  2  5  1 -1</clus>
<clus scale="   44.788">  4  6 -1 -1</clus>
<clus scale="  127.984">  2  3  1 -1</clus>
<clus scale="  136.948">  1  3  2 -1</clus>
</clustering>
</event>
<event>
 6    0  0.2036847E+002  0.1293527E+03  0.7546771E-02  0.1228419E+00
         21   -1    0    0  505  501  0.00000000000E+00  0.00000000000E+00  0.76253787326E+02  0.76253787326E+02  0.00000000000E+00 0. -1.
         21   -1    0    0  501  502 -0.00000000000E+00 -0.00000000000E+00 -0.59904091199E+03  0.59904091199E+03  0.00000000000E+00 0.  1.
         21    1    1    2  503  504 -0.38774418981E+02  0.42903938645E+02 -0.22198689925E+03  0.22939569952E+03  0.00000000000E+00 0.  1.
         21    1    1    2  504  502 -0.61289017927E+02  0.20902193892E+02 -0.30955011159E+03  0.31625071859E+03  0.00000000000E+00 0.  1.
         21    1    1    2  505  506  0.56348767762E+02 -0.63920024547E+02  0.10756357776E+02  0.85887440286E+02  0.00000000000E+00 0. -1.
         21    1    1    2  506  503  0.43714669146E+02  0.11389201079E+00 -0.20064716084E+01  0.43760840922E+02  0.00000000000E+00 0. -1.
<scales pt_clust_3="31.54836" pt_clust_4="123.28187" pt_clust_5="36.85883" pt_clust_6="36.85883"></scales>
<clustering>
<clus scale="   31.548">  3  4 -1 -1</clus>
<clus scale="   36.859">  5  6 -1 -1</clus>
<clus scale="  123.282">  2  3  1 -1</clus>
<clus scale="  129.353">  1  3  2 -1</clus>
</clustering>
</event>
<event>
 6    0  0.2036847E+002  0.1400162E+03  0.7546771E-02  0.1213307E+00
         21   -1    0    0  503  501  0.00000000000E+00  0.00000000000E+00  0.43451440019E+03  0.43451440019E+03  0.00000000000E+00 0. -1.
         21   -1    0    0  504  502 -0.00000000000E+00 -0.00000000000E+00 -0.11534996099E+03  0.11534996099E+03  0.00000000000E+00 0. -1.
         21    1    1    2  503  505 -0.44722265751E+02  0.19355555463E+02  0.15286415125E+03  0.16044365777E+03  0.00000000000E+00 0. -1.
         21    1    1    2  504  506  0.14659188168E+03  0.19481149231E+02 -0.14199796858E+02  0.14856086019E+03  0.00000000000E+00 0. -1.
         21    1    1    2  505  502 -0.11988638991E+03 -0.59790992655E+01  0.15253859185E+03  0.19410440004E+03  0.00000000000E+00 0. -1.
         21    1    1    2  506  501  0.18016773982E+02 -0.32857605429E+02  0.27961492961E+02  0.46755443189E+02  0.00000000000E+00 0.  1.
<scales pt_clust_3="38.15551" pt_clust_4="140.01620" pt_clust_5="14000.00000" pt_clust_6="37.47301"></scales>
<clustering>
<clus scale="   37.473">  1  6  2 -1</clus>
<clus scale="   38.156">  1  3  2 -1</clus>
<clus scale="  140.016">  2  4  1 -1</clus>
<clus scale="   37.473">  1  3  2 -1</clus>
</clustering>
</event>
<event>
 6    0  0.2036847E+002  0.9158485E+02  0.7546771E-02  0.1299059E+00
         21   -1    0    0  505  501  0.00000000000E+00  0.00000000000E+00  0.63579424120E+03  0.63579424120E+03  0.00000000000E+00 0. -1.
         21   -1    0    0  506  502 -0.00000000000E+00 -0.00000000000E+00 -0.10559451516E+04  0.10559451516E+04  0.00000000000E+00 0. -1.
         21    1    1    2  503  502 -0.10314111097E+03  0.10558080548E+02  0.25489791622E+02  0.10676746374E+03  0.00000000000E+00 0. -1.
         21    1    1    2  504  501  0.51549012637E+02  0.38569038758E+02 -0.28496196938E+03  0.29214413471E+03  0.00000000000E+00 0. -1.
         21    1    1    2  505  503  0.19896284096E+02 -0.61065906177E+02  0.56385593110E+03  0.56750191018E+03  0.00000000000E+00 0. -1.
         21    1    1    2  506  504  0.31695814239E+02  0.11938786870E+02 -0.72453466379E+03  0.72532588421E+03  0.00000000000E+00 0. -1.
<scales pt_clust_3="14000.00000" pt_clust_4="91.58485" pt_clust_5="64.21727" pt_clust_6="33.86974"></scales>
<clustering>
<clus scale="   33.870">  2  6  1 -1</clus>
<clus scale="   64.217">  1  5  2 -1</clus>
<clus scale="   91.585">  2  4  1 -1</clus>
<clus scale="   64.217">  1  3  2 -1</clus>
</clustering>
</event>
<event>
 6    0  0.2036847E+002  0.2261355E+03  0.7546771E-02  0.1129390E+00
         21   -1    0    0  504  501  0.00000000000E+00  0.00000000000E+00  0.47919677281E+03  0.47919677281E+03  0.00000000000E+00 0.  1.
         21   -1    0    0  506  502 -0.00000000000E+00 -0.00000000000E+00 -0.77879577858E+03  0.77879577858E+03  0.00000000000E+00 0. -1.
         21    1    1    2  503  501  0.10921073915E+03 -0.18963875810E+03  0.42151815811E+03  0.47493936638E+03  0.00000000000E+00 0.  1.
         21    1    1    2  504  502 -0.46172845232E+02  0.11922578445E+02 -0.15565544509E+02  0.50163389932E+02  0.00000000000E+00 0.  1.
         21    1    1    2  505  503  0.10309150775E+01  0.50729125233E+02 -0.11951501013E+03  0.12983968800E+03  0.00000000000E+00 0. -1.
         21    1    1    2  506  505 -0.64068809001E+02  0.12698705442E+03 -0.58603660924E+03  0.60305010708E+03  0.00000000000E+00 0. -1.
<scales pt_clust_3="217.64582" pt_clust_4="47.68731" pt_clust_5="36.66073" pt_clust_6="36.66073"></scales>
<clustering>
<clus scale="   36.661">  5  6 -1 -1</clus>
<clus scale="   47.687">  2  4  1 -1</clus>
<clus scale="  217.646">  1  3  2 -1</clus>
<clus scale="  217.646">  1  3  2 -1</clus>
</clustering>
</event>
<event>
 6    0  0.2036847E+002  0.1208984E+03  0.7546771E-02  0.1241622E+00
         21   -1    0    0  505  501  0.00000000000E+00  0.00000000000E+00  0.38935906170E+03  0.38935906170E+03  0.00000000000E+00 0.  1.
         21   -1    0    0  501  502 -0.00000000000E+00 -0.00000000000E+00 -0.11808665106E+03  0.11808665106E+03  0.00000000000E+00 0. -1.
         21    1    1    2  503  502  0.47563186407E+02  0.41301968527E+02  0.78169076358E+01  0.63476084869E+02  0.00000000000E+00 0.  1.
         21    1    1    2  504  506 -0.31568899111E+02 -0.41871212901E+02  0.11279688551E+03  0.12439023772E+03  0.00000000000E+00 0.  1.
         21    1    1    2  505  504 -0.94854323718E+01 -0.73868326739E+02  0.21085864521E+03  0.22362439801E+03  0.00000000000E+00 0.  1.
         21    1    1    2  506  503 -0.65088549241E+01  0.74437571113E+02 -0.60200027713E+02  0.95954992170E+02  0.00000000000E+00 0. -1.
<scales pt_clust_3="62.99293" pt_clust_4="30.02317" pt_clust_5="30.02317" pt_clust_6="115.48260"></scales>
<clustering>
<clus scale="   30.023">  4  5 -1 -1</clus>
<clus scale="   62.993">  2  3  1 -1</clus>
<clus scale="  115.483">  2  6  1 -1</clus>
<clus scale="  120.898">  1  3  2 -1</clus>
</clustering>
</event>
<event>
 6    0  0.2036847E+002  0.2402666E+03  0.7546771E-02  0.1119615E+00
         21   -1    0    0  505  501  0.00000000000E+00  0.00000000000E+00  0.12793322091E+04  0.12793322091E+04  0.00000000000E+00 0. -1.
         21   -1    0    0  503  502 -0.00000000000E+00 -0.00000000000E+00 -0.72274280943E+03  0.72274280943E+03  0.00000000000E+00 0. -1.
         21    1    1    2  503  504 -0.10368231052E+03 -0.22705425846E+03 -0.51275751810E+03  0.57028407849E+03  0.00000000000E+00 0. -1.
         21    1    1    2  504  501 -0.14793292349E+03  0.98906683305E+02  0.10554029478E+04  0.10702999879E+04  0.00000000000E+00 0. -1.
         21    1    1    2  505  506 -0.19497399037E+01  0.36122291014E+02  0.76466993304E+02  0.84592094540E+02  0.00000000000E+00 0.  1.
         21    1    1    2  506  502  0.25356497391E+03  0.92025284145E+02 -0.62523023304E+02  0.27689885764E+03  0.00000000000E+00 0. -1.
<scales pt_clust_3="240.26655" pt_clust_4="198.85145" pt_clust_5="36.17487" pt_clust_6="14000.00000"></scales>
<clustering>
<clus scale="   36.175">  1  5  2 -1</clus>
<clus scale="  198.851">  1  4  2 -1</clus>
<clus scale="  240.267">  2  3  1 -1</clus>
<clus scale="   36.175">  1  3  2 -1</clus>
</clustering>
</event>
<event>
 6    0  0.2036847E+002  0.2421239E+03  0.7546771E-02  0.1118386E+00
         21   -1    0    0  504  501  0.00000000000E+00  0.00000000000E+00  0.45619092327E+03  0.45619092327E+03  0.00000000000E+00 0.  1.
         21   -1    0    0  503  502 -0.00000000000E+00 -0.00000000000E+00 -0.40450292811E+03  0.40450292811E+03  0.00000000000E+00 0. -1.
         21    1    1    2  503  506  0.39342092177E+02 -0.32727741387E+02  0.24608491087E+01  0.51234373730E+02  0.00000000000E+00 0.  1.
         21    1    1    2  504  502  0.86872878294E+02 -0.15499282832E+03 -0.31968707738E+03  0.36574513156E+03  0.00000000000E+00 0. -1.
         21    1    1    2  505  501 -0.78586694197E+02  0.38546435837E+02  0.10351905948E+03  0.13556508362E+03  0.00000000000E+00 0.  1.
         21    1    1    2  506  505 -0.47628276274E+02  0.14917413387E+03  0.26539516394E+03  0.30814926247E+03  0.00000000000E+00 0.  1.
<scales pt_clust_3="51.17524" pt_clust_4="221.37860" pt_clust_5="72.99620" pt_clust_6="72.99620"></scales>
<clustering>
<clus scale="   51.175">  2  3  1 -1</clus>
<clus scale="   72.996">  5  6 -1 -1</clus>
<clus scale="  221.379">  2  4  1 -1</clus>
<clus scale="  242.124">  1  3  2 -1</clus>
</clustering>
</event>
<event>
 6    0  0.2036847E+002  0.2018655E+03  0.7546771E-02  0.1148175E+00
         21   -1    0    0  505  501  0.00000000000E+00  0.00000000000E+00  0.10829349602E+03  0.10829349602E+03  0.00000000000E+00 0. -1.
         21   -1    0    0  504  502 -0.00000000000E+00 -0.00000000000E+00 -0.19975400007E+04  0.19975400007E+04  0.00000000000E+00 0. -1.
         21    1    1    2  503  502 -0.32565709345E+02 -0.13728874296E+03 -0.65625880843E+03  0.67125579924E+03  0.00000000000E+00 0. -1.
         21    1    1    2  504  501 -0.52798624941E+02 -0.64971312274E+02 -0.11911202794E+04  0.11940588286E+04  0.00000000000E+00 0. -1.
         21    1    1    2  505  506  0.31325403810E+02  0.78227013543E+01  0.66418933633E+01  0.32963469595E+02  0.00000000000E+00 0. -1.
         21    1    1    2  506  503  0.54038930477E+02  0.19443735388E+03 -0.48509310225E+02  0.20755539928E+03  0.00000000000E+00 0. -1.
<scales pt_clust_3="14000.00000" pt_clust_4="83.29137" pt_clust_5="32.28739" pt_clust_6="201.86546"></scales>
<clustering>
<clus scale="   32.287">  1  5  2 -1</clus>
<clus scale="   83.291">  2  4  1 -1</clus>
<clus scale="  201.865">  1  6  2 -1</clus>
<clus scale="   32.287">  1  3  2 -1</clus>
</clustering>
</event>
<event>
 6    0  0.2036847E+002  0.1701023E+03  0.7546771E-02  0.1177741E+00
         21   -1    0    0  506  501  0.00000000000E+00  0.00000000000E+00  0.50465047302E+03  0.50465047302E+03  0.00000000000E+00 0. -1.
         21   -1    0    0  501  502 -0.00000000000E+00 -0.00000000000E+00 -0.58730668194E+02  0.58730668194E+02  0.00000000000E+00 0. -1.
         21    1    1    2  503  504  0.81925519717E+02  0.53853710753E+02  0.68853639151E+02  0.11980332452E+03  0.00000000000E+00 0. -1.
         21    1    1    2  504  502  0.43705943377E+02  0.46100738713E+02  0.10195361956E+03  0.12012505208E+03  0.00000000000E+00 0. -1.
         21    1    1    2  505  503 -0.74041178509E+02 -0.65410284386E+02  0.11435062998E+03  0.15111805979E+03  0.00000000000E+00 0. -1.
         21    1    1    2  506  505 -0.51590284585E+02 -0.34544165080E+02  0.16076191613E+03  0.17233470481E+03  0.00000000000E+00 0. -1.
<scales pt_clust_3="168.49483" pt_clust_4="41.17355" pt_clust_5="44.56759" pt_clust_6="44.56759"></scales>
<clustering>
<clus scale="   41.174">  3  4 -1 -1</clus>
<clus scale="   44.568">  5  6 -1 -1</clus>
<clus scale="  168.495">  2  3  1 -1</clus>
<clus scale="  170.102">  1  3  2 -1</clus>
</clustering>
</event>
<event>
 6    0  0.2036847E+002  0.9885725E+02  0.7546771E-02  0.1282717E+00
         21   -1    0    0  506  501  0.00000000000E+00  0.00000000000E+00  0.29666351425E+02  0.29666351425E+02  0.00000000000E+00 0.  1.
         21   -1    0    0  504  502 -0.00000000000E+00 -0.00000000000E+00 -0.20888731614E+04  0.20888731614E+04  0.00000000000E+00 0. -1.
         21    1    1    2  503  501  0.15041098151E+02  0.56420251458E+02 -0.30975765929E+02  0.66098241149E+02  0.00000000000E+00 0.  1.
         21    1    1    2  504  503 -0.11765235853E+03 -0.64681805412E+02 -0.97173781698E+03  0.98096900989E+03  0.00000000000E+00 0. -1.
         21    1    1    2  505  502  0.47948374516E+02 -0.28311770838E+02 -0.89999039315E+03  0.90171132340E+03  0.00000000000E+00 0. -1.
         21    1    1    2  506  505  0.54662885864E+02  0.36573324793E+02 -0.15650283393E+03  0.16976093840E+03  0.00000000000E+00 0.  1.
<scales pt_clust_3="57.81923" pt_clust_4="14000.00000" pt_clust_5="55.68306" pt_clust_6="98.85725"></scales>
<clustering>
<clus scale="   55.683">  2  5  1 -1</clus>
<clus scale="   57.819">  1  3  2 -1</clus>
<clus scale="   98.857">  1  6  2 -1</clus>
<clus scale="   57.819">  1  3  2 -1</clus>
</clustering>
</event>
<event>
 6    0  0.2036847E+002  0.1496213E+03  0.7546771E-02  0.1200939E+00
         21   -1    0    0  504  501  0.00000000000E+00  0.00000000000E+00  0.11710687360E+04  0.11710687360E+04  0.00000000000E+00 0.  1.
         21   -1    0    0  503  502 -0.00000000000E+00 -0.00000000000E+00 -0.27031219726E+03  0.27031219726E+03  0.00000000000E+00 0.  1.
         21    1    1    2  503  505  0.60701116457E+01 -0.41937417214E+02 -0.13197444218E+03  0.13861041305E+03  0.00000000000E+00 0.  1.
         21    1    1    2  504  502  0.30979647602E+02  0.48412410819E+02  0.13962773150E+03  0.15099471346E+03  0.00000000000E+00 0.  1.
         21    1    1    2  505  506  0.17555129192E+02 -0.94626581958E+02 -0.10837724854E+03  0.14494136944E+03  0.00000000000E+00 0.  1.
         21    1    1    2  506  501 -0.54604888440E+02  0.88151588353E+02  0.10014804980E+04  0.10068344373E+04  0.00000000000E+00 0.  1.
<scales pt_clust_3="38.83194" pt_clust_4="57.47608" pt_clust_5="38.83194" pt_clust_6="137.70158"></scales>
<clustering>
<clus scale="   38.832">  3  5 -1 -1</clus>
<clus scale="   57.476">  1  4  2 -1</clus>
<clus scale="  137.702">  1  6  2 -1</clus>
<clus scale="   57.476">  1  3  2 -1</clus>
</clustering>
</event>
<event>
 6    0  0.2036847E+002  0.1006324E+03  0.7546771E-02  0.1278972E+00
         21   -1    0    0  505  501  0.00000000000E+00  0.00000000000E+00  0.31324373454E+03  0.31324373454E+03  0.00000000000E+00 0.  1.
         21   -1    0    0  504  502 -0.00000000000E+00 -0.00000000000E+00 -0.28831559550E+03  0.28831559550E+03  0.00000000000E+00 0.  1.
         21    1    1    2  503  501  0.11097157114E+02 -0.11141527098E+03  0.23288600531E+03  0.25840356223E+03  0.00000000000E+00 0.  1.
         21    1    1    2  504  503 -0.27843168807E+02  0.81385231529E+02 -0.17791246839E+03  0.19761488904E+03  0.00000000000E+00 0.  1.
         21    1    1    2  505  506  0.47001236443E+02  0.26202337591E+02  0.41376903021E+02  0.67880238848E+02  0.00000000000E+00 0. -1.
         21    1    1    2  506  502 -0.30255224749E+02  0.38277018627E+01 -0.71422300903E+02  0.77660639918E+02  0.00000000000E+00 0.  1.
<scales pt_clust_3="100.63237" pt_clust_4="14000.00000" pt_clust_5="52.30092" pt_clust_6="30.49639"></scales>
<clustering>
<clus scale="   30.496">  2  6  1 -1</clus>
<clus scale="   52.301">  1  5  2 -1</clus>
<clus scale="  100.632">  1  3  2 -1</clus>
<clus scale="   52.301">  1  3  2 -1</clus>
</clustering>
</event>
<event>
 6    0  0.2036847E+002  0.1223275E+03  0.7546771E-02  0.1239306E+00
         21   -1    0    0  505  501  0.00000000000E+00  0.00000000000E+00  0.13259730216E+04  0.13259730216E+04  0.00000000000E+00 0. -1.
         21   -1    0    0  503  502 -0.00000000000E+00 -0.00000000000E+00 -0.21071902551E+03  0.21071902551E+03  0.00000000000E+00 0.  1.
         21    1    1    2  503  506 -0.16735566059E+02 -0.45526496580E+02  0.56433985791E+00  0.48508345072E+02  0.00000000000E+00 0.  1.
         21    1    1    2  504  501  0.70063340940E+02  0.27276999232E+02  0.77897155377E+03  0.78259158443E+03  0.00000000000E+00 0. -1.
         21    1    1    2  505  502 -0.10712299751E+03  0.76733126721E+02 -0.15787709186E+03  0.20564164332E+03  0.00000000000E+00 0.  1.
         21    1    1    2  506  504  0.53795222631E+02 -0.58483629373E+02  0.49359519435E+03  0.49995047432E+03  0.00000000000E+00 0. -1.
<scales pt_clust_3="48.50506" pt_clust_4="74.87540" pt_clust_5="14000.00000" pt_clust_6="122.32748"></scales>
<clustering>
<clus scale="   48.505">  2  3  1 -1</clus>
<clus scale="   74.875">  1  4  2 -1</clus>
<clus scale="  122.327">  1  6  2 -1</clus>
<clus scale="   74.875">  1  3  2 -1</clus>
</clustering>
</event>
<event>
 6    0  0.2036847E+002  0.1380118E+03  0.7546771E-02  0.1216030E+00
         21   -1    0    0  505  501  0.00000000000E+00  0.00000000000E+00  0.31245239639E+03  0.31245239639E+03  0.00000000000E+00 0. -1.
         21   -1    0    0  501  502 -0.00000000000E+00 -0.00000000000E+00 -0.18722295552E+03  0.18722295552E+03  0.00000000000E+00 0. -1.
         21    1    1    2  503  506 -0.59455017002E+02  0.51786242536E+02  0.12354335453E+03  0.14655945692E+03  0.00000000000E+00 0. -1.
         21    1    1    2  504  502  0.26251975661E+02 -0.39622758630E+02 -0.98832116123E+02  0.10966729870E+03  0.00000000000E+00 0. -1.
         21    1    1    2  505  503 -0.20410573034E+02  0.43966056623E+02  0.14575797189E+03  0.15360661443E+03  0.00000000000E+00 0. -1.
         21    1    1    2  506  504  0.53613614376E+02 -0.56129540529E+02 -0.45239769429E+02  0.89841981860E+02  0.00000000000E+00 0. -1.
<scales pt_clust_3="132.57626" pt_clust_4="46.29619" pt_clust_5="35.32220" pt_clust_6="46.29619"></scales>
<clustering>
<clus scale="   35.322">  3  5 -1 -1</clus>
<clus scale="   46.296">  4  6 -1 -1</clus>
<clus scale="  132.576">  1  3  2 -1</clus>
<clus scale="  132.576">  1  3  2 -1</clus>
</clustering>
</event>
<event>
 6    0  0.2036847E+002  0.9946364E+02  0.7546771E-02  0.1281428E+00
         21   -1    0    0  505  501  0.00000000000E+00  0.00000000000E+00  0.31489407331E+03  0.31489407331E+03  0.00000000000E+00 0. -1.
         21   -1    0    0  503  502 -0.00000000000E+00 -0.00000000000E+00 -0.88425385167E+02  0.88425385167E+02  0.00000000000E+00 0.  1.
         21    1    1    2  503  506 -0.44561749005E+02 -0.16182320236E+02  0.13897336561E+02  0.49403976824E+02  0.00000000000E+00 0.  1.
         21    1    1    2  504  501  0.39389253360E+02  0.18471205099E+02  0.97189971010E+02  0.10648281159E+03  0.00000000000E+00 0. -1.
         21    1    1    2  505  502 -0.64124967184E+02  0.60578286392E+02 -0.12375352712E+02  0.89077997021E+02  0.00000000000E+00 0.  1.
         21    1    1    2  506  504  0.69297462829E+02 -0.62867171255E+02  0.12775673328E+03  0.15835467305E+03  0.00000000000E+00 0. -1.
<scales pt_clust_3="40.97654" pt_clust_4="43.50516" pt_clust_5="99.46364" pt_clust_6="14000.00000"></scales>
<clustering>
<clus scale="   43.505">  1  4  2 -1</clus>
<clus scale="   40.977">  2  3  1 -1</clus>
<clus scale="   99.464">  2  5  1 -1</clus>
<clus scale="   43.505">  1  3  2 -1</clus>
</clustering>
</event>
<event>
 6    0  0.2036847E+002  0.8582164E+02  0.7546771E-02  0.1313298E+00
         21   -1    0    0  503  501  0.00000000000E+00  0.00000000000E+00  0.80926126881E+02  0.80926126881E+02  0.00000000000E+00 0.  1.
         21   -1    0    0  506  502 -0.00000000000E+00 -0.00000000000E+00 -0.47872908867E+03  0.47872908867E+03  0.00000000000E+00 0.  1.
         21    1    1    2  503  504 -0.25379678575E+02  0.39767325612E+02  0.31232305490E+02  0.56577603140E+02  0.00000000000E+00 0.  1.
         21    1    1    2  504  502  0.58336222775E+02 -0.37861972514E+02 -0.16629273439E+03  0.18024959740E+03  0.00000000000E+00 0.  1.
         21    1    1    2  505  501 -0.35528648952E+01  0.71026503586E+02 -0.30042974740E+02  0.77200825072E+02  0.00000000000E+00 0.  1.
         21    1    1    2  506  505 -0.29403679305E+02 -0.72931856684E+02 -0.23269955815E+03  0.24562718994E+03  0.00000000000E+00 0.  1.
<scales pt_clust_3="47.17593" pt_clust_4="61.56237" pt_clust_5="85.82164" pt_clust_6="14000.00000"></scales>
<clustering>
<clus scale="   47.176">  1  3  2 -1</clus>
<clus scale="   61.562">  2  4  1 -1</clus>
<clus scale="   85.822">  1  5  2 -1</clus>
<clus scale="   47.176">  1  3  2 -1</clus>
</clustering>
</event>
<event>
 6    0  0.2036847E+002  0.1243048E+03  0.7546771E-02  0.1236160E+00
         21   -1    0    0  506  501  0.00000000000E+00  0.00000000000E+00  0.13223173642E+04  0.13223173642E+04  0.00000000000E+00 0.  1.
         21   -1    0    0  505  502 -0.00000000000E+00 -0.00000000000E+00 -0.10057026333E+04  0.10057026333E+04  0.00000000000E+00 0.  1.
         21    1    1    2  503  504  0.58678381133E+02 -0.40146520699E+01  0.41353595212E+03  0.41769756229E+03  0.00000000000E+00 0. -1.
         21    1    1    2  504  502  0.18583063861E+02 -0.26705445802E+02 -0.64042207110E+02  0.71832551043E+02  0.00000000000E+00 0. -1.
         21    1    1    2  505  501 -0.13262641997E+03  0.26887474220E+02 -0.92992955740E+03  0.93972426023E+03  0.00000000000E+00 0.  1.
         21    1    1    2  506  503  0.55364974980E+02  0.38326236513E+01  0.89705054334E+03  0.89876562393E+03  0.00000000000E+00 0.  1.
<scales pt_clust_3="47.89656" pt_clust_4="32.53477" pt_clust_5="114.10189" pt_clust_6="47.89656"></scales>
<clustering>
<clus scale="   32.535">  2  4  1 -1</clus>
<clus scale="   47.897">  3  6 -1 -1</clus>
<clus scale="  114.102">  2  5  1 -1</clus>
<clus scale="  124.305">  1  3  2 -1</clus>
</clustering>
</event>
<event>
 6    0  0.2036847E+002  0.8944299E+02  0.7546771E-02  0.1304206E+00
         21   -1    0    0  506  501  0.00000000000E+00  0.00000000000E+00  0.10717134777E+03  0.10717134777E+03  0.00000000000E+00 0.  1.
         21   -1    0    0  504  502 -0.00000000000E+00 -0.00000000000E+00 -0.38011305065E+03  0.38011305065E+03  0.00000000000E+00 0.  1.
         21    1    1    2  503  505  0.60758737996E+02  0.36693864668E+02  0.37346720965E+02  0.80204996814E+02  0.00000000000E+00 0.  1.
         21    1    1    2  504  503 -0.18341588700E+02 -0.32738526038E+02 -0.13411791672E+03  0.13926895041E+03  0.00000000000E+00 0.  1.
         21    1    1    2  505  501  0.40316786779E+02 -0.40726879850E+02  0.12398129723E+02  0.58633059438E+02  0.00000000000E+00 0.  1.
         21    1    1    2  506  502 -0.82733936075E+02  0.36771541219E+02 -0.18856863684E+03  0.20917739176E+03  0.00000000000E+00 0.  1.
<scales pt_clust_3="14000.00000" pt_clust_4="37.52632" pt_clust_5="58.39196" pt_clust_6="89.44299"></scales>
<clustering>
<clus scale="   37.526">  2  4  1 -1</clus>
<clus scale="   58.392">  1  5  2 -1</clus>
<clus scale="   89.443">  2  6  1 -1</clus>
<clus scale="   58.392">  1  3  2 -1</clus>
</clustering>
</event>
<event>
 6    0  0.2036847E+002  0.6454350E+02  0.7546771E-02  0.1379697E+00
         21   -1    0    0  504  501  0.00000000000E+00  0.00000000000E+00  0.13185345961E+02  0.13185345961E+02  0.00000000000E+00 0. -1.
         21   -1    0    0  506  502 -0.00000000000E+00 -0.00000000000E+00 -0.27914107657E+04  0.27914107657E+04  0.00000000000E+00 0. -1.
         21    1    1    2  503  505 -0.83405428874E+02  0.14833011951E+02 -0.10845462369E+04  0.10878497248E+04  0.00000000000E+00 0. -1.
         21    1    1    2  504  503 -0.43242879977E+02 -0.47874577997E+02 -0.16647209846E+03  0.17853537872E+03  0.00000000000E+00 0. -1.
         21    1    1    2  505  502  0.51873210122E+02  0.22885325860E+02 -0.12387460297E+04  0.12400428598E+04  0.00000000000E+00 0. -1.
         21    1    1    2  506  501  0.74775098728E+02  0.10156240187E+02 -0.28846105461E+03  0.29816814825E+03  0.00000000000E+00 0. -1.
<scales pt_clust_3="56.30481" pt_clust_4="14000.00000" pt_clust_5="56.69716" pt_clust_6="64.54350"></scales>
<clustering>
<clus scale="   56.697">  2  5  1 -1</clus>
<clus scale="   56.305">  2  3  1 -1</clus>
<clus scale="   64.544">  2  6  1 -1</clus>
<clus scale="   64.544">  1  3  2 -1</clus>
</clustering>
</event>
<event>
 6    0  0.2036847E+002  0.1917302E+03  0.7546771E-02  0.1156910E+00
         21   -1    0    0  503  501  0.00000000000E+00  0.00000000000E+00  0.35042126982E+03  0.35042126982E+03  0.00000000000E+00 0. -1.
         21   -1    0    0  504  502 -0.00000000000E+00 -0.00000000000E+00 -0.19307582342E+03  0.19307582342E+03  0.00000000000E+00 0. -1.
         21    1    1    2  503  505 -0.69023224474E+02  0.15531606930E+03  0.23349375246E+03  0.28880204178E+03  0.00000000000E+00 0. -1.
         21    1    1    2  504  501 -0.31162717063E+02 -0.34897696055E+01  0.20854787114E+02  0.37659203022E+02  0.00000000000E+00 0.  1.
         21    1    1    2  505  506  0.10496296563E+03 -0.11943974891E+03 -0.92597605814E+02  0.18400378903E+03  0.00000000000E+00 0. -1.
         21    1    1    2  506  502 -0.47770240972E+01 -0.32386550782E+02 -0.44054873560E+01  0.33032059421E+02  0.00000000000E+00 0. -1.
<scales pt_clust_3="179.31525" pt_clust_4="31.35751" pt_clust_5="30.79624" pt_clust_6="30.79624"></scales>
<clustering>
<clus scale="   30.796">  5  6 -1 -1</clus>
<clus scale="   31.358">  1  4  2 -1</clus>
<clus scale="  179.315">  1  3  2 -1</clus>
<clus scale="   31.358">  1  3  2 -1</clus>
</clustering>
</event>
<event>
 6    0  0.2036847E+002  0.7988889E+02  0.7546771E-02  0.1329367E+00
         21   -1    0    0  505  501  0.00000000000E+00  0.00000000000E+00  0.14381850291E+04  0.14381850291E+04  0.00000000000E+00 0. -1.
         21   -1    0    0  506  502 -0.00000000000E+00 -0.00000000000E+00 -0.18559901660E+03  0.18559901660E+03  0.00000000000E+00 0. -1.
         21    1    1    2  503  501 -0.10761565251E+03 -0.51092694249E+02  0.12934965482E+04  0.12989707127E+04  0.00000000000E+00 0. -1.
         21    1    1    2  504  502  0.43388484180E+02  0.56447909805E+02 -0.25177394094E+02  0.75517072601E+02  0.00000000000E+00 0. -1.
         21    1    1    2  505  504  0.25526839189E+02  0.40973727968E+02  0.10430452685E+03  0.11493433005E+03  0.00000000000E+00 0. -1.
         21    1    1    2  506  503  0.38700329144E+02 -0.46328943525E+02 -0.12003766848E+03  0.13436193039E+03  0.00000000000E+00 0. -1.
<scales pt_clust_3="14000.00000" pt_clust_4="79.88889" pt_clust_5="48.27490" pt_clust_6="60.28548"></scales>
<clustering>
<clus scale="   48.275">  1  5  2 -1</clus>
<clus scale="   60.285">  2  6  1 -1</clus>
<clus scale="   79.889">  2  4  1 -1</clus>
<clus scale="   48.275">  1  3  2 -1</clus>
</clustering>
</event>
<event>
 6    0  0.2036847E+002  0.7272636E+02  0.7546771E-02  0.1351060E+00
         21   -1    0    0  506  501  0.00000000000E+00  0.00000000000E+00  0.22616236629E+03  0.22616236629E+03  0.00000000000E+00 0. -1.
         21   -1    0    0  504  502 -0.00000000000E+00 -0.00000000000E+00 -0.42565291798E+03  0.42565291798E+03  0.00000000000E+00 0. -1.
         21    1    1    2  503  505 -0.54260989822E+02 -0.52098039069E+02 -0.14468478924E+03  0.16307099352E+03  0.00000000000E+00 0. -1.
         21    1    1    2  504  501  0.29311235413E+02  0.24989933351E+02  0.58740801613E+02  0.70243341780E+02  0.00000000000E+00 0. -1.
         21    1    1    2  505  502  0.79855477517E+02  0.35169317213E+00 -0.25351055448E+03  0.26579056080E+03  0.00000000000E+00 0. -1.
         21    1    1    2  506  503 -0.54905723108E+02  0.26756412546E+02  0.13996399041E+03  0.15271038817E+03  0.00000000000E+00 0. -1.
<scales pt_clust_3="72.72636" pt_clust_4="38.51812" pt_clust_5="14000.00000" pt_clust_6="56.94842"></scales>
<clustering>
<clus scale="   38.518">  1  4  2 -1</clus>
<clus scale="   56.948">  1  6  2 -1</clus>
<clus scale="   72.726">  1  3  2 -1</clus>
<clus scale="   38.518">  1  3  2 -1</clus>
</clustering>
</event>
<event>
 6    0  0.2036847E+002  0.1138354E+03  0.7546771E-02  0.1253628E+00
         21   -1    0    0  506  501  0.00000000000E+00  0.00000000000E+00  0.78305550932E+03  0.78305550932E+03  0.00000000000E+00 0. -1.
         21   -1    0    0  503  502 -0.00000000000E+00 -0.00000000000E+00 -0.50687263525E+03  0.50687263525E+03  0.00000000000E+00 0. -1.
         21    1    1    2  503  504  0.42650055473E+02  0.96836810096E+01 -0.39228663885E+03  0.39471712393E+03  0.00000000000E+00 0. -1.
         21    1    1    2  504  501  0.76040225267E+02 -0.13022174718E+02 -0.88580493593E+02  0.11746572580E+03  0.00000000000E+00 0. -1.
         21    1    1    2  505  502 -0.10425597545E+03 -0.55034553250E+02  0.48361998438E+03  0.49778147792E+03  0.00000000000E+00 0. -1.
         21    1    1    2  506  505 -0.14434305294E+02  0.58373046958E+02  0.27343002213E+03  0.27996381691E+03  0.00000000000E+00 0. -1.
<scales pt_clust_3="43.73558" pt_clust_4="14000.00000" pt_clust_5="113.83538" pt_clust_6="60.12028"></scales>
<clustering>
<clus scale="   43.736">  2  3  1 -1</clus>
<clus scale="   60.120">  1  6  2 -1</clus>
<clus scale="  113.835">  1  5  2 -1</clus>
<clus scale="   60.120">  1  3  2 -1</clus>
</clustering>
</event>
<event>
 6    0  0.2036847E+002  0.1151413E+03  0.7546771E-02  0.1251335E+00
         21   -1    0    0  505  501  0.00000000000E+00  0.00000000000E+00  0.70342461426E+03  0.70342461426E+03  0.00000000000E+00 0.  1.
         21   -1    0    0  503  502 -0.00000000000E+00 -0.00000000000E+00 -0.13372119234E+03  0.13372119234E+03  0.00000000000E+00 0. -1.
         21    1    1    2  503  501  0.93383948384E+02 -0.60317069182E+02 -0.87937898616E+02  0.14174549257E+03  0.00000000000E+00 0. -1.
         21    1    1    2  504  502 -0.27814152408E+02 -0.22824746199E+02  0.96449014375E+01  0.37250774985E+02  0.00000000000E+00 0. -1.
         21    1    1    2  505  506 -0.34587586296E+02  0.24401686168E+02  0.36596244150E+03  0.36840229642E+03  0.00000000000E+00 0.  1.
         21    1    1    2  506  504 -0.30982209680E+02  0.58740129212E+02  0.28203397759E+03  0.28974724263E+03  0.00000000000E+00 0.  1.
<scales pt_clust_3="105.86794" pt_clust_4="35.98050" pt_clust_5="36.24598" pt_clust_6="36.24598"></scales>
<clustering>
<clus scale="   35.980">  2  4  1 -1</clus>
<clus scale="   36.246">  5  6 -1 -1</clus>
<clus scale="  105.868">  2  3  1 -1</clus>
<clus scale="  115.141">  1  3  2 -1</clus>
</clustering>
</event>
<event>
 6    0  0.2036847E+002  0.2930026E+03  0.7546771E-02  0.1088792E+00
         21   -1    0    0  502  501  0.00000000000E+00  0.00000000000E+00  0.75470064965E+02  0.75470064965E+02  0.00000000000E+00 0.  1.
         21   -1    0    0  504  502 -0.00000000000E+00 -0.00000000000E+00 -0.22625052722E+04  0.22625052722E+04  0.00000000000E+00 0. -1.
         21    1    1    2  503  506 -0.29429454137E+02  0.12146237125E+02 -0.13675118092E+03  0.14040836631E+03  0.00000000000E+00 0.  1.
         21    1    1    2  504  503 -0.88330630917E+02  0.23308693195E+03 -0.17849768615E+04  0.18022969273E+04  0.00000000000E+00 0. -1.
         21    1    1    2  505  501  0.11406567731E+03 -0.14285813233E+03 -0.21150271825E+03  0.27955826681E+03  0.00000000000E+00 0.  1.
         21    1    1    2  506  505  0.36944077412E+01 -0.10237503674E+03 -0.53804446554E+02  0.11571177669E+03  0.00000000000E+00 0.  1.
<scales pt_clust_3="30.02584" pt_clust_4="284.71949" pt_clust_5="81.46735" pt_clust_6="81.46735"></scales>
<clustering>
<clus scale="   30.026">  3  4 -1 -1</clus>
<clus scale="   81.467">  5  6 -1 -1</clus>
<clus scale="  284.719">  2  3  1 -1</clus>
<clus scale="  293.003">  1  3  2 -1</clus>
</clustering>
</event>
<event>
 6    0  0.2036847E+002  0.2265174E+03  0.7546771E-02  0.1129115E+00
         21   -1    0    0  505  501  0.00000000000E+00  0.00000000000E+00  0.21231470410E+03  0.21231470410E+03  0.00000000000E+00 0. -1.
         21   -1    0    0  506  502 -0.00000000000E+00 -0.00000000000E+00 -0.67881002585E+03  0.67881002585E+03  0.00000000000E+00 0. -1.
         21    1    1    2  503  504 -0.58931584255E+02 -0.55699656110E+02 -0.50318422564E+00  0.81090298483E+02  0.00000000000E+00 0. -1.
         21    1    1    2  504  501 -0.80912390872E+02 -0.12212712063E+03  0.10744453903E+03  0.18167602362E+03  0.00000000000E+00 0. -1.
         21    1    1    2  505  502  0.59150156514E+02  0.81555578292E+02 -0.11437197652E+03  0.15241719843E+03  0.00000000000E+00 0. -1.
         21    1    1    2  506  503  0.80693818614E+02  0.96271198449E+02 -0.45906470003E+03  0.47594120942E+03  0.00000000000E+00 0. -1.
<scales pt_clust_3="59.66262" pt_clust_4="59.66262" pt_clust_5="100.74747" pt_clust_6="211.84697"></scales>
<clustering>
<clus scale="   59.663">  3  4 -1 -1</clus>
<clus scale="  100.747">  2  5  1 -1</clus>
<clus scale="  211.847">  2  6  1 -1</clus>
<clus scale="  226.517">  1  3  2 -1</clus>
</clustering>
</event>
<event>
 6    0  0.2036847E+002  0.8535666E+02  0.7546771E-02  0.1314502E+00
         21   -1    0    0  505  501  0.00000000000E+00  0.00000000000E+00  0.11574718581E+04  0.11574718581E+04  0.00000000000E+00 0. -1.
         21   -1    0    0  506  502 -0.00000000000E+00 -0.00000000000E+00 -0.88400301509E+02  0.88400301509E+02  0.00000000000E+00 0. -1.
         21    1    1    2  503  504  0.48923180270E+02  0.25491170263E+02  0.16733180377E+03  0.17619083371E+03  0.00000000000E+00 0. -1.
         21    1    1    2  504  501 -0.39689226436E+02 -0.13892865304E+02  0.83801252443E+03  0.83906688500E+03  0.00000000000E+00 0. -1.
         21    1    1    2  505  502 -0.53629459122E+02  0.62365880766E+02  0.10630724241E+03  0.13441298955E+03  0.00000000000E+00 0. -1.
         21    1    1    2  506  503  0.44395505288E+02 -0.73964185725E+02 -0.42580013984E+02  0.96201451396E+02  0.00000000000E+00 0. -1.
<scales pt_clust_3="32.91275" pt_clust_4="42.05052" pt_clust_5="14000.00000" pt_clust_6="85.35666"></scales>
<clustering>
<clus scale="   42.051">  1  4  2 -1</clus>
<clus scale="   32.913">  1  3  2 -1</clus>
<clus scale="   85.357">  2  6  1 -1</clus>
<clus scale="   42.051">  1  3  2 -1</clus>
</clustering>
</event>
<event>
 6    0  0.2036847E+002  0.2242697E+03  0.7546771E-02  0.1130739E+00
         21   -1    0    0  506  501  0.00000000000E+00  0.00000000000E+00  0.14680470685E+04  0.14680470685E+04  0.00000000000E+00 0.  1.
         21   -1    0    0  504  502 -0.00000000000E+00 -0.00000000000E+00 -0.61187848558E+02  0.61187848558E+02  0.00000000000E+00 0. -1.
         21    1    1    2  503  502  0.35586002262E+02 -0.42458880708E+02  0.16416363706E+03  0.17325940044E+03  0.00000000000E+00 0. -1.
         21    1    1    2  504  505 -0.68807880199E+02  0.50234797042E+02  0.75963294201E+02  0.11414237284E+03  0.00000000000E+00 0. -1.
         21    1    1    2  505  501 -0.54315435656E+02  0.12005033539E+03  0.10399001075E+03  0.16785759415E+03  0.00000000000E+00 0. -1.
         21    1    1    2  506  503  0.87537313593E+02 -0.12782625172E+03  0.10627422779E+04  0.10739755496E+04  0.00000000000E+00 0.  1.
<scales pt_clust_3="46.85896" pt_clust_4="43.92715" pt_clust_5="217.11930" pt_clust_6="46.85896"></scales>
<clustering>
<clus scale="   43.927">  4  5 -1 -1</clus>
<clus scale="   46.859">  3  6 -1 -1</clus>
<clus scale="  217.119">  2  4  1 -1</clus>
<clus scale="  224.270">  1  3  2 -1</clus>
</clustering>
</event>
<event>
 6    0  0.2036847E+002  0.1505984E+03  0.7546771E-02  0.1199740E+00
         21   -1    0    0  504  501  0.00000000000E+00  0.00000000000E+00  0.33731921122E+03  0.33731921122E+03  0.00000000000E+00 0. -1.
         21   -1    0    0  503  502 -0.00000000000E+00 -0.00000000000E+00 -0.18628514158E+03  0.18628514158E+03  0.00000000000E+00 0. -1.
         21    1    1    2  503  501 -0.24429563600E+02  0.40505765810E+02  0.43507641887E+00  0.47304438830E+02  0.00000000000E+00 0. -1.
         21    1    1    2  504  505  0.42868444481E+02 -0.26028473292E+02  0.93295073547E+02  0.10592051596E+03  0.00000000000E+00 0.  1.
         21    1    1    2  505  506  0.10354247843E+03  0.71713574031E+01  0.17243017045E+03  0.20125763809E+03  0.00000000000E+00 0. -1.
         21    1    1    2  506  502 -0.12198135931E+03 -0.21648649922E+02 -0.11512625078E+03  0.16912175992E+03  0.00000000000E+00 0. -1.
<scales pt_clust_3="47.30244" pt_clust_4="30.74913" pt_clust_5="30.74913" pt_clust_6="143.95526"></scales>
<clustering>
<clus scale="   30.749">  4  5 -1 -1</clus>
<clus scale="   47.302">  2  3  1 -1</clus>
<clus scale="  143.955">  2  6  1 -1</clus>
<clus scale="  150.598">  1  3  2 -1</clus>
</clustering>
</event>
<event>
 6    0  0.2036847E+002  0.1428809E+03  0.7546771E-02  0.1209504E+00
         21   -1    0    0  505  501  0.00000000000E+00  0.00000000000E+00  0.46541396411E+03  0.46541396411E+03  0.00000000000E+00 0. -1.
         21   -1    0    0  504  502 -0.00000000000E+00 -0.00000000000E+00 -0.71306026563E+03  0.71306026563E+03  0.00000000000E+00 0. -1.
         21    1    1    2  503  501 -0.26565900638E+01  0.79586475927E+02  0.33019661031E+03  0.33966287121E+03  0.00000000000E+00 0. -1.
         21    1    1    2  504  506  0.76803074738E+02 -0.97807137192E+02 -0.33924540063E+03  0.36132034294E+03  0.00000000000E+00 0. -1.
         21    1    1    2  505  502 -0.86677146406E+02 -0.36056129762E+02 -0.34491609250E+03  0.35746340102E+03  0.00000000000E+00 0. -1.
         21    1    1    2  506  503  0.12530661731E+02  0.54276791027E+02  0.10631858130E+03  0.12002761456E+03  0.00000000000E+00 0. -1.
<scales pt_clust_3="43.88381" pt_clust_4="132.89841" pt_clust_5="93.87743" pt_clust_6="43.88381"></scales>
<clustering>
<clus scale="   43.884">  3  6 -1 -1</clus>
<clus scale="   93.877">  2  5  1 -1</clus>
<clus scale="  132.898">  2  4  1 -1</clus>
<clus scale="  142.881">  1  3  2 -1</clus>
</clustering>
</event>
<event>
 6    0  0.2036847E+002  0.1514789E+03  0.7546771E-02  0.1198667E+00
         21   -1    0    0  505  501  0.00000000000E+00  0.00000000000E+00  0.14287332141E+03  0.14287332141E+03  0.00000000000E+00 0.  1.
         21   -1    0    0  503  502 -0.00000000000E+00 -0.00000000000E+00 -0.34404861487E+03  0.34404861487E+03  0.00000000000E+00 0.  1.
         21    1    1    2  503  504 -0.34067005057E+02 -0.33773834131E+02 -0.50299595959E+02  0.69507424489E+02  0.00000000000E+00 0.  1.
         21    1    1    2  504  506 -0.11252310900E+03 -0.41742904422E+01 -0.19271983185E+03  0.22320351329E+03  0.00000000000E+00 0.  1.
         21    1    1    2  505  502  0.22418097541E+02 -0.20183914032E+02 -0.27274914926E+02  0.40667953811E+02  0.00000000000E+00 0.  1.
         21    1    1    2  506  501  0.12417201651E+03  0.58132038605E+02  0.69119049272E+02  0.15354304468E+03  0.00000000000E+00 0.  1.
<scales pt_clust_3="42.29199" pt_clust_4="42.29199" pt_clust_5="30.16557" pt_clust_6="138.75640"></scales>
<clustering>
<clus scale="   30.166">  2  5  1 -1</clus>
<clus scale="   42.292">  3  4 -1 -1</clus>
<clus scale="  138.756">  1  6  2 -1</clus>
<clus scale="  138.756">  1  3  2 -1</clus>
</clustering>
</event>
<event>
 6    0  0.2036847E+002  0.1250606E+03  0.7546771E-02  0.1234975E+00
         21   -1    0    0  502  501  0.00000000000E+00  0.00000000000E+00  0.19019740086E+03  0.19019740086E+03  0.00000000000E+00 0.  1.
         21   -1    0    0  504  502 -0.00000000000E+00 -0.00000000000E+00 -0.77443949326E+03  0.77443949326E+03  0.00000000000E+00 0. -1.
         21    1    1    2  503  506  0.92003072127E+02  0.11484114811E+02 -0.34492702866E+03  0.35717097485E+03  0.00000000000E+00 0. -1.
         21    1    1    2  504  503  0.22589629185E+02 -0.57248283622E+02 -0.39867241481E+03  0.40339478387E+03  0.00000000000E+00 0. -1.
         21    1    1    2  505  501 -0.57101877785E+02  0.21885709958E+02  0.10459444430E+03  0.12115942607E+03  0.00000000000E+00 0.  1.
         21    1    1    2  506  505 -0.57490823527E+02  0.23878458853E+02  0.54762906767E+02  0.82911709333E+02  0.00000000000E+00 0.  1.
<scales pt_clust_3="120.89551" pt_clust_4="61.54395" pt_clust_5="31.72243" pt_clust_6="31.72243"></scales>
<clustering>
<clus scale="   31.722">  5  6 -1 -1</clus>
<clus scale="   61.544">  2  4  1 -1</clus>
<clus scale="  120.896">  2  3  1 -1</clus>
<clus scale="  125.061">  1  3  2 -1</clus>
</clustering>
</event>
<event>
 6    0  0.2036847E+002  0.1437845E+03  0.7546771E-02  0.1208325E+00
         21   -1    0    0  502  501  0.00000000000E+00  0.00000000000E+00  0.12237609190E+03  0.12237609190E+03  0.00000000000E+00 0.  1.
         21   -1    0    0  503  502 -0.00000000000E+00 -0.00000000000E+00 -0.10344617294E+04  0.10344617294E+04  0.00000000000E+00 0. -1.
         21    1    1    2  503  504 -0.13414923887E+02 -0.44217766975E+02 -0.39518309536E+03  0.39787542015E+03  0.00000000000E+00 0. -1.
         21    1    1    2  504  505  0.67232585142E+02 -0.10089573671E+03 -0.50234222776E+03  0.51676675975E+03  0.00000000000E+00 0. -1.
         21    1    1    2  505  506  0.25477401283E+02  0.15078197876E+03 -0.41167614158E+02  0.15836374443E+03  0.00000000000E+00 0.  1.
         21    1    1    2  506  501 -0.79295062538E+02 -0.56684750732E+01  0.26607299762E+02  0.83831896992E+02  0.00000000000E+00 0.  1.
<scales pt_clust_3="46.20791" pt_clust_4="143.78455" pt_clust_5="14000.00000" pt_clust_6="80.26231"></scales>
<clustering>
<clus scale="   46.208">  2  3  1 -1</clus>
<clus scale="   80.262">  1  6  2 -1</clus>
<clus scale="  143.785">  2  4  1 -1</clus>
<clus scale="   80.262">  1  3  2 -1</clus>
</clustering>
</event>
<event>
 6    0  0.2036847E+002  0.1659941E+03  0.7546771E-02  0.1182091E+00
         21   -1    0    0  504  501  0.00000000000E+00  0.00000000000E+00  0.10108369853E+04  0.10108369853E+04  0.00000000000E+00 0. -1.
         21   -1    0    0  505  502 -0.00000000000E+00 -0.00000000000E+00 -0.25989159527E+03  0.25989159527E+03  0.00000000000E+00 0.  1.
         21    1    1    2  503  501 -0.77260796218E+02  0.26976351712E+02  0.49715826016E+03  0.50384847904E+03  0.00000000000E+00 0. -1.
         21    1    1    2  504  502  0.12190973402E+03  0.48601506007E+02 -0.13654700142E+03  0.18939158701E+03  0.00000000000E+00 0.  1.
         21    1    1    2  505  506  0.39714239334E+02 -0.60506983631E+02 -0.75059624861E+02  0.10427014510E+03  0.00000000000E+00 0.  1.
         21    1    1    2  506  503 -0.84363177132E+02 -0.15070874087E+02  0.46539375618E+03  0.47321836946E+03  0.00000000000E+00 0. -1.
<scales pt_clust_3="42.47371" pt_clust_4="160.20248" pt_clust_5="72.37621" pt_clust_6="42.47371"></scales>
<clustering>
<clus scale="   42.474">  3  6 -1 -1</clus>
<clus scale="   72.376">  2  5  1 -1</clus>
<clus scale="  160.202">  2  4  1 -1</clus>
<clus scale="  165.994">  1  3  2 -1</clus>
</clustering>
</event>
<event>
 6    0  0.2036847E+002  0.1554818E+03  0.7546771E-02  0.1193894E+00
         21   -1    0    0  506  501  0.00000000000E+00  0.00000000000E+00  0.98894094617E+02  0.98894094617E+02  0.00000000000E+00 0.  1.
         21   -1    0    0  503  502 -0.00000000000E+00 -0.00000000000E+00 -0.13282543524E+04  0.13282543524E+04  0.00000000000E+00 0.  1.
         21    1    1    2  503  504 -0.53899280031E+02 -0.16976006129E+02 -0.53580792500E+01  0.56762894440E+02  0.00000000000E+00 0. -1.
         21    1    1    2  504  501 -0.94935289649E+02  0.77441688130E+01  0.35264265453E+02  0.10156894107E+03  0.00000000000E+00 0.  1.
         21    1    1    2  505  502  0.85891846377E+02 -0.13186465944E+02 -0.80206764367E+03  0.80676130124E+03  0.00000000000E+00 0.  1.
         21    1    1    2  506  505  0.62942723304E+02  0.22418303260E+02 -0.45719880034E+03  0.46205531030E+03  0.00000000000E+00 0.  1.
<scales pt_clust_3="33.90490" pt_clust_4="33.90490" pt_clust_5="155.38216" pt_clust_6="38.28877"></scales>
<clustering>
<clus scale="   33.905">  3  4 -1 -1</clus>
<clus scale="   38.289">  5  6 -1 -1</clus>
<clus scale="  155.382">  2  5  1 -1</clus>
<clus scale="  155.482">  1  3  2 -1</clus>
</clustering>
</event>
<event>
 6    0  0.2036847E+002  0.9811064E+02  0.7546771E-02  0.1284320E+00
         21   -1    0    0  506  501  0.00000000000E+00  0.00000000000E+00  0.21383925108E+04  0.21383925108E+04  0.00000000000E+00 0. -1.
         21   -1    0    0  505  502 -0.00000000000E+00 -0.00000000000E+00 -0.66406013107E+03  0.66406013107E+03  0.00000000000E+00 0.  1.
         21    1    1    2  503  501  0.46289193076E+02 -0.79507226358E+01  0.17799431800E+04  0.17805627277E+04  0.00000000000E+00 0. -1.
         21    1    1    2  504  502 -0.33703133755E+02 -0.13399948429E+02 -0.69297861462E+02  0.78215429718E+02  0.00000000000E+00 0.  1.
         21    1    1    2  505  503  0.13313569047E+02 -0.82898369402E+02 -0.57873782811E+03  0.58479642992E+03  0.00000000000E+00 0.  1.
         21    1    1    2  506  504 -0.25899628368E+02  0.10424904047E+03  0.34242488925E+03  0.35887805445E+03  0.00000000000E+00 0.  1.
<scales pt_clust_3="46.95081" pt_clust_4="36.26927" pt_clust_5="98.11064" pt_clust_6="14000.00000"></scales>
<clustering>
<clus scale="   36.269">  2  4  1 -1</clus>
<clus scale="   46.951">  1  3  2 -1</clus>
<clus scale="   98.111">  2  5  1 -1</clus>
<clus scale="   46.951">  1  3  2 -1</clus>
</clustering>
</event>
<event>
 6    0  0.2036847E+002  0.9633530E+02  0.7546771E-02  0.1288197E+00
         21   -1    0    0  503  501  0.00000000000E+00  0.00000000000E+00  0.85100018357E+03  0.85100018357E+03  0.00000000000E+00 0. -1.
         21   -1    0    0  505  502 -0.00000000000E+00 -0.00000000000E+00 -0.64076860264E+02  0.64076860264E+02  0.00000000000E+00 0. -1.
         21    1    1    2  503  504  0.90879271305E+02  0.59427520550E+02  0.71357645559E+03  0.72179084930E+03  0.00000000000E+00 0. -1.
         21    1    1    2  504  502 -0.20065279947E+01 -0.45130331692E+02  0.29961297942E+02  0.54207493648E+02  0.00000000000E+00 0. -1.
         21    1    1    2  505  506 -0.61420355185E+02 -0.34065153020E+02 -0.14796914026E+02  0.71776342524E+02  0.00000000000E+00 0. -1.
         21    1    1    2  506  501 -0.27452388125E+02  0.19767964162E+02  0.58182483799E+02  0.67302358368E+02  0.00000000000E+00 0. -1.
<scales pt_clust_3="14000.00000" pt_clust_4="44.21149" pt_clust_5="96.33530" pt_clust_6="33.82907"></scales>
<clustering>
<clus scale="   33.829">  1  6  2 -1</clus>
<clus scale="   44.211">  2  4  1 -1</clus>
<clus scale="   96.335">  2  5  1 -1</clus>
<clus scale="   33.829">  1  3  2 -1</clus>
</clustering>
</event>
<event>
 6    0  0.2036847E+002  0.7243445E+02  0.7546771E-02  0.1352005E+00
         21   -1    0    0  503  501  0.00000000000E+00  0.00000000000E+00  0.94553251906E+03  0.94553251906E+03  0.00000000000E+00 0. -1.
         21   -1    0    0  504  502 -0.00000000000E+00 -0.00000000000E+00 -0.39509733476E+02  0.39509733476E+02  0.00000000000E+00 0. -1.
         21    1    1    2  503  505  0.15657021936E+01 -0.47289443763E+02  0.26748844094E+03  0.27164095595E+03  0.00000000000E+00 0. -1.
         21    1    1    2  504  506 -0.31727428188E+02 -0.23879606049E+02  0.31629408009E+01  0.39835530360E+02  0.00000000000E+00 0. -1.
         21    1    1    2  505  502  0.25803389072E+02  0.11884343232E+03  0.60447787232E+03  0.61658987538E+03  0.00000000000E+00 0. -1.
         21    1    1    2  506  501  0.43583369233E+01 -0.47674382505E+02  0.30893531527E+02  0.56975890851E+02  0.00000000000E+00 0. -1.
<scales pt_clust_3="49.65512" pt_clust_4="39.70976" pt_clust_5="14000.00000" pt_clust_6="72.43445"></scales>
<clustering>
<clus scale="   39.710">  2  4  1 -1</clus>
<clus scale="   49.655">  1  3  2 -1</clus>
<clus scale="   72.434">  2  6  1 -1</clus>
<clus scale="   49.655">  1  3  2 -1</clus>
</clustering>
</event>
<event>
 6    0  0.2036847E+002  0.1295714E+03  0.7546771E-02  0.1228093E+00
         21   -1    0    0  504  501  0.00000000000E+00  0.00000000000E+00  0.10303735711E+03  0.10303735711E+03  0.00000000000E+00 0.  1.
         21   -1    0    0  503  502 -0.00000000000E+00 -0.00000000000E+00 -0.38697357242E+03  0.38697357242E+03  0.00000000000E+00 0. -1.
         21    1    1    2  503  506 -0.84554931908E+01 -0.37543725919E+02 -0.69429387496E+02  0.79381777311E+02  0.00000000000E+00 0. -1.
         21    1    1    2  504  502 -0.97878721427E+02 -0.27003401342E+02 -0.25222720858E+03  0.27189702562E+03  0.00000000000E+00 0. -1.
         21    1    1    2  505  501  0.56653961420E+02  0.61343818567E+02  0.19769708801E+02  0.85811286012E+02  0.00000000000E+00 0. -1.
         21    1    1    2  506  505  0.49680253198E+02  0.32033086951E+01  0.17950671969E+02  0.52920840588E+02  0.00000000000E+00 0.  1.
<scales pt_clust_3="38.48411" pt_clust_4="120.15931" pt_clust_5="37.43430" pt_clust_6="37.43430"></scales>
<clustering>
<clus scale="   37.434">  5  6 -1 -1</clus>
<clus scale="   38.484">  2  3  1 -1</clus>
<clus scale="  120.159">  2  4  1 -1</clus>
<clus scale="  129.571">  1  3  2 -1</clus>
</clustering>
</event>
<event>
 6    0  0.2036847E+002  0.7867509E+02  0.7546771E-02  0.1332854E+00
         21   -1    0    0  506  501  0.00000000000E+00  0.00000000000E+00  0.27897590685E+03  0.27897590685E+03  0.00000000000E+00 0.  1.
         21   -1    0    0  503  502 -0.00000000000E+00 -0.00000000000E+00 -0.32455768975E+03  0.32455768975E+03  0.00000000000E+00 0.  1.
         21    1    1    2  503  504  0.73541104234E+02 -0.56923748593E+02 -0.12994970601E+03  0.15979841444E+03  0.00000000000E+00 0.  1.
         21    1    1    2  504  501 -0.20555697433E+02 -0.25559127148E+02  0.26621799805E+02  0.42243649255E+02  0.00000000000E+00 0.  1.
         21    1    1    2  505  502  0.52582032593E+01  0.79536518537E+02 -0.15855650958E+03  0.17746513238E+03  0.00000000000E+00 0.  1.
         21    1    1    2  506  505 -0.58243610061E+02  0.29463572041E+01  0.21630263289E+03  0.22402640052E+03  0.00000000000E+00 0.  1.
<scales pt_clust_3="14000.00000" pt_clust_4="32.79948" pt_clust_5="78.67509" pt_clust_6="77.38478"></scales>
<clustering>
<clus scale="   32.799">  1  4  2 -1</clus>
<clus scale="   78.675">  2  5  1 -1</clus>
<clus scale="   77.385">  1  6  2 -1</clus>
<clus scale="   32.799">  1  3  2 -1</clus>
</clustering>
</event>
<event>
 6    0  0.2036847E+002  0.4700180E+03  0.7546771E-02  0.1021915E+00
         21   -1    0    0  504  501  0.00000000000E+00  0.00000000000E+00  0.29784923165E+03  0.29784923165E+03  0.00000000000E+00 0. -1.
         21   -1    0    0  506  502 -0.00000000000E+00 -0.00000000000E+00 -0.74124768435E+03  0.74124768435E+03  0.00000000000E+00 0.  1.
         21    1    1    2  503  501 -0.22866561113E+00  0.39462104680E+03 -0.16920468727E+03  0.42936703303E+03  0.00000000000E+00 0.  1.
         21    1    1    2  504  505  0.85793251304E+01 -0.36382239676E+03 -0.11248705420E+03  0.38091164141E+03  0.00000000000E+00 0. -1.
         21    1    1    2  505  502 -0.44639391800E+01 -0.95697181081E+02 -0.83204120368E+02  0.12688893910E+03  0.00000000000E+00 0.  1.
         21    1    1    2  506  503 -0.38867203392E+01  0.64898531042E+02 -0.78502590865E+02  0.10192930246E+03  0.00000000000E+00 0.  1.
<scales pt_clust_3="40.06211" pt_clust_4="468.57912" pt_clust_5="46.99946" pt_clust_6="40.06211"></scales>
<clustering>
<clus scale="   40.062">  3  6 -1 -1</clus>
<clus scale="   46.999">  4  5 -1 -1</clus>
<clus scale="  468.579">  1  4  2 -1</clus>
<clus scale="  468.579">  1  3  2 -1</clus>
</clustering>
</event>
<event>
 6    0  0.2036847E+002  0.8728009E+02  0.7546771E-02  0.1309575E+00
         21   -1    0    0  504  501  0.00000000000E+00  0.00000000000E+00  0.12080099733E+03  0.12080099733E+03  0.00000000000E+00 0.  1.
         21   -1    0    0  505  502 -0.00000000000E+00 -0.00000000000E+00 -0.63257376836E+03  0.63257376836E+03  0.00000000000E+00 0.  1.
         21    1    1    2  503  501 -0.42426146119E+02  0.12062685424E+03  0.43669008330E+02  0.13512141994E+03  0.00000000000E+00 0.  1.
         21    1    1    2  504  506 -0.22412794043E+02 -0.55871007538E+02 -0.91523930162E+01  0.60890632433E+02  0.00000000000E+00 0.  1.
         21    1    1    2  505  503  0.49991191118E+02 -0.20909633084E+02 -0.40678427542E+03  0.41037760498E+03  0.00000000000E+00 0.  1.
         21    1    1    2  506  502  0.14847749045E+02 -0.43846213617E+02 -0.13950511092E+03  0.14698510833E+03  0.00000000000E+00 0.  1.
<scales pt_clust_3="14000.00000" pt_clust_4="62.75271" pt_clust_5="87.28009" pt_clust_6="46.29197"></scales>
<clustering>
<clus scale="   46.292">  2  6  1 -1</clus>
<clus scale="   62.753">  1  4  2 -1</clus>
<clus scale="   87.280">  2  5  1 -1</clus>
<clus scale="   62.753">  1  3  2 -1</clus>
</clustering>
</event>
<event>
 6    0  0.2036847E+002  0.1658282E+03  0.7546771E-02  0.1182270E+00
         21   -1    0    0  502  501  0.00000000000E+00  0.00000000000E+00  0.11466463360E+03  0.11466463360E+03  0.00000000000E+00 0.  1.
         21   -1    0    0  505  502 -0.00000000000E+00 -0.00000000000E+00 -0.35277375790E+03  0.35277375790E+03  0.00000000000E+00 0.  1.
         21    1    1    2  503  504  0.37685183298E+02 -0.12435337271E+02  0.26691457422E+02  0.47825145609E+02  0.00000000000E+00 0.  1.
         21    1    1    2  504  501  0.11467087264E+03 -0.20165708825E+02 -0.11687316518E+02  0.11701563234E+03  0.00000000000E+00 0.  1.
         21    1    1    2  505  506 -0.11764065542E+03  0.40891863197E+02 -0.22497442481E+03  0.25714773984E+03  0.00000000000E+00 0.  1.
         21    1    1    2  506  503 -0.34715400523E+02 -0.82908171021E+01 -0.28138840383E+02  0.45449873705E+02  0.00000000000E+00 0. -1.
<scales pt_clust_3="30.17901" pt_clust_4="164.15650" pt_clust_5="30.39513" pt_clust_6="30.39513"></scales>
<clustering>
<clus scale="   30.179">  3  4 -1 -1</clus>
<clus scale="   30.395">  5  6 -1 -1</clus>
<clus scale="  164.157">  1  3  2 -1</clus>
<clus scale="  164.157">  1  3  2 -1</clus>
</clustering>
</event>
<event>
 6    0  0.2036847E+002  0.1459118E+03  0.7546771E-02  0.1205588E+00
         21   -1    0    0  503  501  0.00000000000E+00  0.00000000000E+00  0.70294442916E+03  0.70294442916E+03  0.00000000000E+00 0. -1.
         21   -1    0    0  504  502 -0.00000000000E+00 -0.00000000000E+00 -0.11126671310E+03  0.11126671310E+03  0.00000000000E+00 0. -1.
         21    1    1    2  503  502 -0.89776823553E+01 -0.53735028980E+02  0.33897269366E+03  0.34332279150E+03  0.00000000000E+00 0. -1.
         21    1    1    2  504  505 -0.29376691209E+02  0.36345807270E+02  0.66672657419E+01  0.47206568663E+02  0.00000000000E+00 0. -1.
         21    1    1    2  505  506 -0.41538473969E+02  0.90694191440E+02 -0.47699264198E+02  0.11057170065E+03  0.00000000000E+00 0. -1.
         21    1    1    2  506  501  0.79892847533E+02 -0.73304969729E+02  0.29373702086E+03  0.31311008144E+03  0.00000000000E+00 0. -1.
<scales pt_clust_3="54.47983" pt_clust_4="30.93151" pt_clust_5="30.93151" pt_clust_6="138.73722"></scales>
<clustering>
<clus scale="   30.932">  4  5 -1 -1</clus>
<clus scale="   54.480">  1  3  2 -1</clus>
<clus scale="  138.737">  1  6  2 -1</clus>
<clus scale="   54.480">  1  3  2 -1</clus>
</clustering>
</event>
<event>
 6    0  0.2036847E+002  0.2046565E+03  0.7546771E-02  0.1145869E+00
         21   -1    0    0  502  501  0.00000000000E+00  0.00000000000E+00  0.46442958937E+02  0.46442958937E+02  0.00000000000E+00 0. -1.
         21   -1    0    0  503  502 -0.00000000000E+00 -0.00000000000E+00 -0.94466601283E+03  0.94466601283E+03  0.00000000000E+00 0. -1.
         21    1    1    2  503  506  0.11142317034E+03  0.51403254938E+02 -0.27352687448E+03  0.29979054116E+03  0.00000000000E+00 0. -1.
         21    1    1    2  504  501 -0.12739619120E+03 -0.18325384647E+02 -0.23968435945E+03  0.27205551165E+03  0.00000000000E+00 0. -1.
         21    1    1    2  505  504 -0.55025745215E+02 -0.27876326040E+02 -0.58265989324E+02  0.84851916312E+02  0.00000000000E+00 0.  1.
         21    1    1    2  506  505  0.70998766083E+02 -0.52015442511E+01 -0.32674583065E+03  0.33441100265E+03  0.00000000000E+00 0. -1.
<scales pt_clust_3="61.27530" pt_clust_4="196.49046" pt_clust_5="39.13790" pt_clust_6="61.27530"></scales>
<clustering>
<clus scale="   39.138">  4  5 -1 -1</clus>
<clus scale="   61.275">  3  6 -1 -1</clus>
<clus scale="  196.490">  1  4  2 -1</clus>
<clus scale="  196.490">  1  3  2 -1</clus>
</clustering>
</event>
<event>
 6    0  0.2036847E+002  0.1801734E+03  0.7546771E-02  0.1167635E+00
         21   -1    0    0  506  501  0.00000000000E+00  0.00000000000E+00  0.45921034009E+03  0.45921034009E+03  0.00000000000E+00 0. -1.
         21   -1    0    0  503  502 -0.00000000000E+00 -0.00000000000E+00 -0.96304394015E+03  0.96304394015E+03  0.00000000000E+00 0. -1.
         21    1    1    2  503  504  0.73636187596E+02  0.47972835249E+02 -0.39189839737E+03  0.40163171552E+03  0.00000000000E+00 0. -1.
         21    1    1    2  504  505  0.19467947562E+02  0.90767457494E+02 -0.53119172523E+03  0.53924241420E+03  0.00000000000E+00 0. -1.
         21    1    1    2  505  501  0.14627492036E+01 -0.10406873630E+03  0.33262046604E+03  0.34852376668E+03  0.00000000000E+00 0. -1.
         21    1    1    2  506  502 -0.94566884362E+02 -0.34671556440E+02  0.86636056493E+02  0.13285638385E+03  0.00000000000E+00 0. -1.
<scales pt_clust_3="70.37544" pt_clust_4="70.37544" pt_clust_5="165.01807" pt_clust_6="100.72245"></scales>
<clustering>
<clus scale="   70.375">  3  4 -1 -1</clus>
<clus scale="  100.722">  1  6  2 -1</clus>
<clus scale="  165.018">  1  5  2 -1</clus>
<clus scale="  100.722">  1  3  2 -1</clus>
</clustering>
</event>
<event>
 6    0  0.2036847E+002  0.3068524E+03  0.7546771E-02  0.1081864E+00
         21   -1    0    0  503  501  0.00000000000E+00  0.00000000000E+00  0.64584466234E+03  0.64584466234E+03  0.00000000000E+00 0. -1.
         21   -1    0    0  501  502 -0.00000000000E+00 -0.00000000000E+00 -0.66985172725E+03  0.66985172725E+03  0.00000000000E+00 0. -1.
         21    1    1    2  503  505 -0.30995913729E+02 -0.44100675452E+01  0.28185447869E+03  0.28358798021E+03  0.00000000000E+00 0. -1.
         21    1    1    2  504  506  0.58271211754E+02  0.11568129484E+03 -0.17480552530E+03  0.21756531840E+03  0.00000000000E+00 0. -1.
         21    1    1    2  505  504 -0.18575196746E+03 -0.17562667377E+03  0.27407321767E+03  0.37478613982E+03  0.00000000000E+00 0.  1.
         21    1    1    2  506  502  0.15847666943E+03  0.64355446473E+02 -0.40512923598E+03  0.43975695116E+03  0.00000000000E+00 0. -1.
<scales pt_clust_3="31.30807" pt_clust_4="111.31318" pt_clust_5="278.93192" pt_clust_6="111.31318"></scales>
<clustering>
<clus scale="   31.308">  1  3  2 -1</clus>
<clus scale="  111.313">  4  6 -1 -1</clus>
<clus scale="  278.932">  1  5  2 -1</clus>
<clus scale="   31.308">  1  3  2 -1</clus>
</clustering>
</event>
<event>
 6    0  0.2036847E+002  0.6295873E+02  0.7546771E-02  0.1385819E+00
         21   -1    0    0  506  501  0.00000000000E+00  0.00000000000E+00  0.15350019810E+03  0.15350019810E+03  0.00000000000E+00 0. -1.
         21   -1    0    0  504  502 -0.00000000000E+00 -0.00000000000E+00 -0.34900306903E+03  0.34900306903E+03  0.00000000000E+00 0.  1.
         21    1    1    2  503  502  0.59975363089E+02  0.98227392761E+01 -0.21502477913E+03  0.22344839678E+03  0.00000000000E+00 0.  1.
         21    1    1    2  504  505  0.71658551848E+02 -0.20383128583E+02  0.10662387878E+02  0.75260258430E+02  0.00000000000E+00 0. -1.
         21    1    1    2  505  501 -0.55056912470E+02 -0.30028550310E+02  0.72803183611E+02  0.96089962995E+02  0.00000000000E+00 0. -1.
         21    1    1    2  506  503 -0.76577002467E+02  0.40588939617E+02 -0.63943663289E+02  0.10770464893E+03  0.00000000000E+00 0. -1.
<scales pt_clust_3="60.77442" pt_clust_4="14000.00000" pt_clust_5="57.59533" pt_clust_6="62.95873"></scales>
<clustering>
<clus scale="   60.774">  2  3  1 -1</clus>
<clus scale="   57.595">  1  5  2 -1</clus>
<clus scale="   62.959">  2  6  1 -1</clus>
<clus scale="   57.595">  1  3  2 -1</clus>
</clustering>
</event>
<event>
 6    0  0.2036847E+002  0.1283594E+03  0.7546771E-02  0.1229911E+00
         21   -1    0    0  506  501  0.00000000000E+00  0.00000000000E+00  0.11604780675E+03  0.11604780675E+03  0.00000000000E+00 0.  1.
         21   -1    0    0  501  502 -0.00000000000E+00 -0.00000000000E+00 -0.33249327347E+03  0.33249327347E+03  0.00000000000E+00 0. -1.
         21    1    1    2  503  502  0.63044211600E+02  0.17262486141E+02 -0.11621452952E+03  0.13333560258E+03  0.00000000000E+00 0. -1.
         21    1    1    2  504  503 -0.45321854987E+02  0.99474108361E+02 -0.13867888491E+03  0.17658143134E+03  0.00000000000E+00 0. -1.
         21    1    1    2  505  504 -0.34995285917E+02 -0.39711904998E+02  0.59723009270E+01  0.53267004921E+02  0.00000000000E+00 0.  1.
         21    1    1    2  506  505  0.17272929303E+02 -0.77024689504E+02  0.32475646786E+02  0.85357041386E+02  0.00000000000E+00 0.  1.
<scales pt_clust_3="65.36487" pt_clust_4="112.60222" pt_clust_5="50.45755" pt_clust_6="50.45755"></scales>
<clustering>
<clus scale="   50.458">  5  6 -1 -1</clus>
<clus scale="   65.365">  2  3  1 -1</clus>
<clus scale="  112.602">  2  4  1 -1</clus>
<clus scale="  128.359">  1  3  2 -1</clus>
</clustering>
</event>
<event>
 6    0  0.2036847E+002  0.1042131E+03  0.7546771E-02  0.1271678E+00
         21   -1    0    0  506  501  0.00000000000E+00  0.00000000000E+00  0.19062805671E+03  0.19062805671E+03  0.00000000000E+00 0. -1.
         21   -1    0    0  504  502 -0.00000000000E+00 -0.00000000000E+00 -0.49671030430E+03  0.49671030430E+03  0.00000000000E+00 0. -1.
         21    1    1    2  503  502 -0.63757334521E+02 -0.95734213489E+01 -0.30629948171E+03  0.31301121481E+03  0.00000000000E+00 0. -1.
         21    1    1    2  504  505 -0.46582903599E+02 -0.52553930498E+02 -0.14622367432E+03  0.16221357974E+03  0.00000000000E+00 0. -1.
         21    1    1    2  505  501  0.63314801531E+02  0.61846590994E+02  0.42823331367E+02  0.98323967678E+02  0.00000000000E+00 0. -1.
         21    1    1    2  506  503  0.47025436589E+02  0.28076085340E+00  0.10361757708E+03  0.11378959879E+03  0.00000000000E+00 0. -1.
<scales pt_clust_3="62.56602" pt_clust_4="104.21311" pt_clust_5="14000.00000" pt_clust_6="47.02627"></scales>
<clustering>
<clus scale="   47.026">  1  6  2 -1</clus>
<clus scale="   62.566">  2  3  1 -1</clus>
<clus scale="  104.213">  2  4  1 -1</clus>
<clus scale="   47.026">  1  3  2 -1</clus>
</clustering>
</event>
<event>
 6    0  0.2036847E+002  0.9286239E+02  0.7546771E-02  0.1296064E+00
         21   -1    0    0  506  501  0.00000000000E+00  0.00000000000E+00  0.15882872833E+03  0.15882872833E+03  0.00000000000E+00 0.  1.
         21   -1    0    0  504  502 -0.00000000000E+00 -0.00000000000E+00 -0.53372706503E+03  0.53372706503E+03  0.00000000000E+00 0.  1.
         21    1    1    2  503  505 -0.73637130526E+02 -0.11712836829E+03 -0.33119882455E+03  0.35893473367E+03  0.00000000000E+00 0.  1.
         21    1    1    2  504  503  0.43529668890E+02  0.54831517868E+02 -0.16724112702E+03  0.18130339763E+03  0.00000000000E+00 0.  1.
         21    1    1    2  505  501  0.14498567809E+02  0.33787383760E+02  0.11191231016E+03  0.11779711768E+03  0.00000000000E+00 0.  1.
         21    1    1    2  506  502  0.15608893827E+02  0.28509466664E+02  0.11629304721E+02  0.34520544380E+02  0.00000000000E+00 0.  1.
<scales pt_clust_3="14000.00000" pt_clust_4="92.86239" pt_clust_5="64.19392" pt_clust_6="32.50273"></scales>
<clustering>
<clus scale="   32.503">  1  6  2 -1</clus>
<clus scale="   64.194">  1  5  2 -1</clus>
<clus scale="   92.862">  2  4  1 -1</clus>
<clus scale="   32.503">  1  3  2 -1</clus>
</clustering>
</event>
<event>
 6    0  0.2036847E+002  0.2342479E+03  0.7546771E-02  0.1123685E+00
         21   -1    0    0  502  501  0.00000000000E+00  0.00000000000E+00  0.38970487413E+03  0.38970487413E+03  0.00000000000E+00 0.  1.
         21   -1    0    0  504  502 -0.00000000000E+00 -0.00000000000E+00 -0.16878335829E+03  0.16878335829E+03  0.00000000000E+00 0.  1.
         21    1    1    2  503  506  0.72846413485E+02 -0.14983100835E+03  0.16234566848E+03  0.23261996280E+03  0.00000000000E+00 0.  1.
         21    1    1    2  504  505 -0.16491774532E+02  0.87147738184E+02 -0.20631841312E+02  0.91062504763E+02  0.00000000000E+00 0.  1.
         21    1    1    2  505  503 -0.51085312324E+02  0.13012452225E+03  0.13405968201E+02  0.14043439895E+03  0.00000000000E+00 0.  1.
         21    1    1    2  506  501 -0.52693266294E+01 -0.67441252086E+02  0.65801720468E+02  0.94371365904E+02  0.00000000000E+00 0.  1.
<scales pt_clust_3="35.46822" pt_clust_4="33.46120" pt_clust_5="231.38410" pt_clust_6="35.46822"></scales>
<clustering>
<clus scale="   33.461">  4  5 -1 -1</clus>
<clus scale="   35.468">  3  6 -1 -1</clus>
<clus scale="  231.384">  2  4  1 -1</clus>
<clus scale="  234.248">  1  3  2 -1</clus>
</clustering>
</event>
<event>
 6    0  0.2036847E+002  0.9446306E+02  0.7546771E-02  0.1292390E+00
         21   -1    0    0  503  501  0.00000000000E+00  0.00000000000E+00  0.17812181828E+02  0.17812181828E+02  0.00000000000E+00 0.  1.
         21   -1    0    0  505  502 -0.00000000000E+00 -0.00000000000E+00 -0.17581685054E+04  0.17581685054E+04  0.00000000000E+00 0.  1.
         21    1    1    2  503  502  0.80236400461E+02  0.88853626619E+01 -0.41297561644E+03  0.42079174113E+03  0.00000000000E+00 0.  1.
         21    1    1    2  504  501 -0.60454461965E+02 -0.36742224122E+01 -0.18127129480E+03  0.19112175230E+03  0.00000000000E+00 0.  1.
         21    1    1    2  505  506 -0.29917831384E+02 -0.93129281809E+02 -0.83193379356E+03  0.83766459674E+03  0.00000000000E+00 0.  1.
         21    1    1    2  506  504  0.10135892889E+02  0.87918141560E+02 -0.31417561882E+03  0.32640259711E+03  0.00000000000E+00 0.  1.
<scales pt_clust_3="62.38902" pt_clust_4="60.56601" pt_clust_5="94.46306" pt_clust_6="14000.00000"></scales>
<clustering>
<clus scale="   60.566">  1  4  2 -1</clus>
<clus scale="   62.389">  1  3  2 -1</clus>
<clus scale="   94.463">  2  5  1 -1</clus>
<clus scale="   60.566">  1  3  2 -1</clus>
</clustering>
</event>
<event>
 6    0  0.2036847E+002  0.8790843E+02  0.7546771E-02  0.1307997E+00
         21   -1    0    0  503  501  0.00000000000E+00  0.00000000000E+00  0.13569815472E+03  0.13569815472E+03  0.00000000000E+00 0.  1.
         21   -1    0    0  506  502 -0.00000000000E+00 -0.00000000000E+00 -0.30535147896E+03  0.30535147896E+03  0.00000000000E+00 0.  1.
         21    1    1    2  503  504  0.59182958347E+02  0.11954647860E+02  0.67286834483E+02  0.90404945987E+02  0.00000000000E+00 0.  1.
         21    1    1    2  504  505 -0.26118654242E+02 -0.58444535445E+02 -0.56545710129E+02  0.85412909778E+02  0.00000000000E+00 0. -1.
         21    1    1    2  505  502  0.61340841339E+02  0.25189655821E+01 -0.54476647597E+01  0.61633765544E+02  0.00000000000E+00 0.  1.
         21    1    1    2  506  501 -0.94405145444E+02  0.43970922003E+02 -0.17494678383E+03  0.20359801237E+03  0.00000000000E+00 0.  1.
<scales pt_clust_3="60.37828" pt_clust_4="56.50907" pt_clust_5="87.90843" pt_clust_6="14000.00000"></scales>
<clustering>
<clus scale="   60.378">  1  3  2 -1</clus>
<clus scale="   56.509">  1  4  2 -1</clus>
<clus scale="   87.908">  1  5  2 -1</clus>
<clus scale="   60.378">  1  3  2 -1</clus>
</clustering>
</event>
<event>
 6    0  0.2036847E+002  0.8708555E+02  0.7546771E-02  0.1310067E+00
         21   -1    0    0  503  501  0.00000000000E+00  0.00000000000E+00  0.30294797695E+03  0.30294797695E+03  0.00000000000E+00 0. -1.
         21   -1    0    0  506  502 -0.00000000000E+00 -0.00000000000E+00 -0.14879432874E+03  0.14879432874E+03  0.00000000000E+00 0.  1.
         21    1    1    2  503  505 -0.79742789063E+02  0.38620640053E+02  0.18412025536E+03  0.20432996520E+03  0.00000000000E+00 0. -1.
         21    1    1    2  504  502  0.27348280032E+02 -0.35349747172E+02 -0.74093912381E+02  0.86529999987E+02  0.00000000000E+00 0.  1.
         21    1    1    2  505  504 -0.66387668963E+01  0.57053216577E+02  0.50168804392E+02  0.76263042700E+02  0.00000000000E+00 0. -1.
         21    1    1    2  506  501  0.59033275928E+02 -0.60324109458E+02 -0.60414991574E+01  0.84619297803E+02  0.00000000000E+00 0. -1.
<scales pt_clust_3="87.08555" pt_clust_4="44.69377" pt_clust_5="50.33873" pt_clust_6="14000.00000"></scales>
<clustering>
<clus scale="   44.694">  2  4  1 -1</clus>
<clus scale="   50.339">  2  5  1 -1</clus>
<clus scale="   87.086">  1  3  2 -1</clus>
<clus scale="   87.086">  1  3  2 -1</clus>
</clustering>
</event>
<event>
 6    0  0.2036847E+002  0.1443035E+03  0.7546771E-02  0.1207653E+00
         21   -1    0    0  505  501  0.00000000000E+00  0.00000000000E+00  0.36376838155E+02  0.36376838155E+02  0.00000000000E+00 0. -1.
         21   -1    0    0  503  502 -0.00000000000E+00 -0.00000000000E+00 -0.88122784907E+03  0.88122784907E+03  0.00000000000E+00 0. -1.
         21    1    1    2  503  506 -0.56137968256E+02 -0.31886605470E+01 -0.38216643715E+03  0.38628075893E+03  0.00000000000E+00 0.  1.
         21    1    1    2  504  502  0.77003121039E+02  0.29467121668E+02 -0.10979613236E+03  0.13730616370E+03  0.00000000000E+00 0. -1.
         21    1    1    2  505  504  0.56360768067E+02  0.32927030852E+01 -0.37038634577E+02  0.67522133571E+02  0.00000000000E+00 0. -1.
         21    1    1    2  506  501 -0.77225920850E+02 -0.29571164206E+02 -0.31584980683E+03  0.32649563102E+03  0.00000000000E+00 0. -1.
<scales pt_clust_3="36.54710" pt_clust_4="142.80820" pt_clust_5="32.42109" pt_clust_6="36.54710"></scales>
<clustering>
<clus scale="   32.421">  4  5 -1 -1</clus>
<clus scale="   36.547">  3  6 -1 -1</clus>
<clus scale="  142.808">  1  4  2 -1</clus>
<clus scale="  142.808">  1  3  2 -1</clus>
</clustering>
</event>
<event>
 6    0  0.2036847E+002  0.1474749E+03  0.7546771E-02  0.1203611E+00
         21   -1    0    0  502  501  0.00000000000E+00  0.00000000000E+00  0.32276722709E+03  0.32276722709E+03  0.00000000000E+00 0. -1.
         21   -1    0    0  506  502 -0.00000000000E+00 -0.00000000000E+00 -0.35433389150E+03  0.35433389150E+03  0.00000000000E+00 0.  1.
         21    1    1    2  503  501  0.79964412181E+02 -0.23381696589E+02  0.12115092518E+03  0.14703250533E+03  0.00000000000E+00 0.  1.
         21    1    1    2  504  505 -0.94249790628E+02  0.67537991290E+02 -0.23105919103E+03  0.25852031460E+03  0.00000000000E+00 0.  1.
         21    1    1    2  505  503  0.55799697236E+02 -0.24978330031E+02  0.16368273966E+03  0.17472710850E+03  0.00000000000E+00 0. -1.
         21    1    1    2  506  504 -0.41514318790E+02 -0.19177964671E+02 -0.85341138214E+02  0.96821190166E+02  0.00000000000E+00 0. -1.
<scales pt_clust_3="34.56823" pt_clust_4="141.84636" pt_clust_5="34.56823" pt_clust_6="45.73000"></scales>
<clustering>
<clus scale="   34.568">  3  5 -1 -1</clus>
<clus scale="   45.730">  2  6  1 -1</clus>
<clus scale="  141.846">  2  4  1 -1</clus>
<clus scale="  147.475">  1  3  2 -1</clus>
</clustering>
</event>
<event>
 6    0  0.2036847E+002  0.1053362E+03  0.7546771E-02  0.1269459E+00
         21   -1    0    0  504  501  0.00000000000E+00  0.00000000000E+00  0.14259042669E+04  0.14259042669E+04  0.00000000000E+00 0.  1.
         21   -1    0    0  503  502 -0.00000000000E+00 -0.00000000000E+00 -0.47663429601E+02  0.47663429601E+02  0.00000000000E+00 0. -1.
         21    1    1    2  503  506  0.47907066499E+02 -0.51615779193E+02  0.54178447877E+03  0.54634210631E+03  0.00000000000E+00 0.  1.
         21    1    1    2  504  505  0.26396728258E+02  0.37607140384E+02  0.11049583318E+03  0.11966792979E+03  0.00000000000E+00 0. -1.
         21    1    1    2  505  502 -0.11158803361E+03  0.14647601345E+02  0.38295364776E+02  0.11888219562E+03  0.00000000000E+00 0. -1.
         21    1    1    2  506  501  0.37284238858E+02 -0.63896253599E+00  0.68766516058E+03  0.68867546480E+03  0.00000000000E+00 0.  1.
<scales pt_clust_3="14000.00000" pt_clust_4="49.44165" pt_clust_5="105.33619" pt_clust_6="37.28971"></scales>
<clustering>
<clus scale="   37.290">  1  6  2 -1</clus>
<clus scale="   49.442">  1  4  2 -1</clus>
<clus scale="  105.336">  2  5  1 -1</clus>
<clus scale="   37.290">  1  3  2 -1</clus>
</clustering>
</event>
<event>
 6    0  0.2036847E+002  0.3844846E+03  0.7546771E-02  0.1049289E+00
         21   -1    0    0  504  501  0.00000000000E+00  0.00000000000E+00  0.69891144041E+03  0.69891144041E+03  0.00000000000E+00 0.  1.
         21   -1    0    0  506  502 -0.00000000000E+00 -0.00000000000E+00 -0.29932616519E+03  0.29932616519E+03  0.00000000000E+00 0.  1.
         21    1    1    2  503  501  0.21164573071E+03  0.94735799053E+02 -0.30518938230E+02  0.23388072289E+03  0.00000000000E+00 0.  1.
         21    1    1    2  504  505 -0.16113505143E+03 -0.25448465448E+02  0.24272195669E+03  0.29244841844E+03  0.00000000000E+00 0.  1.
         21    1    1    2  505  502 -0.17713970144E+03  0.83091790119E+01  0.25347763257E+03  0.30935162275E+03  0.00000000000E+00 0.  1.
         21    1    1    2  506  503  0.12662902216E+03 -0.77596512617E+02 -0.66095375804E+02  0.16255684152E+03  0.00000000000E+00 0.  1.
<scales pt_clust_3="145.61147" pt_clust_4="33.57873" pt_clust_5="340.51323" pt_clust_6="145.61147"></scales>
<clustering>
<clus scale="   33.579">  4  5 -1 -1</clus>
<clus scale="  145.611">  3  6 -1 -1</clus>
<clus scale="  340.513">  1  4  2 -1</clus>
<clus scale="  340.513">  1  3  2 -1</clus>
</clustering>
</event>
<event>
 6    0  0.2036847E+002  0.1120869E+03  0.7546771E-02  0.1256753E+00
         21   -1    0    0  506  501  0.00000000000E+00  0.00000000000E+00  0.25803750903E+03  0.25803750903E+03  0.00000000000E+00 0.  1.
         21   -1    0    0  503  502 -0.00000000000E+00 -0.00000000000E+00 -0.23643143163E+03  0.23643143163E+03  0.00000000000E+00 0.  1.
         21    1    1    2  503  505 -0.70518736900E+02 -0.12045156269E+03 -0.15161163487E+03  0.20607658537E+03  0.00000000000E+00 0.  1.
         21    1    1    2  504  502  0.36677350326E+02  0.13938324357E+02 -0.25995438456E+02  0.47066630784E+02  0.00000000000E+00 0.  1.
         21    1    1    2  505  501  0.60440952122E+00  0.10074961037E+03  0.16464825570E+03  0.19302822956E+03  0.00000000000E+00 0.  1.
         21    1    1    2  506  504  0.33236977053E+02  0.57636279659E+01  0.34564895024E+02  0.48297494955E+02  0.00000000000E+00 0. -1.
<scales pt_clust_3="14000.00000" pt_clust_4="40.84849" pt_clust_5="112.08694" pt_clust_6="33.73301"></scales>
<clustering>
<clus scale="   33.733">  1  6  2 -1</clus>
<clus scale="   40.848">  2  4  1 -1</clus>
<clus scale="  112.087">  1  5  2 -1</clus>
<clus scale="   33.733">  1  3  2 -1</clus>
</clustering>
</event>
<event>
 6    0  0.2036847E+002  0.1168806E+03  0.7546771E-02  0.1248334E+00
         21   -1    0    0  504  501  0.00000000000E+00  0.00000000000E+00  0.12491225537E+03  0.12491225537E+03  0.00000000000E+00 0.  1.
         21   -1    0    0  503  502 -0.00000000000E+00 -0.00000000000E+00 -0.67332075055E+03  0.67332075055E+03  0.00000000000E+00 0.  1.
         21    1    1    2  503  501 -0.26472946308E+02  0.15383044747E+02  0.73853585383E+02  0.79948777513E+02  0.00000000000E+00 0.  1.
         21    1    1    2  504  505 -0.56192032037E+02  0.85055663593E+02 -0.26555939620E+02  0.10534338281E+03  0.00000000000E+00 0.  1.
         21    1    1    2  505  506  0.73930318216E+02 -0.66312240110E+02 -0.32173031567E+03  0.33670966894E+03  0.00000000000E+00 0.  1.
         21    1    1    2  506  502  0.87346601293E+01 -0.34126468231E+02 -0.27397582528E+03  0.27623117666E+03  0.00000000000E+00 0.  1.
<scales pt_clust_3="30.61789" pt_clust_4="14000.00000" pt_clust_5="116.88058" pt_clust_6="34.72613"></scales>
<clustering>
<clus scale="   30.618">  1  3  2 -1</clus>
<clus scale="   34.726">  2  6  1 -1</clus>
<clus scale="  116.881">  2  5  1 -1</clus>
<clus scale="   30.618">  1  3  2 -1</clus>
</clustering>
</event>
<event>
 6    0  0.2036847E+002  0.1971956E+03  0.7546771E-02  0.1152127E+00
         21   -1    0    0  503  501  0.00000000000E+00  0.00000000000E+00  0.11716910174E+04  0.11716910174E+04  0.00000000000E+00 0. -1.
         21   -1    0    0  505  502 -0.00000000000E+00 -0.00000000000E+00 -0.85505916466E+03  0.85505916466E+03  0.00000000000E+00 0. -1.
         21    1    1    2  503  506  0.34746615892E+02 -0.47394126913E+01  0.12427477084E+03  0.12912787467E+03  0.00000000000E+00 0.  1.
         21    1    1    2  504  502  0.31724548302E+02  0.48514543205E+02 -0.48185323654E+03  0.48532736316E+03  0.00000000000E+00 0. -1.
         21    1    1    2  505  501 -0.80341315642E+02 -0.18890952007E+03  0.10181977973E+04  0.10386858467E+04  0.00000000000E+00 0. -1.
         21    1    1    2  506  504  0.13870151447E+02  0.14513438956E+03 -0.34398747885E+03  0.37360909750E+03  0.00000000000E+00 0. -1.
<scales pt_clust_3="35.06835" pt_clust_4="57.99148" pt_clust_5="197.19558" pt_clust_6="14000.00000"></scales>
<clustering>
<clus scale="   35.068">  1  3  2 -1</clus>
<clus scale="   57.991">  2  4  1 -1</clus>
<clus scale="  197.196">  1  5  2 -1</clus>
<clus scale="   35.068">  1  3  2 -1</clus>
</clustering>
</event>
<event>
 6    0  0.2036847E+002  0.1057847E+03  0.7546771E-02  0.1268581E+00
         21   -1    0    0  503  501  0.00000000000E+00  0.00000000000E+00  0.96754626030E+02  0.96754626030E+02  0.00000000000E+00 0.  1.
         21   -1    0    0  504  502 -0.00000000000E+00 -0.00000000000E+00 -0.18416183308E+03  0.18416183308E+03  0.00000000000E+00 0.  1.
         21    1    1    2  503  502  0.27728924026E+02  0.10838670317E+03 -0.26934413650E+02  0.11507403395E+03  0.00000000000E+00 0.  1.
         21    1    1    2  504  505 -0.53372193768E+02 -0.38484081445E+02 -0.43872986606E+02  0.79085109509E+02  0.00000000000E+00 0.  1.
         21    1    1    2  505  506  0.99340376283E+00 -0.33877296616E+02 -0.25241708022E+02  0.42258749401E+02  0.00000000000E+00 0.  1.
         21    1    1    2  506  501  0.24649865979E+02 -0.36025325105E+02  0.86419012260E+01  0.44498566252E+02  0.00000000000E+00 0. -1.
<scales pt_clust_3="96.03450" pt_clust_4="31.83641" pt_clust_5="31.83641" pt_clust_6="43.65135"></scales>
<clustering>
<clus scale="   31.836">  4  5 -1 -1</clus>
<clus scale="   43.651">  1  6  2 -1</clus>
<clus scale="   96.034">  1  3  2 -1</clus>
<clus scale="   43.651">  1  3  2 -1</clus>
</clustering>
</event>
<event>
 6    0  0.2036847E+002  0.1426907E+03  0.7546771E-02  0.1209754E+00
         21   -1    0    0  504  501  0.00000000000E+00  0.00000000000E+00  0.30936130766E+03  0.30936130766E+03  0.00000000000E+00 0.  1.
         21   -1    0    0  505  502 -0.00000000000E+00 -0.00000000000E+00 -0.40377339124E+03  0.40377339124E+03  0.00000000000E+00 0. -1.
         21    1    1    2  503  501  0.14639310467E+03 -0.47973844586E+02  0.22793134959E+03  0.27510930733E+03  0.00000000000E+00 0.  1.
         21    1    1    2  504  506 -0.83878368703E+02  0.53454175483E+02 -0.69369830026E+02  0.12126459884E+03  0.00000000000E+00 0. -1.
         21    1    1    2  505  503  0.58609843403E+01 -0.64944987854E+02 -0.22282836108E+02  0.68911010512E+02  0.00000000000E+00 0. -1.
         21    1    1    2  506  502 -0.68375720305E+02  0.59464656957E+02 -0.23069076702E+03  0.24784978222E+03  0.00000000000E+00 0. -1.
<scales pt_clust_3="142.69071" pt_clust_4="14000.00000" pt_clust_5="65.20891" pt_clust_6="66.43577"></scales>
<clustering>
<clus scale="   65.209">  2  5  1 -1</clus>
<clus scale="   66.436">  2  6  1 -1</clus>
<clus scale="  142.691">  1  3  2 -1</clus>
<clus scale="  142.691">  1  3  2 -1</clus>
</clustering>
</event>
<event>
 6    0  0.2036847E+002  0.1472307E+03  0.7546771E-02  0.1203918E+00
         21   -1    0    0  505  501  0.00000000000E+00  0.00000000000E+00  0.46613784581E+02  0.46613784581E+02  0.00000000000E+00 0. -1.
         21   -1    0    0  506  502 -0.00000000000E+00 -0.00000000000E+00 -0.11052144742E+04  0.11052144742E+04  0.00000000000E+00 0. -1.
         21    1    1    2  503  502  0.27661262557E+02  0.14607174671E+03 -0.12365906893E+03  0.19337441910E+03  0.00000000000E+00 0. -1.
         21    1    1    2  504  501  0.16507203188E+02 -0.36127423497E+02 -0.15153248910E+03  0.15665175945E+03  0.00000000000E+00 0.  1.
         21    1    1    2  505  503 -0.30586282247E+02 -0.11052914632E+02 -0.39227544799E+02  0.50955744078E+02  0.00000000000E+00 0. -1.
         21    1    1    2  506  504 -0.13582183498E+02 -0.98891408582E+02 -0.74418158675E+03  0.75084633611E+03  0.00000000000E+00 0. -1.
<scales pt_clust_3="136.62518" pt_clust_4="34.34422" pt_clust_5="32.52211" pt_clust_6="34.34422"></scales>
<clustering>
<clus scale="   32.522">  1  5  2 -1</clus>
<clus scale="   34.344">  4  6 -1 -1</clus>
<clus scale="  136.625">  1  3  2 -1</clus>
<clus scale="   32.522">  1  3  2 -1</clus>
</clustering>
</event>
<event>
 6    0  0.2036847E+002  0.3046032E+03  0.7546771E-02  0.1082962E+00
         21   -1    0    0  506  501  0.00000000000E+00  0.00000000000E+00  0.52521527322E+03  0.52521527322E+03  0.00000000000E+00 0. -1.
         21   -1    0    0  505  502 -0.00000000000E+00 -0.00000000000E+00 -0.29656806584E+03  0.29656806584E+03  0.00000000000E+00 0. -1.
         21    1    1    2  503  501  0.13020683309E+03 -0.10479582563E+03  0.10983286027E+03  0.19999810411E+03  0.00000000000E+00 0. -1.
         21    1    1    2  504  502 -0.17488057067E+03  0.20421419872E+03 -0.10162705988E+03  0.28742775136E+03  0.00000000000E+00 0. -1.
         21    1    1    2  505  503  0.34360809839E+02 -0.17336218652E+03  0.15422461327E+03  0.23456415819E+03  0.00000000000E+00 0. -1.
         21    1    1    2  506  504  0.10312927740E+02  0.73943813436E+02  0.66216793717E+02  0.99793325399E+02  0.00000000000E+00 0. -1.
<scales pt_clust_3="117.44666" pt_clust_4="279.49868" pt_clust_5="117.44666" pt_clust_6="74.65952"></scales>
<clustering>
<clus scale="   74.660">  1  6  2 -1</clus>
<clus scale="  117.447">  3  5 -1 -1</clus>
<clus scale="  279.499">  2  4  1 -1</clus>
<clus scale="   74.660">  1  3  2 -1</clus>
</clustering>
</event>
<event>
 6    0  0.2036847E+002  0.1469665E+03  0.7546771E-02  0.1204251E+00
         21   -1    0    0  505  501  0.00000000000E+00  0.00000000000E+00  0.10153352741E+04  0.10153352741E+04  0.00000000000E+00 0. -1.
         21   -1    0    0  503  502 -0.00000000000E+00 -0.00000000000E+00 -0.13959109458E+04  0.13959109458E+04  0.00000000000E+00 0. -1.
         21    1    1    2  503  501 -0.78882007344E+02  0.53589994962E+02  0.61735229904E+03  0.62467441101E+03  0.00000000000E+00 0. -1.
         21    1    1    2  504  506  0.13287328702E+02 -0.97402467096E+02 -0.11676339668E+04  0.11717648544E+04  0.00000000000E+00 0. -1.
         21    1    1    2  505  504  0.58028363338E+02  0.83215289113E+02  0.38380205220E+03  0.39698374093E+03  0.00000000000E+00 0. -1.
         21    1    1    2  506  502  0.75663153049E+01 -0.39402816978E+02 -0.21409605616E+03  0.21782321358E+03  0.00000000000E+00 0. -1.
<scales pt_clust_3="95.36382" pt_clust_4="32.74188" pt_clust_5="137.74100" pt_clust_6="32.74188"></scales>
<clustering>
<clus scale="   32.742">  4  6 -1 -1</clus>
<clus scale="   95.364">  1  3  2 -1</clus>
<clus scale="  137.741">  1  5  2 -1</clus>
<clus scale="   95.364">  1  3  2 -1</clus>
</clustering>
</event>
<event>
 6    0  0.2036847E+002  0.1248010E+03  0.7546771E-02  0.1235381E+00
         21   -1    0    0  505  501  0.00000000000E+00  0.00000000000E+00  0.17186603335E+03  0.17186603335E+03  0.00000000000E+00 0. -1.
         21   -1    0    0  503  502 -0.00000000000E+00 -0.00000000000E+00 -0.44263480642E+03  0.44263480642E+03  0.00000000000E+00 0.  1.
         21    1    1    2  503  506 -0.11576382517E+03  0.56294293229E+02 -0.38609597450E+03  0.40698944973E+03  0.00000000000E+00 0.  1.
         21    1    1    2  504  501  0.13505907466E+02 -0.31896449136E+02 -0.15326453449E+01  0.34671919556E+02  0.00000000000E+00 0.  1.
         21    1    1    2  505  502  0.30400997894E+02  0.25595049328E+02  0.33868342813E+02  0.52214862519E+02  0.00000000000E+00 0. -1.
         21    1    1    2  506  504  0.71856919808E+02 -0.49992893421E+02  0.82991503961E+02  0.12062460796E+03  0.00000000000E+00 0. -1.
<scales pt_clust_3="124.80097" pt_clust_4="34.63803" pt_clust_5="38.03355" pt_clust_6="14000.00000"></scales>
<clustering>
<clus scale="   34.638">  1  4  2 -1</clus>
<clus scale="   38.034">  1  5  2 -1</clus>
<clus scale="  124.801">  2  3  1 -1</clus>
<clus scale="   34.638">  1  3  2 -1</clus>
</clustering>
</event>
<event>
 6    0  0.2036847E+002  0.8565959E+02  0.7546771E-02  0.1313717E+00
         21   -1    0    0  505  501  0.00000000000E+00  0.00000000000E+00  0.36225919226E+03  0.36225919226E+03  0.00000000000E+00 0. -1.
         21   -1    0    0  506  502 -0.00000000000E+00 -0.00000000000E+00 -0.18136185115E+03  0.18136185115E+03  0.00000000000E+00 0. -1.
         21    1    1    2  503  501 -0.67199085117E+02 -0.68331393611E+02  0.63054596994E+01  0.96045068668E+02  0.00000000000E+00 0. -1.
         21    1    1    2  504  502  0.65917504959E+02  0.81841275448E+02  0.74485639859E+02  0.12880691896E+03  0.00000000000E+00 0. -1.
         21    1    1    2  505  504  0.41427809194E+02  0.58774675161E+02  0.18607769394E+03  0.19948843074E+03  0.00000000000E+00 0. -1.
         21    1    1    2  506  503 -0.40146229036E+02 -0.72284556998E+02 -0.85971452384E+02  0.11928062505E+03  0.00000000000E+00 0. -1.
<scales pt_clust_3="74.49598" pt_clust_4="85.65959" pt_clust_5="71.90776" pt_clust_6="14000.00000"></scales>
<clustering>
<clus scale="   71.908">  1  5  2 -1</clus>
<clus scale="   74.496">  1  3  2 -1</clus>
<clus scale="   85.660">  1  4  2 -1</clus>
<clus scale="   71.908">  1  3  2 -1</clus>
</clustering>
</event>
<event>
 6    0  0.2036847E+002  0.1351362E+03  0.7546771E-02  0.1220028E+00
         21   -1    0    0  504  501  0.00000000000E+00  0.00000000000E+00  0.10439153263E+04  0.10439153263E+04  0.00000000000E+00 0.  1.
         21   -1    0    0  503  502 -0.00000000000E+00 -0.00000000000E+00 -0.63619507506E+03  0.63619507506E+03  0.00000000000E+00 0. -1.
         21    1    1    2  503  506  0.10186018421E+03  0.83027366098E+01 -0.42295516907E+03  0.43512700169E+03  0.00000000000E+00 0. -1.
         21    1    1    2  504  505 -0.64006110257E+00  0.38688674956E+02  0.11502914497E+03  0.12136279266E+03  0.00000000000E+00 0.  1.
         21    1    1    2  505  502 -0.43858309297E+02  0.11498611958E+03 -0.17644888686E+03  0.21512686644E+03  0.00000000000E+00 0. -1.
         21    1    1    2  506  501 -0.57361813812E+02 -0.16197753115E+03  0.89209516221E+03  0.90849374061E+03  0.00000000000E+00 0.  1.
<scales pt_clust_3="102.21479" pt_clust_4="38.69397" pt_clust_5="14000.00000" pt_clust_6="135.13621"></scales>
<clustering>
<clus scale="   38.694">  1  4  2 -1</clus>
<clus scale="  102.215">  2  3  1 -1</clus>
<clus scale="  135.136">  1  6  2 -1</clus>
<clus scale="   38.694">  1  3  2 -1</clus>
</clustering>
</event>
<event>
 6    0  0.2036847E+002  0.1259111E+03  0.7546771E-02  0.1233652E+00
         21   -1    0    0  504  501  0.00000000000E+00  0.00000000000E+00  0.25440700561E+04  0.25440700561E+04  0.00000000000E+00 0.  1.
         21   -1    0    0  505  502 -0.00000000000E+00 -0.00000000000E+00 -0.23715324368E+02  0.23715324368E+02  0.00000000000E+00 0. -1.
         21    1    1    2  503  502  0.13838911150E+02 -0.26840771674E+02  0.83741399754E+02  0.89020023133E+02  0.00000000000E+00 0. -1.
         21    1    1    2  504  503  0.52196583508E+02 -0.47253738524E+02  0.16702827801E+04  0.16717661213E+04  0.00000000000E+00 0.  1.
         21    1    1    2  505  506 -0.13240392423E+03  0.86994436577E+02  0.33704371544E+03  0.37242086041E+03  0.00000000000E+00 0. -1.
         21    1    1    2  506  501  0.66368429576E+02 -0.12899926379E+02  0.42928683645E+03  0.43457837555E+03  0.00000000000E+00 0.  1.
<scales pt_clust_3="30.19839" pt_clust_4="14000.00000" pt_clust_5="125.91110" pt_clust_6="70.02198"></scales>
<clustering>
<clus scale="   30.198">  2  3  1 -1</clus>
<clus scale="   70.022">  1  6  2 -1</clus>
<clus scale="  125.911">  2  5  1 -1</clus>
<clus scale="   70.022">  1  3  2 -1</clus>
</clustering>
</event>
<event>
 6    0  0.2036847E+002  0.2007766E+03  0.7546771E-02  0.1149085E+00
         21   -1    0    0  506  501  0.00000000000E+00  0.00000000000E+00  0.37819017590E+03  0.37819017590E+03  0.00000000000E+00 0. -1.
         21   -1    0    0  505  502 -0.00000000000E+00 -0.00000000000E+00 -0.16340751483E+03  0.16340751483E+03  0.00000000000E+00 0. -1.
         21    1    1    2  503  502 -0.38474015271E+02 -0.15969212610E+03  0.44594491077E+02  0.17020720791E+03  0.00000000000E+00 0. -1.
         21    1    1    2  504  503 -0.44494751960E+02 -0.52641400025E+02  0.10417062155E+02  0.69709505324E+02  0.00000000000E+00 0. -1.
         21    1    1    2  505  501  0.12545901324E+02  0.46238132400E+02 -0.15297255471E+02  0.50292847929E+02  0.00000000000E+00 0. -1.
         21    1    1    2  506  504  0.70422865907E+02  0.16609539372E+03  0.17506836331E+03  0.25138812957E+03  0.00000000000E+00 0. -1.
<scales pt_clust_3="32.80351" pt_clust_4="32.80351" pt_clust_5="47.90996" pt_clust_6="194.28538"></scales>
<clustering>
<clus scale="   32.804">  3  4 -1 -1</clus>
<clus scale="   47.910">  2  5  1 -1</clus>
<clus scale="  194.285">  1  6  2 -1</clus>
<clus scale="  194.285">  1  3  2 -1</clus>
</clustering>
</event>
<event>
 6    0  0.2036847E+002  0.2042153E+03  0.7546771E-02  0.1146231E+00
         21   -1    0    0  504  501  0.00000000000E+00  0.00000000000E+00  0.44918757151E+03  0.44918757151E+03  0.00000000000E+00 0. -1.
         21   -1    0    0  506  502 -0.00000000000E+00 -0.00000000000E+00 -0.16811359368E+03  0.16811359368E+03  0.00000000000E+00 0.  1.
         21    1    1    2  503  502 -0.64740907916E+02 -0.11094897888E+03 -0.43359138437E+02  0.13557682677E+03  0.00000000000E+00 0.  1.
         21    1    1    2  504  503 -0.69012591311E+02 -0.31209722331E+02 -0.23423532951E+02  0.79280807408E+02  0.00000000000E+00 0.  1.
         21    1    1    2  505  501  0.86570039948E+02  0.99436345025E+02  0.27953631139E+03  0.30906715761E+03  0.00000000000E+00 0. -1.
         21    1    1    2  506  505  0.47183459279E+02  0.42722356187E+02  0.68320337825E+02  0.93376373394E+02  0.00000000000E+00 0. -1.
<scales pt_clust_3="46.10295" pt_clust_4="46.10295" pt_clust_5="202.37724" pt_clust_6="37.14225"></scales>
<clustering>
<clus scale="   37.142">  5  6 -1 -1</clus>
<clus scale="   46.103">  3  4 -1 -1</clus>
<clus scale="  202.377">  1  5  2 -1</clus>
<clus scale="  202.377">  1  3  2 -1</clus>
</clustering>
</event>
<event>
 6    0  0.2036847E+002  0.7254714E+02  0.7546771E-02  0.1351640E+00
         21   -1    0    0  506  501  0.00000000000E+00  0.00000000000E+00  0.44229314248E+03  0.44229314248E+03  0.00000000000E+00 0.  1.
         21   -1    0    0  503  502 -0.00000000000E+00 -0.00000000000E+00 -0.64878078713E+03  0.64878078713E+03  0.00000000000E+00 0.  1.
         21    1    1    2  503  505  0.81035796071E+02 -0.27466975899E+02 -0.47948602515E+03  0.48706065672E+03  0.00000000000E+00 0.  1.
         21    1    1    2  504  502 -0.29985629978E+02 -0.23881876345E+02 -0.13872282400E+03  0.14392186742E+03  0.00000000000E+00 0.  1.
         21    1    1    2  505  501 -0.47376294963E+02 -0.41258004481E+02  0.34542939111E+02  0.71693450891E+02  0.00000000000E+00 0. -1.
         21    1    1    2  506  504 -0.36738711295E+01  0.92606856725E+02  0.37717826539E+03  0.38839795458E+03  0.00000000000E+00 0.  1.
<scales pt_clust_3="72.54714" pt_clust_4="38.33382" pt_clust_5="64.22492" pt_clust_6="14000.00000"></scales>
<clustering>
<clus scale="   38.334">  2  4  1 -1</clus>
<clus scale="   64.225">  1  5  2 -1</clus>
<clus scale="   72.547">  2  3  1 -1</clus>
<clus scale="   64.225">  1  3  2 -1</clus>
</clustering>
</event>
<event>
 6    0  0.2036847E+002  0.1301191E+03  0.7546771E-02  0.1227279E+00
         21   -1    0    0  505  501  0.00000000000E+00  0.00000000000E+00  0.32737542118E+03  0.32737542118E+03  0.00000000000E+00 0.  1.
         21   -1    0    0  504  502 -0.00000000000E+00 -0.00000000000E+00 -0.10715460080E+03  0.10715460080E+03  0.00000000000E+00 0. -1.
         21    1    1    2  503  506  0.79734874618E+02 -0.31939325168E+02  0.12733131163E+03  0.15359372918E+03  0.00000000000E+00 0.  1.
         21    1    1    2  504  503 -0.38299007234E+02 -0.17699596233E+02  0.21655483113E+02  0.47424145862E+02  0.00000000000E+00 0. -1.
         21    1    1    2  505  502 -0.69024442221E+02  0.85896414607E+02 -0.36871390559E+02  0.11619839546E+03  0.00000000000E+00 0. -1.
         21    1    1    2  506  501  0.27588574838E+02 -0.36257493206E+02  0.10810541620E+03  0.11731375148E+03  0.00000000000E+00 0.  1.
<scales pt_clust_3="30.82433" pt_clust_4="42.19111" pt_clust_5="123.04353" pt_clust_6="30.82433"></scales>
<clustering>
<clus scale="   30.824">  3  6 -1 -1</clus>
<clus scale="   42.191">  2  4  1 -1</clus>
<clus scale="  123.044">  2  5  1 -1</clus>
<clus scale="  130.119">  1  3  2 -1</clus>
</clustering>
</event>
<event>
 6    0  0.2036847E+002  0.1211594E+03  0.7546771E-02  0.1241197E+00
         21   -1    0    0  505  501  0.00000000000E+00  0.00000000000E+00  0.13774708687E+03  0.13774708687E+03  0.00000000000E+00 0.  1.
         21   -1    0    0  503  502 -0.00000000000E+00 -0.00000000000E+00 -0.68137749181E+03  0.68137749181E+03  0.00000000000E+00 0. -1.
         21    1    1    2  503  501  0.67077967219E+00  0.11616699776E+03 -0.53654858244E+03  0.54898051207E+03  0.00000000000E+00 0. -1.
         21    1    1    2  504  506  0.32833528627E+02 -0.76811353527E+02  0.42255575678E+02  0.93613878825E+02  0.00000000000E+00 0.  1.
         21    1    1    2  505  504 -0.63901619021E+02 -0.50360715539E+02  0.33210214295E+02  0.87877966047E+02  0.00000000000E+00 0.  1.
         21    1    1    2  506  502  0.30397310722E+02  0.11005071303E+02 -0.82547612479E+02  0.88652221740E+02  0.00000000000E+00 0. -1.
<scales pt_clust_3="121.15943" pt_clust_4="14000.00000" pt_clust_5="79.95454" pt_clust_6="32.32813"></scales>
<clustering>
<clus scale="   32.328">  2  6  1 -1</clus>
<clus scale="   79.955">  1  5  2 -1</clus>
<clus scale="  121.159">  2  3  1 -1</clus>
<clus scale="   79.955">  1  3  2 -1</clus>
</clustering>
</event>
<event>
 6    0  0.2036847E+002  0.2223979E+03  0.7546771E-02  0.1132108E+00
         21   -1    0    0  505  501  0.00000000000E+00  0.00000000000E+00  0.82189045556E+03  0.82189045556E+03  0.00000000000E+00 0.  1.
         21   -1    0    0  503  502 -0.00000000000E+00 -0.00000000000E+00 -0.91548789541E+02  0.91548789541E+02  0.00000000000E+00 0. -1.
         21    1    1    2  503  506  0.15277445667E+03  0.11033291729E+03  0.76540483725E+02  0.20340067084E+03  0.00000000000E+00 0. -1.
         21    1    1    2  504  501 -0.89269311018E+02 -0.43103789328E+01  0.17674640245E+03  0.19805776944E+03  0.00000000000E+00 0.  1.
         21    1    1    2  505  502  0.30314297129E+02 -0.16162867565E+02  0.27420723937E+02  0.43955557096E+02  0.00000000000E+00 0. -1.
         21    1    1    2  506  504 -0.93819442783E+02 -0.89859670791E+02  0.44963405591E+03  0.46802524773E+03  0.00000000000E+00 0.  1.
<scales pt_clust_3="201.33607" pt_clust_4="77.03398" pt_clust_5="34.35396" pt_clust_6="77.03398"></scales>
<clustering>
<clus scale="   34.354">  2  5  1 -1</clus>
<clus scale="   77.034">  4  6 -1 -1</clus>
<clus scale="  201.336">  2  3  1 -1</clus>
<clus scale="  222.398">  1  3  2 -1</clus>
</clustering>
</event>
<event>
 6    0  0.2036847E+002  0.1429258E+03  0.7546771E-02  0.1209445E+00
         21   -1    0    0  504  501  0.00000000000E+00  0.00000000000E+00  0.32722800499E+03  0.32722800499E+03  0.00000000000E+00 0.  1.
         21   -1    0    0  506  502 -0.00000000000E+00 -0.00000000000E+00 -0.34889397510E+03  0.34889397510E+03  0.00000000000E+00 0.  1.
         21    1    1    2  503  505 -0.20624269132E+02 -0.30350543469E+02  0.51717583117E+02  0.63413124584E+02  0.00000000000E+00 0.  1.
         21    1    1    2  504  502 -0.14398950996E+01  0.46157457730E+02 -0.40207639511E+02  0.61231025445E+02  0.00000000000E+00 0. -1.
         21    1    1    2  505  501  0.14147296241E+02 -0.10541605888E+03  0.24072889334E+03  0.26317882048E+03  0.00000000000E+00 0.  1.
         21    1    1    2  506  503  0.79168679904E+01  0.89609144619E+02 -0.27390480705E+03  0.28829900958E+03  0.00000000000E+00 0.  1.
<scales pt_clust_3="30.30983" pt_clust_4="46.17991" pt_clust_5="30.30983" pt_clust_6="133.28525"></scales>
<clustering>
<clus scale="   30.310">  3  5 -1 -1</clus>
<clus scale="   46.180">  2  4  1 -1</clus>
<clus scale="  133.285">  2  6  1 -1</clus>
<clus scale="  142.926">  1  3  2 -1</clus>
</clustering>
</event>
<event>
 6    0  0.2036847E+002  0.9603876E+02  0.7546771E-02  0.1288854E+00
         21   -1    0    0  503  501  0.00000000000E+00  0.00000000000E+00  0.21782724921E+04  0.21782724921E+04  0.00000000000E+00 0. -1.
         21   -1    0    0  504  502 -0.00000000000E+00 -0.00000000000E+00 -0.11882261315E+04  0.11882261315E+04  0.00000000000E+00 0. -1.
         21    1    1    2  503  505  0.17921675118E+02 -0.94084456543E+02  0.20497349779E+04  0.20519713816E+04  0.00000000000E+00 0. -1.
         21    1    1    2  504  501 -0.94686227047E+02  0.86512325377E+02  0.93064268793E+02  0.15846394593E+03  0.00000000000E+00 0. -1.
         21    1    1    2  505  506  0.42043502607E+02 -0.15971133551E+02 -0.65788309320E+03  0.65941860570E+03  0.00000000000E+00 0. -1.
         21    1    1    2  506  502  0.34721049322E+02  0.23543264717E+02 -0.49486979282E+03  0.49664469032E+03  0.00000000000E+00 0. -1.
<scales pt_clust_3="96.03876" pt_clust_4="14000.00000" pt_clust_5="87.42499" pt_clust_6="39.73848"></scales>
<clustering>
<clus scale="   39.738">  5  6 -1 -1</clus>
<clus scale="   87.425">  2  5  1 -1</clus>
<clus scale="   96.039">  1  3  2 -1</clus>
<clus scale="   96.039">  1  3  2 -1</clus>
</clustering>
</event>
<event>
 6    0  0.2036847E+002  0.1242921E+03  0.7546771E-02  0.1236180E+00
         21   -1    0    0  504  501  0.00000000000E+00  0.00000000000E+00  0.23501960489E+03  0.23501960489E+03  0.00000000000E+00 0.  1.
         21   -1    0    0  506  502 -0.00000000000E+00 -0.00000000000E+00 -0.23194418317E+04  0.23194418317E+04  0.00000000000E+00 0.  1.
         21    1    1    2  503  501 -0.13000191754E+03 -0.43207925520E+02  0.19511589048E+03  0.23840644729E+03  0.00000000000E+00 0.  1.
         21    1    1    2  504  505  0.31563206328E+02 -0.29712170257E+02 -0.40506550418E+02  0.59328152524E+02  0.00000000000E+00 0.  1.
         21    1    1    2  505  502  0.15781110983E+03  0.70849643136E+02 -0.20762400409E+04  0.20834338785E+04  0.00000000000E+00 0.  1.
         21    1    1    2  506  503 -0.59372398610E+02  0.20704526402E+01 -0.16279152597E+03  0.17329295836E+03  0.00000000000E+00 0.  1.
<scales pt_clust_3="124.29208" pt_clust_4="43.34800" pt_clust_5="14000.00000" pt_clust_6="58.65402"></scales>
<clustering>
<clus scale="   43.348">  1  4  2 -1</clus>
<clus scale="   58.654">  2  6  1 -1</clus>
<clus scale="  124.292">  1  3  2 -1</clus>
<clus scale="   43.348">  1  3  2 -1</clus>
</clustering>
</event>
<event>
 6    0  0.2036847E+002  0.1393250E+03  0.7546771E-02  0.1214240E+00
         21   -1    0    0  506  501  0.00000000000E+00  0.00000000000E+00  0.16946081767E+03  0.16946081767E+03  0.00000000000E+00 0. -1.
         21   -1    0    0  504  502 -0.00000000000E+00 -0.00000000000E+00 -0.36408230745E+03  0.36408230745E+03  0.00000000000E+00 0.  1.
         21    1    1    2  503  505  0.45166731923E+02  0.21313120684E+02 -0.94155386808E+02  0.10658104733E+03  0.00000000000E+00 0.  1.
         21    1    1    2  504  503  0.87590923920E+02 -0.20379285874E+02 -0.18282728829E+03  0.20374813518E+03  0.00000000000E+00 0.  1.
         21    1    1    2  505  501 -0.12521690541E+03 -0.60490367905E+02  0.85248670598E+02  0.16311251898E+03  0.00000000000E+00 0. -1.
         21    1    1    2  506  502 -0.75407504367E+01  0.59556533096E+02 -0.28874852801E+01  0.60101423633E+02  0.00000000000E+00 0.  1.
<scales pt_clust_3="32.98656" pt_clust_4="32.98656" pt_clust_5="132.10650" pt_clust_6="60.03202"></scales>
<clustering>
<clus scale="   32.987">  3  4 -1 -1</clus>
<clus scale="   60.032">  1  6  2 -1</clus>
<clus scale="  132.107">  1  5  2 -1</clus>
<clus scale="   60.032">  1  3  2 -1</clus>
</clustering>
</event>
<event>
 6    0  0.2036847E+002  0.3451901E+03  0.7546771E-02  0.1064607E+00
         21   -1    0    0  505  501  0.00000000000E+00  0.00000000000E+00  0.47590540272E+03  0.47590540272E+03  0.00000000000E+00 0. -1.
         21   -1    0    0  506  502 -0.00000000000E+00 -0.00000000000E+00 -0.23721938610E+03  0.23721938610E+03  0.00000000000E+00 0. -1.
         21    1    1    2  503  502 -0.15142474383E+03 -0.15301585499E+03  0.66749973990E+02  0.22538603317E+03  0.00000000000E+00 0. -1.
         21    1    1    2  504  501  0.62499275127E+02  0.85529344567E+02  0.18744064412E+02  0.10757680105E+03  0.00000000000E+00 0. -1.
         21    1    1    2  505  503 -0.64221055613E+01 -0.12919469455E+03  0.56379023678E+02  0.14110672150E+03  0.00000000000E+00 0. -1.
         21    1    1    2  506  504  0.95347574264E+02  0.19668120497E+03  0.96812954531E+02  0.23905523310E+03  0.00000000000E+00 0. -1.
<scales pt_clust_3="93.65625" pt_clust_4="32.96270" pt_clust_5="93.65625" pt_clust_6="326.80322"></scales>
<clustering>
<clus scale="   32.963">  4  6 -1 -1</clus>
<clus scale="   93.656">  3  5 -1 -1</clus>
<clus scale="  326.803">  2  4  1 -1</clus>
<clus scale="  345.190">  1  3  2 -1</clus>
</clustering>
</event>
<event>
 6    0  0.2036847E+002  0.2584939E+03  0.7546771E-02  0.1108052E+00
         21   -1    0    0  506  501  0.00000000000E+00  0.00000000000E+00  0.12124234747E+03  0.12124234747E+03  0.00000000000E+00 0. -1.
         21   -1    0    0  501  502 -0.00000000000E+00 -0.00000000000E+00 -0.94958994597E+03  0.94958994597E+03  0.00000000000E+00 0.  1.
         21    1    1    2  503  505 -0.28197407462E+02  0.45312613804E+02 -0.24510970412E+03  0.25085273331E+03  0.00000000000E+00 0.  1.
         21    1    1    2  504  503  0.51038619795E+02 -0.88082125924E+02 -0.24659191203E+02  0.10474482006E+03  0.00000000000E+00 0. -1.
         21    1    1    2  505  502 -0.27815404883E+02  0.19692458193E+03 -0.51929423988E+03  0.55607508062E+03  0.00000000000E+00 0.  1.
         21    1    1    2  506  504  0.49741925497E+01 -0.15415506981E+03 -0.39284463308E+02  0.15915965945E+03  0.00000000000E+00 0. -1.
<scales pt_clust_3="36.64036" pt_clust_4="49.68759" pt_clust_5="36.64036" pt_clust_6="256.04059"></scales>
<clustering>
<clus scale="   36.640">  3  5 -1 -1</clus>
<clus scale="   49.688">  4  6 -1 -1</clus>
<clus scale="  256.041">  1  4  2 -1</clus>
<clus scale="  256.041">  1  3  2 -1</clus>
</clustering>
</event>
<event>
 6    0  0.2036847E+002  0.2575067E+03  0.7546771E-02  0.1108651E+00
         21   -1    0    0  503  501  0.00000000000E+00  0.00000000000E+00  0.18194935503E+03  0.18194935503E+03  0.00000000000E+00 0.  1.
         21   -1    0    0  501  502 -0.00000000000E+00 -0.00000000000E+00 -0.20906859503E+04  0.20906859503E+04  0.00000000000E+00 0. -1.
         21    1    1    2  503  506  0.24456870582E+02 -0.20671028013E+03  0.91198966540E+02  0.22725432873E+03  0.00000000000E+00 0.  1.
         21    1    1    2  504  502 -0.22849639185E+02  0.15473496882E+03 -0.14728699988E+04  0.14811519334E+04  0.00000000000E+00 0. -1.
         21    1    1    2  505  504 -0.15695017385E+02  0.89377815212E+02 -0.51434088929E+03  0.52228467124E+03  0.00000000000E+00 0. -1.
         21    1    1    2  506  505  0.14087785988E+02 -0.37402503905E+02 -0.12724673710E+02  0.41944371893E+02  0.00000000000E+00 0.  1.
<scales pt_clust_3="31.69850" pt_clust_4="254.46240" pt_clust_5="46.17082" pt_clust_6="31.69850"></scales>
<clustering>
<clus scale="   31.698">  3  6 -1 -1</clus>
<clus scale="   46.171">  4  5 -1 -1</clus>
<clus scale="  254.462">  2  4  1 -1</clus>
<clus scale="  257.507">  1  3  2 -1</clus>
</clustering>
</event>
<event>
 6    0  0.2036847E+002  0.1141150E+03  0.7546771E-02  0.1253134E+00
         21   -1    0    0  505  501  0.00000000000E+00  0.00000000000E+00  0.21001078328E+03  0.21001078328E+03  0.00000000000E+00 0. -1.
         21   -1    0    0  503  502 -0.00000000000E+00 -0.00000000000E+00 -0.42724748294E+03  0.42724748294E+03  0.00000000000E+00 0. -1.
         21    1    1    2  503  504  0.56302398888E+02 -0.29637481610E+02 -0.15105657962E+03  0.16390982485E+03  0.00000000000E+00 0. -1.
         21    1    1    2  504  506  0.32950705846E+02 -0.27077953158E+02 -0.23248651515E+03  0.23636612340E+03  0.00000000000E+00 0. -1.
         21    1    1    2  505  502 -0.33352787811E+02 -0.33861576635E+02  0.11137867339E+02  0.48816666374E+02  0.00000000000E+00 0. -1.
         21    1    1    2  506  501 -0.55900316922E+02  0.90577011402E+02  0.15516852778E+03  0.18816565159E+03  0.00000000000E+00 0. -1.
<scales pt_clust_3="35.99375" pt_clust_4="35.99375" pt_clust_5="47.52909" pt_clust_6="105.30648"></scales>
<clustering>
<clus scale="   35.994">  3  4 -1 -1</clus>
<clus scale="   47.529">  1  5  2 -1</clus>
<clus scale="  105.306">  1  6  2 -1</clus>
<clus scale="   47.529">  1  3  2 -1</clus>
</clustering>
</event>
<event>
 6    0  0.2036847E+002  0.1336687E+03  0.7546771E-02  0.1222111E+00
         21   -1    0    0  506  501  0.00000000000E+00  0.00000000000E+00  0.17345505893E+03  0.17345505893E+03  0.00000000000E+00 0.  1.
         21   -1    0    0  504  502 -0.00000000000E+00 -0.00000000000E+00 -0.18671869726E+03  0.18671869726E+03  0.00000000000E+00 0.  1.
         21    1    1    2  503  502 -0.46287354744E+02  0.64335723664E+01 -0.48046541946E+02  0.67025221041E+02  0.00000000000E+00 0. -1.
         21    1    1    2  504  501 -0.10345043428E+03 -0.22848693951E+02  0.66968086881E+02  0.12533467129E+03  0.00000000000E+00 0.  1.
         21    1    1    2  505  503  0.11011180084E+03  0.31881709394E+02 -0.45360504258E+02  0.12328271340E+03  0.00000000000E+00 0.  1.
         21    1    1    2  506  505  0.39625988183E+02 -0.15466587809E+02  0.13175320990E+02  0.44531150458E+02  0.00000000000E+00 0.  1.
<scales pt_clust_3="46.73232" pt_clust_4="115.89900" pt_clust_5="40.56603" pt_clust_6="40.56603"></scales>
<clustering>
<clus scale="   40.566">  5  6 -1 -1</clus>
<clus scale="   46.732">  2  3  1 -1</clus>
<clus scale="  115.899">  1  4  2 -1</clus>
<clus scale="  115.899">  1  3  2 -1</clus>
</clustering>
</event>
<event>
 6    0  0.2036847E+002  0.1070307E+03  0.7546771E-02  0.1266170E+00
         21   -1    0    0  503  501  0.00000000000E+00  0.00000000000E+00  0.46290111949E+03  0.46290111949E+03  0.00000000000E+00 0. -1.
         21   -1    0    0  505  502 -0.00000000000E+00 -0.00000000000E+00 -0.16860072674E+03  0.16860072674E+03  0.00000000000E+00 0. -1.
         21    1    1    2  503  506 -0.86595027664E+02  0.25880469018E+02  0.18431765046E+03  0.20528393450E+03  0.00000000000E+00 0.  1.
         21    1    1    2  504  501  0.13667051689E+03 -0.19423580081E+02  0.23173347584E+03  0.26973414592E+03  0.00000000000E+00 0. -1.
         21    1    1    2  505  504 -0.96588158498E+01 -0.40929737988E+02 -0.34778576129E+02  0.54571838277E+02  0.00000000000E+00 0. -1.
         21    1    1    2  506  502 -0.40416673372E+02  0.34472849052E+02 -0.86972157421E+02  0.10191192754E+03  0.00000000000E+00 0. -1.
<scales pt_clust_3="14000.00000" pt_clust_4="107.03069" pt_clust_5="42.05397" pt_clust_6="47.89005"></scales>
<clustering>
<clus scale="   42.054">  2  5  1 -1</clus>
<clus scale="   47.890">  2  6  1 -1</clus>
<clus scale="  107.031">  2  4  1 -1</clus>
<clus scale="  107.031">  1  3  2 -1</clus>
</clustering>
</event>
<event>
 6    0  0.2036847E+002  0.1220902E+03  0.7546771E-02  0.1239688E+00
         21   -1    0    0  504  501  0.00000000000E+00  0.00000000000E+00  0.14534617668E+04  0.14534617668E+04  0.00000000000E+00 0.  1.
         21   -1    0    0  505  502 -0.00000000000E+00 -0.00000000000E+00 -0.19291687453E+02  0.19291687453E+02  0.00000000000E+00 0.  1.
         21    1    1    2  503  501 -0.10002090742E+03  0.31317897077E+02  0.20591634170E+03  0.23105525828E+03  0.00000000000E+00 0.  1.
         21    1    1    2  504  506  0.77073915000E+02  0.10351217828E+02  0.91526749139E+03  0.91856524912E+03  0.00000000000E+00 0.  1.
         21    1    1    2  505  503 -0.15073212459E+02 -0.26331880325E+02  0.64408084401E+02  0.71196706325E+02  0.00000000000E+00 0. -1.
         21    1    1    2  506  502  0.38020204881E+02 -0.15337234580E+02  0.24857816181E+03  0.25193624049E+03  0.00000000000E+00 0.  1.
<scales pt_clust_3="112.42995" pt_clust_4="34.84963" pt_clust_5="30.34089" pt_clust_6="34.84963"></scales>
<clustering>
<clus scale="   30.341">  2  5  1 -1</clus>
<clus scale="   34.850">  4  6 -1 -1</clus>
<clus scale="  112.430">  2  3  1 -1</clus>
<clus scale="  122.090">  1  3  2 -1</clus>
</clustering>
</event>
<event>
 6    0  0.2036847E+002  0.8619013E+02  0.7546771E-02  0.1312349E+00
         21   -1    0    0  506  501  0.00000000000E+00  0.00000000000E+00  0.17833588347E+04  0.17833588347E+04  0.00000000000E+00 0.  1.
         21   -1    0    0  505  502 -0.00000000000E+00 -0.00000000000E+00 -0.21228626081E+03  0.21228626081E+03  0.00000000000E+00 0. -1.
         21    1    1    2  503  501  0.42982067138E+02  0.24922432159E+02  0.23763514187E+03  0.24277365255E+03  0.00000000000E+00 0.  1.
         21    1    1    2  504  503 -0.13534560124E+02  0.81587612279E+02 -0.54837191404E+02  0.99231246874E+02  0.00000000000E+00 0. -1.
         21    1    1    2  505  504  0.37543855439E+02  0.11947947292E+01 -0.12732094660E+03  0.13274634480E+03  0.00000000000E+00 0. -1.
         21    1    1    2  506  502 -0.66991362453E+02 -0.10770483917E+03  0.15155955700E+04  0.15208938512E+04  0.00000000000E+00 0.  1.
<scales pt_clust_3="50.72115" pt_clust_4="14000.00000" pt_clust_5="37.56286" pt_clust_6="86.19013"></scales>
<clustering>
<clus scale="   37.563">  2  5  1 -1</clus>
<clus scale="   50.721">  1  3  2 -1</clus>
<clus scale="   86.190">  1  6  2 -1</clus>
<clus scale="   50.721">  1  3  2 -1</clus>
</clustering>
</event>
<event>
 6    0  0.2036847E+002  0.1056718E+03  0.7546771E-02  0.1268802E+00
         21   -1    0    0  505  501  0.00000000000E+00  0.00000000000E+00  0.53948004836E+03  0.53948004836E+03  0.00000000000E+00 0.  1.
         21   -1    0    0  506  502 -0.00000000000E+00 -0.00000000000E+00 -0.34597645189E+03  0.34597645189E+03  0.00000000000E+00 0.  1.
         21    1    1    2  503  501  0.46537154072E+02  0.26341258588E+02  0.27540541773E+03  0.28054894890E+03  0.00000000000E+00 0.  1.
         21    1    1    2  504  503  0.63006745474E+01 -0.84976620791E+02 -0.88239847271E+02  0.12266619431E+03  0.00000000000E+00 0.  1.
         21    1    1    2  505  502 -0.30011944594E+02  0.84370732415E+02  0.23475171156E+03  0.25125187241E+03  0.00000000000E+00 0.  1.
         21    1    1    2  506  504 -0.22825884026E+02 -0.25735370212E+02 -0.22841368556E+03  0.23098948463E+03  0.00000000000E+00 0.  1.
<scales pt_clust_3="52.75576" pt_clust_4="14000.00000" pt_clust_5="105.67175" pt_clust_6="34.39957"></scales>
<clustering>
<clus scale="   34.400">  2  6  1 -1</clus>
<clus scale="   52.756">  1  3  2 -1</clus>
<clus scale="  105.672">  1  5  2 -1</clus>
<clus scale="   52.756">  1  3  2 -1</clus>
</clustering>
</event>
<event>
 6    0  0.2036847E+002  0.7570396E+02  0.7546771E-02  0.1341705E+00
         21   -1    0    0  506  501  0.00000000000E+00  0.00000000000E+00  0.37088578440E+03  0.37088578440E+03  0.00000000000E+00 0.  1.
         21   -1    0    0  505  502 -0.00000000000E+00 -0.00000000000E+00 -0.20098199922E+03  0.20098199922E+03  0.00000000000E+00 0.  1.
         21    1    1    2  503  501 -0.73492209401E+02 -0.11734290465E+02  0.28239422643E+03  0.29203646610E+03  0.00000000000E+00 0.  1.
         21    1    1    2  504  503 -0.56201403241E+02  0.84006354896E+00  0.18137590809E+02  0.59061625726E+02  0.00000000000E+00 0.  1.
         21    1    1    2  505  504  0.62072142840E+01  0.33020358022E+02  0.72366851997E+01  0.34369218288E+02  0.00000000000E+00 0.  1.
         21    1    1    2  506  502  0.12348639836E+03 -0.22126131106E+02 -0.13786471725E+03  0.18640047350E+03  0.00000000000E+00 0.  1.
<scales pt_clust_3="75.70396" pt_clust_4="55.70136" pt_clust_5="33.59871" pt_clust_6="14000.00000"></scales>
<clustering>
<clus scale="   33.599">  2  5  1 -1</clus>
<clus scale="   55.701">  2  4  1 -1</clus>
<clus scale="   75.704">  1  3  2 -1</clus>
<clus scale="   75.704">  1  3  2 -1</clus>
</clustering>
</event>
<event>
 6    0  0.2435653E+002  0.1150723E+03  0.7546771E-02  0.1251455E+00
         21   -1    0    0  503  501  0.00000000000E+00  0.00000000000E+00  0.22585890599E+04  0.22585890599E+04  0.00000000000E+00 0.  1.
         21   -1    0    0  506  502 -0.00000000000E+00 -0.00000000000E+00 -0.41114185278E+03  0.41114185278E+03  0.00000000000E+00 0.  1.
         21    1    1    2  503  504 -0.74251867324E+01  0.35769645215E+02  0.26456917829E+03  0.26707948446E+03  0.00000000000E+00 0.  1.
         21    1    1    2  504  505  0.12629348278E+03 -0.32672510772E+02  0.19618437385E+04  0.19661760835E+04  0.00000000000E+00 0.  1.
         21    1    1    2  505  502 -0.55127294931E+02  0.13213035016E+02 -0.36479315311E+03  0.36917156919E+03  0.00000000000E+00 0.  1.
         21    1    1    2  506  501 -0.63741001120E+02 -0.16310169458E+02 -0.14172556555E+02  0.67303775606E+02  0.00000000000E+00 0.  1.
<scales pt_clust_3="36.53219" pt_clust_4="115.07228" pt_clust_5="56.70575" pt_clust_6="14000.00000"></scales>
<clustering>
<clus scale="   36.532">  1  3  2 -1</clus>
<clus scale="   56.706">  2  5  1 -1</clus>
<clus scale="  115.072">  1  4  2 -1</clus>
<clus scale="   36.532">  1  3  2 -1</clus>
</clustering>
</event>
<event>
 6    0  0.2036847E+002  0.2065703E+03  0.7546771E-02  0.1144311E+00
         21   -1    0    0  505  501  0.00000000000E+00  0.00000000000E+00  0.25195484899E+03  0.25195484899E+03  0.00000000000E+00 0. -1.
         21   -1    0    0  503  502 -0.00000000000E+00 -0.00000000000E+00 -0.32002168768E+03  0.32002168768E+03  0.00000000000E+00 0. -1.
         21    1    1    2  503  504 -0.40710931038E+01 -0.72848266836E+02 -0.52510572973E+01  0.73150648547E+02  0.00000000000E+00 0. -1.
         21    1    1    2  504  501 -0.20104372211E+02 -0.13741016640E+03  0.12810437461E+03  0.18893509575E+03  0.00000000000E+00 0. -1.
         21    1    1    2  505  506  0.32295311529E+02  0.14067033689E+03 -0.50405237477E+02  0.15287844450E+03  0.00000000000E+00 0. -1.
         21    1    1    2  506  502 -0.81198462149E+01  0.69588096344E+02 -0.14051491852E+03  0.15701234786E+03  0.00000000000E+00 0. -1.
<scales pt_clust_3="68.00689" pt_clust_4="68.00689" pt_clust_5="184.03360" pt_clust_6="70.06022"></scales>
<clustering>
<clus scale="   68.007">  3  4 -1 -1</clus>
<clus scale="   70.060">  2  6  1 -1</clus>
<clus scale="  184.034">  2  5  1 -1</clus>
<clus scale="  206.570">  1  3  2 -1</clus>
</clustering>
</event>
<event>
 6    0  0.2036847E+002  0.1265542E+03  0.7546771E-02  0.1232660E+00
         21   -1    0    0  505  501  0.00000000000E+00  0.00000000000E+00  0.31911901908E+03  0.31911901908E+03  0.00000000000E+00 0.  1.
         21   -1    0    0  504  502 -0.00000000000E+00 -0.00000000000E+00 -0.52195438525E+03  0.52195438525E+03  0.00000000000E+00 0. -1.
         21    1    1    2  503  501 -0.22603415775E+02  0.84530940559E+02  0.25832980685E+03  0.27274655529E+03  0.00000000000E+00 0.  1.
         21    1    1    2  504  503  0.11765715700E+02 -0.80489819459E+02 -0.42992154832E+03  0.43754951812E+03  0.00000000000E+00 0. -1.
         21    1    1    2  505  506 -0.33645313103E+01  0.44659726430E+02  0.27971509365E+02  0.52803565901E+02  0.00000000000E+00 0.  1.
         21    1    1    2  506  502  0.14202231385E+02 -0.48700847530E+02 -0.59215134073E+02  0.77973765010E+02  0.00000000000E+00 0. -1.
<scales pt_clust_3="126.55419" pt_clust_4="14000.00000" pt_clust_5="44.78628" pt_clust_6="49.25603"></scales>
<clustering>
<clus scale="   44.786">  1  5  2 -1</clus>
<clus scale="   49.256">  2  6  1 -1</clus>
<clus scale="  126.554">  1  3  2 -1</clus>
<clus scale="   44.786">  1  3  2 -1</clus>
</clustering>
</event>
<event>
 6    0  0.2036847E+002  0.1019094E+03  0.7546771E-02  0.1276331E+00
         21   -1    0    0  506  501  0.00000000000E+00  0.00000000000E+00  0.24467321032E+03  0.24467321032E+03  0.00000000000E+00 0.  1.
         21   -1    0    0  503  502 -0.00000000000E+00 -0.00000000000E+00 -0.15080313521E+03  0.15080313521E+03  0.00000000000E+00 0.  1.
         21    1    1    2  503  504 -0.39662807068E+02  0.24341843487E+02 -0.38660121109E+02  0.60500153496E+02  0.00000000000E+00 0.  1.
         21    1    1    2  504  505 -0.51106572917E+02 -0.92191709467E+01 -0.57077290125E+02  0.77166650544E+02  0.00000000000E+00 0. -1.
         21    1    1    2  505  501 -0.35893994271E+02 -0.18386782121E+02  0.17184943819E+02  0.43838052826E+02  0.00000000000E+00 0. -1.
         21    1    1    2  506  502  0.12666337426E+03  0.32641095806E+01  0.17242254253E+03  0.21397148866E+03  0.00000000000E+00 0.  1.
<scales pt_clust_3="34.37630" pt_clust_4="34.37630" pt_clust_5="40.32930" pt_clust_6="95.21975"></scales>
<clustering>
<clus scale="   34.376">  3  4 -1 -1</clus>
<clus scale="   40.329">  1  5  2 -1</clus>
<clus scale="   95.220">  1  6  2 -1</clus>
<clus scale="   40.329">  1  3  2 -1</clus>
</clustering>
</event>
<event>
 6    0  0.2036847E+002  0.2554825E+03  0.7546771E-02  0.1109888E+00
         21   -1    0    0  506  501  0.00000000000E+00  0.00000000000E+00  0.27738867076E+03  0.27738867076E+03  0.00000000000E+00 0.  1.
         21   -1    0    0  503  502 -0.00000000000E+00 -0.00000000000E+00 -0.32120279062E+03  0.32120279062E+03  0.00000000000E+00 0.  1.
         21    1    1    2  503  505  0.33528448911E+02  0.13648885890E+02 -0.72046004581E+02  0.80629248716E+02  0.00000000000E+00 0. -1.
         21    1    1    2  504  502 -0.49964787309E+02 -0.41164258709E+02 -0.57464408976E+01  0.64992289919E+02  0.00000000000E+00 0.  1.
         21    1    1    2  505  501  0.16936114543E+03  0.11091020964E+03 -0.10690736163E+03  0.22893985269E+03  0.00000000000E+00 0.  1.
         21    1    1    2  506  504 -0.15292480703E+03 -0.83394836820E+02  0.14088568725E+03  0.22403007004E+03  0.00000000000E+00 0.  1.
<scales pt_clust_3="35.70526" pt_clust_4="56.50975" pt_clust_5="252.60388" pt_clust_6="56.50975"></scales>
<clustering>
<clus scale="   35.705">  3  5 -1 -1</clus>
<clus scale="   56.510">  4  6 -1 -1</clus>
<clus scale="  252.604">  2  3  1 -1</clus>
<clus scale="  255.483">  1  3  2 -1</clus>
</clustering>
</event>
<event>
 6    0  0.2036847E+002  0.1731013E+03  0.7546771E-02  0.1174652E+00
         21   -1    0    0  503  501  0.00000000000E+00  0.00000000000E+00  0.32556053156E+02  0.32556053156E+02  0.00000000000E+00 0.  1.
         21   -1    0    0  501  502 -0.00000000000E+00 -0.00000000000E+00 -0.13532406516E+04  0.13532406516E+04  0.00000000000E+00 0.  1.
         21    1    1    2  503  504  0.82238556011E+02 -0.32729296914E+01 -0.19104958804E+03  0.20802364590E+03  0.00000000000E+00 0.  1.
         21    1    1    2  504  506  0.99778606409E+02  0.47027443322E+02 -0.26611359309E+03  0.28806908051E+03  0.00000000000E+00 0.  1.
         21    1    1    2  505  502 -0.33941265663E+02 -0.35638647366E+02 -0.40052405265E+03  0.40353641651E+03  0.00000000000E+00 0.  1.
         21    1    1    2  506  505 -0.14807589676E+03 -0.81158662648E+01 -0.46299736469E+03  0.48616756185E+03  0.00000000000E+00 0.  1.
<scales pt_clust_3="39.25388" pt_clust_4="39.25388" pt_clust_5="49.21507" pt_clust_6="167.02982"></scales>
<clustering>
<clus scale="   39.254">  3  4 -1 -1</clus>
<clus scale="   49.215">  2  5  1 -1</clus>
<clus scale="  167.030">  2  6  1 -1</clus>
<clus scale="  173.101">  1  3  2 -1</clus>
</clustering>
</event>
<event>
 6    0  0.2036847E+002  0.2051026E+03  0.7546771E-02  0.1145504E+00
         21   -1    0    0  503  501  0.00000000000E+00  0.00000000000E+00  0.75913574734E+02  0.75913574734E+02  0.00000000000E+00 0. -1.
         21   -1    0    0  506  502 -0.00000000000E+00 -0.00000000000E+00 -0.58009394263E+03  0.58009394263E+03  0.00000000000E+00 0. -1.
         21    1    1    2  503  505 -0.45422910752E+02  0.38732607208E+02 -0.48615783035E+02  0.76986687436E+02  0.00000000000E+00 0. -1.
         21    1    1    2  504  501  0.58648348216E+02 -0.83591207498E+02 -0.19738841271E+03  0.22223704505E+03  0.00000000000E+00 0.  1.
         21    1    1    2  505  502 -0.21524632974E+01  0.14423356310E+03 -0.12971432150E+03  0.19399422421E+03  0.00000000000E+00 0. -1.
         21    1    1    2  506  504 -0.11072974166E+02 -0.99374962813E+02 -0.12846185065E+03  0.16278956067E+03  0.00000000000E+00 0. -1.
<scales pt_clust_3="49.36635" pt_clust_4="78.71147" pt_clust_5="204.03193" pt_clust_6="78.71147"></scales>
<clustering>
<clus scale="   49.366">  3  5 -1 -1</clus>
<clus scale="   78.711">  4  6 -1 -1</clus>
<clus scale="  204.032">  1  3  2 -1</clus>
<clus scale="  204.032">  1  3  2 -1</clus>
</clustering>
</event>
<event>
 6    0  0.2036847E+002  0.1663359E+03  0.7546771E-02  0.1181724E+00
         21   -1    0    0  503  501  0.00000000000E+00  0.00000000000E+00  0.25999765681E+03  0.25999765681E+03  0.00000000000E+00 0.  1.
         21   -1    0    0  505  502 -0.00000000000E+00 -0.00000000000E+00 -0.21856170172E+03  0.21856170172E+03  0.00000000000E+00 0. -1.
         21    1    1    2  503  506  0.24194732873E+02  0.16021864063E+03  0.11118809078E+03  0.19651511249E+03  0.00000000000E+00 0.  1.
         21    1    1    2  504  502  0.27185195200E+02 -0.10614531078E+03 -0.78415853485E+02  0.13474014961E+03  0.00000000000E+00 0. -1.
         21    1    1    2  505  501 -0.88440458921E+02 -0.12149625999E+02  0.16558702653E+02  0.90793825890E+02  0.00000000000E+00 0.  1.
         21    1    1    2  506  504  0.37060530849E+02 -0.41923703852E+02 -0.78949848524E+01  0.56510270547E+02  0.00000000000E+00 0. -1.
<scales pt_clust_3="156.81967" pt_clust_4="39.62899" pt_clust_5="89.27109" pt_clust_6="39.62899"></scales>
<clustering>
<clus scale="   39.629">  4  6 -1 -1</clus>
<clus scale="   89.271">  1  5  2 -1</clus>
<clus scale="  156.820">  1  3  2 -1</clus>
<clus scale="   89.271">  1  3  2 -1</clus>
</clustering>
</event>
<event>
 6    0  0.2036847E+002  0.1239279E+03  0.7546771E-02  0.1236754E+00
         21   -1    0    0  503  501  0.00000000000E+00  0.00000000000E+00  0.68309939597E+03  0.68309939597E+03  0.00000000000E+00 0. -1.
         21   -1    0    0  504  502 -0.00000000000E+00 -0.00000000000E+00 -0.11047608620E+03  0.11047608620E+03  0.00000000000E+00 0.  1.
         21    1    1    2  503  506 -0.32500754459E+02  0.10634764446E+03  0.54582668711E+03  0.55703939975E+03  0.00000000000E+00 0. -1.
         21    1    1    2  504  505  0.47917879824E+02 -0.83284502067E+02 -0.68496325400E+02  0.11800075459E+03  0.00000000000E+00 0.  1.
         21    1    1    2  505  501 -0.34069290530E+02  0.50697422583E+01  0.63107494965E+02  0.71895582371E+02  0.00000000000E+00 0. -1.
         21    1    1    2  506  502  0.18652165164E+02 -0.28132884649E+02  0.32185453107E+02  0.46639745451E+02  0.00000000000E+00 0. -1.
<scales pt_clust_3="123.92788" pt_clust_4="14000.00000" pt_clust_5="33.50007" pt_clust_6="33.75444"></scales>
<clustering>
<clus scale="   33.754">  2  6  1 -1</clus>
<clus scale="   33.500">  1  5  2 -1</clus>
<clus scale="  123.928">  1  3  2 -1</clus>
<clus scale="   33.500">  1  3  2 -1</clus>
</clustering>
</event>
<event>
 6    0  0.2433320E+002  0.8563665E+02  0.7546771E-02  0.1313776E+00
         21   -1    0    0  506  501  0.00000000000E+00  0.00000000000E+00  0.22331676591E+04  0.22331676591E+04  0.00000000000E+00 0.  1.
         21   -1    0    0  505  502 -0.00000000000E+00 -0.00000000000E+00 -0.13087420481E+04  0.13087420481E+04  0.00000000000E+00 0. -1.
         21    1    1    2  503  501  0.11146721392E+02 -0.39730236789E+02  0.27209018545E+03  0.27520139922E+03  0.00000000000E+00 0.  1.
         21    1    1    2  504  502 -0.40028196104E+02 -0.41238457598E+02 -0.54872054252E+02  0.79459481538E+02  0.00000000000E+00 0. -1.
         21    1    1    2  505  503  0.24355732277E+01  0.11848346406E+03 -0.12369177235E+04  0.12425818757E+04  0.00000000000E+00 0. -1.
         21    1    1    2  506  504  0.26445901484E+02 -0.37514769676E+02  0.19441252032E+04  0.19446669507E+04  0.00000000000E+00 0.  1.
<scales pt_clust_3="41.26428" pt_clust_4="57.60116" pt_clust_5="85.63665" pt_clust_6="14000.00000"></scales>
<clustering>
<clus scale="   41.264">  1  3  2 -1</clus>
<clus scale="   57.601">  2  4  1 -1</clus>
<clus scale="   85.637">  2  5  1 -1</clus>
<clus scale="   41.264">  1  3  2 -1</clus>
</clustering>
</event>
<event>
 6    0  0.2036847E+002  0.1116191E+03  0.7546771E-02  0.1257601E+00
         21   -1    0    0  506  501  0.00000000000E+00  0.00000000000E+00  0.22522870876E+03  0.22522870876E+03  0.00000000000E+00 0. -1.
         21   -1    0    0  504  502 -0.00000000000E+00 -0.00000000000E+00 -0.55020115781E+03  0.55020115781E+03  0.00000000000E+00 0. -1.
         21    1    1    2  503  502 -0.11996050449E+03  0.13188227466E+01 -0.45193166662E+03  0.46758367511E+03  0.00000000000E+00 0. -1.
         21    1    1    2  504  501  0.21160034150E+02 -0.35762963291E+02 -0.45804172324E+02  0.61844634294E+02  0.00000000000E+00 0. -1.
         21    1    1    2  505  503  0.64023909974E+02  0.44364437080E+02  0.91373054961E+01  0.78426747208E+02  0.00000000000E+00 0. -1.
         21    1    1    2  506  505  0.34776560368E+02 -0.99202965351E+01  0.16362608441E+03  0.16757480996E+03  0.00000000000E+00 0. -1.
<scales pt_clust_3="111.61911" pt_clust_4="45.20830" pt_clust_5="14000.00000" pt_clust_6="36.16381"></scales>
<clustering>
<clus scale="   36.164">  1  6  2 -1</clus>
<clus scale="   45.208">  1  4  2 -1</clus>
<clus scale="  111.619">  2  3  1 -1</clus>
<clus scale="   36.164">  1  3  2 -1</clus>
</clustering>
</event>
<event>
 6    0  0.2036847E+002  0.1077693E+03  0.7546771E-02  0.1264757E+00
         21   -1    0    0  504  501  0.00000000000E+00  0.00000000000E+00  0.31700840833E+03  0.31700840833E+03  0.00000000000E+00 0. -1.
         21   -1    0    0  505  502 -0.00000000000E+00 -0.00000000000E+00 -0.17683107401E+03  0.17683107401E+03  0.00000000000E+00 0. -1.
         21    1    1    2  503  502  0.11021569873E+02 -0.66381247225E+02 -0.25115382906E+02  0.71824281717E+02  0.00000000000E+00 0. -1.
         21    1    1    2  504  503 -0.72269129902E+02  0.50550009973E+02  0.22659933547E+03  0.24315712920E+03  0.00000000000E+00 0. -1.
         21    1    1    2  505  506  0.96021469737E+02  0.15834786875E+02 -0.90921421283E+02  0.13318246121E+03  0.00000000000E+00 0. -1.
         21    1    1    2  506  501 -0.34773909708E+02 -0.35496237351E-02  0.29614803051E+02  0.45675610218E+02  0.00000000000E+00 0. -1.
<scales pt_clust_3="66.87567" pt_clust_4="107.76927" pt_clust_5="14000.00000" pt_clust_6="34.77391"></scales>
<clustering>
<clus scale="   34.774">  1  6  2 -1</clus>
<clus scale="   66.876">  2  3  1 -1</clus>
<clus scale="  107.769">  1  4  2 -1</clus>
<clus scale="   34.774">  1  3  2 -1</clus>
</clustering>
</event>
<event>
 6    0  0.2036847E+002  0.8877488E+02  0.7546771E-02  0.1305846E+00
         21   -1    0    0  504  501  0.00000000000E+00  0.00000000000E+00  0.12600559353E+03  0.12600559353E+03  0.00000000000E+00 0. -1.
         21   -1    0    0  506  502 -0.00000000000E+00 -0.00000000000E+00 -0.49224374351E+03  0.49224374351E+03  0.00000000000E+00 0.  1.
         21    1    1    2  503  501 -0.20355692351E+02  0.26099951488E+02 -0.17991659972E+02  0.37673087307E+02  0.00000000000E+00 0. -1.
         21    1    1    2  504  505  0.76493855562E+02  0.47949186278E+02  0.87926827799E+02  0.12602206731E+03  0.00000000000E+00 0. -1.
         21    1    1    2  505  502 -0.48232349522E+02  0.47422930673E+01 -0.15068638590E+03  0.15828845750E+03  0.00000000000E+00 0. -1.
         21    1    1    2  506  503 -0.79058136890E+01 -0.78791430832E+02 -0.28548693191E+03  0.29626572491E+03  0.00000000000E+00 0.  1.
<scales pt_clust_3="33.09927" pt_clust_4="14000.00000" pt_clust_5="49.21761" pt_clust_6="88.77488"></scales>
<clustering>
<clus scale="   33.099">  1  3  2 -1</clus>
<clus scale="   49.218">  2  5  1 -1</clus>
<clus scale="   88.775">  2  6  1 -1</clus>
<clus scale="   33.099">  1  3  2 -1</clus>
</clustering>
</event>
<event>
 6    0  0.2036847E+002  0.1215347E+03  0.7546771E-02  0.1240587E+00
         21   -1    0    0  504  501  0.00000000000E+00  0.00000000000E+00  0.58913769122E+03  0.58913769122E+03  0.00000000000E+00 0.  1.
         21   -1    0    0  503  502 -0.00000000000E+00 -0.00000000000E+00 -0.14069026043E+03  0.14069026043E+03  0.00000000000E+00 0.  1.
         21    1    1    2  503  506  0.46028118796E+01 -0.30149234404E+02 -0.19294159017E+02  0.36089150510E+02  0.00000000000E+00 0.  1.
         21    1    1    2  504  505  0.13616992620E+03 -0.20652303583E+02  0.33625128501E+03  0.36336440815E+03  0.00000000000E+00 0.  1.
         21    1    1    2  505  502 -0.11941594884E+03 -0.10788044375E+02 -0.55663405169E+02  0.13219290984E+03  0.00000000000E+00 0.  1.
         21    1    1    2  506  501 -0.21356789240E+02  0.61589582363E+02  0.18715370997E+03  0.19818148314E+03  0.00000000000E+00 0.  1.
<scales pt_clust_3="30.49856" pt_clust_4="121.53472" pt_clust_5="14000.00000" pt_clust_6="63.72436"></scales>
<clustering>
<clus scale="   30.499">  2  3  1 -1</clus>
<clus scale="   63.724">  1  6  2 -1</clus>
<clus scale="  121.535">  1  4  2 -1</clus>
<clus scale="   63.724">  1  3  2 -1</clus>
</clustering>
</event>
<event>
 6    0  0.2036847E+002  0.1200248E+03  0.7546771E-02  0.1243056E+00
         21   -1    0    0  505  501  0.00000000000E+00  0.00000000000E+00  0.48379461811E+03  0.48379461811E+03  0.00000000000E+00 0. -1.
         21   -1    0    0  503  502 -0.00000000000E+00 -0.00000000000E+00 -0.10541880682E+03  0.10541880682E+03  0.00000000000E+00 0. -1.
         21    1    1    2  503  504  0.41793581304E+02 -0.11169468214E+03 -0.29265739127E+02  0.12279612756E+03  0.00000000000E+00 0. -1.
         21    1    1    2  504  501  0.30183325590E+02  0.88205578095E+02  0.29644377451E+03  0.31075741117E+03  0.00000000000E+00 0. -1.
         21    1    1    2  505  506 -0.42969445616E+02  0.43198746830E+02  0.10295577857E+03  0.11963443202E+03  0.00000000000E+00 0. -1.
         21    1    1    2  506  502 -0.29007461278E+02 -0.19709642784E+02  0.82419973435E+01  0.36025454177E+02  0.00000000000E+00 0. -1.
<scales pt_clust_3="120.02478" pt_clust_4="14000.00000" pt_clust_5="61.60110" pt_clust_6="35.06997"></scales>
<clustering>
<clus scale="   35.070">  2  6  1 -1</clus>
<clus scale="   61.601">  1  5  2 -1</clus>
<clus scale="  120.025">  2  3  1 -1</clus>
<clus scale="   61.601">  1  3  2 -1</clus>
</clustering>
</event>
<event>
 6    0  0.2036847E+002  0.1382774E+03  0.7546771E-02  0.1215666E+00
         21   -1    0    0  503  501  0.00000000000E+00  0.00000000000E+00  0.85246896192E+03  0.85246896192E+03  0.00000000000E+00 0.  1.
         21   -1    0    0  505  502 -0.00000000000E+00 -0.00000000000E+00 -0.72728697427E+02  0.72728697427E+02  0.00000000000E+00 0. -1.
         21    1    1    2  503  504 -0.24412916197E+02 -0.11774935632E+03  0.57745371841E+03  0.58984209607E+03  0.00000000000E+00 0.  1.
         21    1    1    2  504  506 -0.27124335127E+02  0.47205631327E+02  0.22732448059E+02  0.58998859139E+02  0.00000000000E+00 0.  1.
         21    1    1    2  505  501  0.45666866545E+02 -0.10457049713E+02  0.18888592172E+03  0.19460910568E+03  0.00000000000E+00 0. -1.
         21    1    1    2  506  502  0.58703847791E+01  0.81000774708E+02 -0.93318236926E+01  0.81747598462E+02  0.00000000000E+00 0. -1.
<scales pt_clust_3="127.98148" pt_clust_4="42.86908" pt_clust_5="46.84883" pt_clust_6="42.86908"></scales>
<clustering>
<clus scale="   42.869">  4  6 -1 -1</clus>
<clus scale="   46.849">  1  5  2 -1</clus>
<clus scale="  127.981">  1  3  2 -1</clus>
<clus scale="   46.849">  1  3  2 -1</clus>
</clustering>
</event>
<event>
 6    0  0.2036847E+002  0.2391925E+03  0.7546771E-02  0.1120332E+00
         21   -1    0    0  503  501  0.00000000000E+00  0.00000000000E+00  0.48578680961E+03  0.48578680961E+03  0.00000000000E+00 0. -1.
         21   -1    0    0  505  502 -0.00000000000E+00 -0.00000000000E+00 -0.20156639923E+03  0.20156639923E+03  0.00000000000E+00 0. -1.
         21    1    1    2  503  506  0.12176865451E+02 -0.29635509697E+02  0.33498871299E+02  0.46354221658E+02  0.00000000000E+00 0. -1.
         21    1    1    2  504  501 -0.17862632307E+03 -0.16132098757E+03  0.28238274142E+03  0.37104155694E+03  0.00000000000E+00 0. -1.
         21    1    1    2  505  504  0.22165357995E+02  0.22886133038E+02 -0.36432760400E+02  0.48398597199E+02  0.00000000000E+00 0. -1.
         21    1    1    2  506  502  0.14428409963E+03  0.16807036423E+03  0.47715580653E+01  0.22155883305E+03  0.00000000000E+00 0. -1.
<scales pt_clust_3="31.54698" pt_clust_4="239.19248" pt_clust_5="31.86029" pt_clust_6="14000.00000"></scales>
<clustering>
<clus scale="   31.860">  2  5  1 -1</clus>
<clus scale="   31.547">  1  3  2 -1</clus>
<clus scale="  239.192">  1  4  2 -1</clus>
<clus scale="   31.547">  1  3  2 -1</clus>
</clustering>
</event>
<event>
 6    0  0.2036847E+002  0.8008465E+02  0.7546771E-02  0.1328811E+00
         21   -1    0    0  503  501  0.00000000000E+00  0.00000000000E+00  0.47479532444E+03  0.47479532444E+03  0.00000000000E+00 0.  1.
         21   -1    0    0  505  502 -0.00000000000E+00 -0.00000000000E+00 -0.60677457887E+02  0.60677457887E+02  0.00000000000E+00 0.  1.
         21    1    1    2  503  502  0.93575573726E+02  0.41602960030E+02  0.77269319859E+02  0.12828773158E+03  0.00000000000E+00 0.  1.
         21    1    1    2  504  501 -0.26037009620E+02 -0.17209868213E+02  0.13520044850E+03  0.13875614116E+03  0.00000000000E+00 0.  1.
         21    1    1    2  505  506 -0.71656907147E+02  0.37423476273E+02  0.30483583646E+02  0.86397209389E+02  0.00000000000E+00 0.  1.
         21    1    1    2  506  504  0.41183430419E+01 -0.61816568091E+02  0.17116451454E+03  0.18203170020E+03  0.00000000000E+00 0.  1.
<scales pt_clust_3="14000.00000" pt_clust_4="31.21066" pt_clust_5="80.08465" pt_clust_6="71.44669"></scales>
<clustering>
<clus scale="   31.211">  1  4  2 -1</clus>
<clus scale="   71.447">  1  6  2 -1</clus>
<clus scale="   80.085">  2  5  1 -1</clus>
<clus scale="   31.211">  1  3  2 -1</clus>
</clustering>
</event>
<event>
 6    0  0.2036847E+002  0.2070317E+03  0.7546771E-02  0.1143938E+00
         21   -1    0    0  505  501  0.00000000000E+00  0.00000000000E+00  0.12801733065E+03  0.12801733065E+03  0.00000000000E+00 0.  1.
         21   -1    0    0  503  502 -0.00000000000E+00 -0.00000000000E+00 -0.37190617782E+03  0.37190617782E+03  0.00000000000E+00 0. -1.
         21    1    1    2  503  506  0.15511418534E+02 -0.26671794662E+02 -0.31054649704E+02  0.43776477744E+02  0.00000000000E+00 0. -1.
         21    1    1    2  504  502 -0.16783867076E+03  0.27290587842E+02 -0.82700071794E+02  0.18908701030E+03  0.00000000000E+00 0.  1.
         21    1    1    2  505  504 -0.34998786268E+02 -0.26624576853E+02 -0.27813822183E+02  0.52032603599E+02  0.00000000000E+00 0. -1.
         21    1    1    2  506  501  0.18732603850E+03  0.26005783673E+02 -0.10232030349E+03  0.21502741683E+03  0.00000000000E+00 0. -1.
<scales pt_clust_3="30.85431" pt_clust_4="36.23318" pt_clust_5="36.23318" pt_clust_6="195.14168"></scales>
<clustering>
<clus scale="   30.854">  2  3  1 -1</clus>
<clus scale="   36.233">  4  5 -1 -1</clus>
<clus scale="  195.142">  1  6  2 -1</clus>
<clus scale="  195.142">  1  3  2 -1</clus>
</clustering>
</event>
<event>
 6    0  0.2036847E+002  0.2199387E+03  0.7546771E-02  0.1133929E+00
         21   -1    0    0  506  501  0.00000000000E+00  0.00000000000E+00  0.10529490761E+03  0.10529490761E+03  0.00000000000E+00 0.  1.
         21   -1    0    0  503  502 -0.00000000000E+00 -0.00000000000E+00 -0.27125998610E+04  0.27125998610E+04  0.00000000000E+00 0.  1.
         21    1    1    2  503  505  0.37907286490E+02  0.13482439446E+02 -0.26344154639E+02  0.48091090922E+02  0.00000000000E+00 0. -1.
         21    1    1    2  504  502 -0.14287944355E+03  0.42439161563E+02 -0.20950985524E+04  0.21003936684E+04  0.00000000000E+00 0.  1.
         21    1    1    2  505  501  0.16197800782E+03 -0.28058882649E+02  0.14511262913E+02  0.16502955088E+03  0.00000000000E+00 0.  1.
         21    1    1    2  506  504 -0.57005850756E+02 -0.27862718361E+02 -0.50037350929E+03  0.50438045848E+03  0.00000000000E+00 0.  1.
<scales pt_clust_3="35.37752" pt_clust_4="59.10590" pt_clust_5="212.79190" pt_clust_6="59.10590"></scales>
<clustering>
<clus scale="   35.378">  3  5 -1 -1</clus>
<clus scale="   59.106">  4  6 -1 -1</clus>
<clus scale="  212.792">  1  3  2 -1</clus>
<clus scale="  212.792">  1  3  2 -1</clus>
</clustering>
</event>
<event>
 6    0  0.2036847E+002  0.2002322E+03  0.7546771E-02  0.1149543E+00
         21   -1    0    0  506  501  0.00000000000E+00  0.00000000000E+00  0.76615318709E+02  0.76615318709E+02  0.00000000000E+00 0.  1.
         21   -1    0    0  503  502 -0.00000000000E+00 -0.00000000000E+00 -0.59016919059E+03  0.59016919059E+03  0.00000000000E+00 0.  1.
         21    1    1    2  503  504  0.41122979849E+02  0.11662791921E+03 -0.24260551674E+03  0.27230609204E+03  0.00000000000E+00 0.  1.
         21    1    1    2  504  501  0.49568333432E+02  0.39642047508E+02 -0.14407109223E+03  0.15743249736E+03  0.00000000000E+00 0.  1.
         21    1    1    2  505  502 -0.31491571495E+02 -0.75830940896E+02 -0.10756149448E+03  0.13532008634E+03  0.00000000000E+00 0. -1.
         21    1    1    2  506  505 -0.59199741786E+02 -0.80439025819E+02 -0.19315768433E+02  0.10172583355E+03  0.00000000000E+00 0.  1.
<scales pt_clust_3="187.50055" pt_clust_4="35.90093" pt_clust_5="78.24934" pt_clust_6="78.24934"></scales>
<clustering>
<clus scale="   35.901">  3  4 -1 -1</clus>
<clus scale="   78.249">  5  6 -1 -1</clus>
<clus scale="  187.501">  2  3  1 -1</clus>
<clus scale="  200.232">  1  3  2 -1</clus>
</clustering>
</event>
<event>
 6    0  0.2036847E+002  0.1524567E+03  0.7546771E-02  0.1197486E+00
         21   -1    0    0  504  501  0.00000000000E+00  0.00000000000E+00  0.55435271620E+02  0.55435271620E+02  0.00000000000E+00 0. -1.
         21   -1    0    0  503  502 -0.00000000000E+00 -0.00000000000E+00 -0.82339346312E+03  0.82339346312E+03  0.00000000000E+00 0. -1.
         21    1    1    2  503  506 -0.29865718412E+02  0.33222120233E+02 -0.34789600263E+03  0.35075247548E+03  0.00000000000E+00 0. -1.
         21    1    1    2  504  505 -0.96039052600E+01 -0.39586201780E+02 -0.51885726588E+02  0.65965377215E+02  0.00000000000E+00 0.  1.
         21    1    1    2  505  502  0.99880308299E+02 -0.72550212446E+02 -0.57987041304E+02  0.13638953872E+03  0.00000000000E+00 0. -1.
         21    1    1    2  506  501 -0.60410684627E+02  0.78914293992E+02 -0.31018942098E+03  0.32572134333E+03  0.00000000000E+00 0.  1.
<scales pt_clust_3="41.95220" pt_clust_4="40.73454" pt_clust_5="139.38096" pt_clust_6="41.95220"></scales>
<clustering>
<clus scale="   40.735">  1  4  2 -1</clus>
<clus scale="   41.952">  3  6 -1 -1</clus>
<clus scale="  139.381">  1  5  2 -1</clus>
<clus scale="   40.735">  1  3  2 -1</clus>
</clustering>
</event>
<event>
 6    0  0.2036847E+002  0.1532145E+03  0.7546771E-02  0.1196578E+00
         21   -1    0    0  506  501  0.00000000000E+00  0.00000000000E+00  0.22547093988E+03  0.22547093988E+03  0.00000000000E+00 0.  1.
         21   -1    0    0  504  502 -0.00000000000E+00 -0.00000000000E+00 -0.32961554712E+03  0.32961554712E+03  0.00000000000E+00 0.  1.
         21    1    1    2  503  501  0.28047164615E+02 -0.16312258668E+03  0.43696821500E+02  0.17118713134E+03  0.00000000000E+00 0.  1.
         21    1    1    2  504  503 -0.69226468891E+02  0.12130000139E+03 -0.89587123253E+02  0.16592723401E+03  0.00000000000E+00 0.  1.
         21    1    1    2  505  502 -0.68197704762E+02 -0.23747010341E+01 -0.72006157625E+02  0.99204097071E+02  0.00000000000E+00 0.  1.
         21    1    1    2  506  505  0.10937700904E+03  0.44197286317E+02  0.13751852143E+02  0.11876802458E+03  0.00000000000E+00 0.  1.
<scales pt_clust_3="153.21454" pt_clust_4="14000.00000" pt_clust_5="68.23904" pt_clust_6="104.29238"></scales>
<clustering>
<clus scale="   68.239">  2  5  1 -1</clus>
<clus scale="  104.292">  1  6  2 -1</clus>
<clus scale="  153.215">  1  3  2 -1</clus>
<clus scale="  104.292">  1  3  2 -1</clus>
</clustering>
</event>
<event>
 6    0  0.2036847E+002  0.8546228E+02  0.7546771E-02  0.1314228E+00
         21   -1    0    0  505  501  0.00000000000E+00  0.00000000000E+00  0.23069416136E+03  0.23069416136E+03  0.00000000000E+00 0. -1.
         21   -1    0    0  503  502 -0.00000000000E+00 -0.00000000000E+00 -0.13931927150E+04  0.13931927150E+04  0.00000000000E+00 0.  1.
         21    1    1    2  503  504  0.43738377156E+02 -0.97792052923E+01 -0.20448908986E+03  0.20934293960E+03  0.00000000000E+00 0.  1.
         21    1    1    2  504  501  0.72112462577E+02  0.33922592285E+02  0.10909853696E+03  0.13510529336E+03  0.00000000000E+00 0. -1.
         21    1    1    2  505  506 -0.12834776464E+03  0.31428311898E+02  0.64052097268E+02  0.14684535621E+03  0.00000000000E+00 0. -1.
         21    1    1    2  506  502  0.12496924906E+02 -0.55571698890E+02 -0.11311600980E+04  0.11325932872E+04  0.00000000000E+00 0.  1.
<scales pt_clust_3="44.81828" pt_clust_4="80.08162" pt_clust_5="85.46228" pt_clust_6="14000.00000"></scales>
<clustering>
<clus scale="   44.818">  2  3  1 -1</clus>
<clus scale="   80.082">  1  4  2 -1</clus>
<clus scale="   85.462">  1  5  2 -1</clus>
<clus scale="   80.082">  1  3  2 -1</clus>
</clustering>
</event>
<event>
 6    0  0.2036847E+002  0.2289729E+03  0.7546771E-02  0.1127365E+00
         21   -1    0    0  503  501  0.00000000000E+00  0.00000000000E+00  0.12308947397E+03  0.12308947397E+03  0.00000000000E+00 0.  1.
         21   -1    0    0  505  502 -0.00000000000E+00 -0.00000000000E+00 -0.43207917877E+03  0.43207917877E+03  0.00000000000E+00 0.  1.
         21    1    1    2  503  506 -0.10983971310E+03 -0.37177514126E+02 -0.13565763593E+03  0.17846547094E+03  0.00000000000E+00 0.  1.
         21    1    1    2  504  501  0.17935502036E+03  0.11311323888E+02 -0.74602094365E+02  0.19458068213E+03  0.00000000000E+00 0.  1.
         21    1    1    2  505  504  0.32859706211E+02  0.36641604256E+02 -0.22999115372E+02  0.54326114923E+02  0.00000000000E+00 0.  1.
         21    1    1    2  506  502 -0.10237501347E+03 -0.10775414018E+02 -0.75730859132E+02  0.12779638475E+03  0.00000000000E+00 0.  1.
<scales pt_clust_3="221.61053" pt_clust_4="37.35104" pt_clust_5="37.35104" pt_clust_6="39.71357"></scales>
<clustering>
<clus scale="   37.351">  4  5 -1 -1</clus>
<clus scale="   39.714">  3  6 -1 -1</clus>
<clus scale="  221.611">  2  3  1 -1</clus>
<clus scale="  228.973">  1  3  2 -1</clus>
</clustering>
</event>
<event>
 6    0  0.2036847E+002  0.1054673E+03  0.7546771E-02  0.1269202E+00
         21   -1    0    0  504  501  0.00000000000E+00  0.00000000000E+00  0.26824698130E+03  0.26824698130E+03  0.00000000000E+00 0.  1.
         21   -1    0    0  503  502 -0.00000000000E+00 -0.00000000000E+00 -0.41563626628E+03  0.41563626628E+03  0.00000000000E+00 0. -1.
         21    1    1    2  503  505 -0.10933768029E+02 -0.29687493617E+02 -0.21062078885E+03  0.21298359387E+03  0.00000000000E+00 0. -1.
         21    1    1    2  504  506 -0.39073059691E+02  0.50567057253E+02  0.73738786291E+02  0.97576328464E+02  0.00000000000E+00 0. -1.
         21    1    1    2  505  501  0.86518888478E+02  0.51047709704E+02  0.15758369508E+03  0.18687966097E+03  0.00000000000E+00 0.  1.
         21    1    1    2  506  502 -0.36512060759E+02 -0.71927273339E+02 -0.16809097750E+03  0.18644366427E+03  0.00000000000E+00 0. -1.
<scales pt_clust_3="31.63692" pt_clust_4="62.94088" pt_clust_5="105.46726" pt_clust_6="14000.00000"></scales>
<clustering>
<clus scale="   31.637">  2  3  1 -1</clus>
<clus scale="   62.941">  1  4  2 -1</clus>
<clus scale="  105.467">  1  5  2 -1</clus>
<clus scale="   62.941">  1  3  2 -1</clus>
</clustering>
</event>
<event>
 6    0  0.2036847E+002  0.2135906E+03  0.7546771E-02  0.1138754E+00
         21   -1    0    0  505  501  0.00000000000E+00  0.00000000000E+00  0.23232465254E+04  0.23232465254E+04  0.00000000000E+00 0. -1.
         21   -1    0    0  503  502 -0.00000000000E+00 -0.00000000000E+00 -0.22028307867E+02  0.22028307867E+02  0.00000000000E+00 0. -1.
         21    1    1    2  503  506 -0.12104680335E+03  0.52091301545E+02  0.35682747581E+03  0.38038359559E+03  0.00000000000E+00 0. -1.
         21    1    1    2  504  502  0.80562066484E+02 -0.17836700636E+02  0.40961849718E+03  0.41784651210E+03  0.00000000000E+00 0. -1.
         21    1    1    2  505  504  0.94021768425E+02 -0.74469346647E+02  0.11740431614E+04  0.11801538549E+04  0.00000000000E+00 0. -1.
         21    1    1    2  506  501 -0.53537031554E+02  0.40214745739E+02  0.36072908319E+03  0.36689087067E+03  0.00000000000E+00 0. -1.
<scales pt_clust_3="208.64255" pt_clust_4="67.49005" pt_clust_5="67.49005" pt_clust_6="47.98592"></scales>
<clustering>
<clus scale="   47.986">  3  6 -1 -1</clus>
<clus scale="   67.490">  4  5 -1 -1</clus>
<clus scale="  208.643">  2  3  1 -1</clus>
<clus scale="  213.591">  1  3  2 -1</clus>
</clustering>
</event>
<event>
 6    0  0.2036847E+002  0.5787275E+02  0.7546771E-02  0.1406982E+00
         21   -1    0    0  504  501  0.00000000000E+00  0.00000000000E+00  0.84659118557E+02  0.84659118557E+02  0.00000000000E+00 0. -1.
         21   -1    0    0  503  502 -0.00000000000E+00 -0.00000000000E+00 -0.28664132806E+03  0.28664132806E+03  0.00000000000E+00 0. -1.
         21    1    1    2  503  506 -0.24418822131E+02  0.71201061047E+02 -0.13494979332E+03  0.15452286784E+03  0.00000000000E+00 0. -1.
         21    1    1    2  504  505  0.31983962417E+02 -0.69670676488E+02 -0.10325375267E+01  0.76668397322E+02  0.00000000000E+00 0. -1.
         21    1    1    2  505  502  0.40831212598E+02 -0.26100056985E+02 -0.70607839382E+02  0.85638004875E+02  0.00000000000E+00 0. -1.
         21    1    1    2  506  501 -0.48396352884E+02  0.24569672426E+02  0.46079607286E+01  0.54471176577E+02  0.00000000000E+00 0. -1.
<scales pt_clust_3="57.87275" pt_clust_4="14000.00000" pt_clust_5="48.46030" pt_clust_6="48.51349"></scales>
<clustering>
<clus scale="   48.460">  2  5  1 -1</clus>
<clus scale="   48.513">  1  6  2 -1</clus>
<clus scale="   57.873">  2  3  1 -1</clus>
<clus scale="   48.513">  1  3  2 -1</clus>
</clustering>
</event>
<event>
 6    0  0.2036847E+002  0.9380578E+02  0.7546771E-02  0.1293889E+00
         21   -1    0    0  503  501  0.00000000000E+00  0.00000000000E+00  0.64906758171E+03  0.64906758171E+03  0.00000000000E+00 0.  1.
         21   -1    0    0  504  502 -0.00000000000E+00 -0.00000000000E+00 -0.20171722344E+03  0.20171722344E+03  0.00000000000E+00 0.  1.
         21    1    1    2  503  505  0.25059158447E+02 -0.33936541592E+02  0.42161606901E+02  0.59642697573E+02  0.00000000000E+00 0. -1.
         21    1    1    2  504  506 -0.25304766339E+02 -0.10370743942E+03 -0.13998395817E+03  0.17604281507E+03  0.00000000000E+00 0.  1.
         21    1    1    2  505  502  0.20700730675E+01  0.68903617899E+02  0.34408074258E+01  0.69020525337E+02  0.00000000000E+00 0.  1.
         21    1    1    2  506  501 -0.18244651760E+01  0.68740363112E+02  0.54173190211E+03  0.54607876718E+03  0.00000000000E+00 0.  1.
<scales pt_clust_3="42.18590" pt_clust_4="93.80578" pt_clust_5="14000.00000" pt_clust_6="43.29492"></scales>
<clustering>
<clus scale="   42.186">  1  3  2 -1</clus>
<clus scale="   43.295">  1  6  2 -1</clus>
<clus scale="   93.806">  2  4  1 -1</clus>
<clus scale="   42.186">  1  3  2 -1</clus>
</clustering>
</event>
<event>
 6    0  0.2036847E+002  0.1604610E+03  0.7546771E-02  0.1188177E+00
         21   -1    0    0  504  501  0.00000000000E+00  0.00000000000E+00  0.61708730226E+03  0.61708730226E+03  0.00000000000E+00 0.  1.
         21   -1    0    0  506  502 -0.00000000000E+00 -0.00000000000E+00 -0.56983287738E+02  0.56983287738E+02  0.00000000000E+00 0. -1.
         21    1    1    2  503  501  0.71766983657E+02 -0.14085543939E+03  0.20679069858E+03  0.26029434832E+03  0.00000000000E+00 0. -1.
         21    1    1    2  504  505 -0.32841614467E+02  0.40045060275E+02  0.90716574091E+02  0.10445896471E+03  0.00000000000E+00 0.  1.
         21    1    1    2  505  502  0.23275143752E+01  0.10528182254E+03  0.23995827886E+03  0.26204895549E+03  0.00000000000E+00 0.  1.
         21    1    1    2  506  503 -0.41252883565E+02 -0.44714434242E+01  0.22638462992E+02  0.47268321479E+02  0.00000000000E+00 0.  1.
<scales pt_clust_3="151.05145" pt_clust_4="37.96765" pt_clust_5="37.96765" pt_clust_6="41.49451"></scales>
<clustering>
<clus scale="   37.968">  4  5 -1 -1</clus>
<clus scale="   41.495">  2  6  1 -1</clus>
<clus scale="  151.051">  2  3  1 -1</clus>
<clus scale="  160.461">  1  3  2 -1</clus>
</clustering>
</event>
<event>
 6    0  0.2036847E+002  0.2389154E+03  0.7546771E-02  0.1120517E+00
         21   -1    0    0  504  501  0.00000000000E+00  0.00000000000E+00  0.92755423805E+03  0.92755423805E+03  0.00000000000E+00 0. -1.
         21   -1    0    0  503  502 -0.00000000000E+00 -0.00000000000E+00 -0.11723044618E+04  0.11723044618E+04  0.00000000000E+00 0.  1.
         21    1    1    2  503  501 -0.57592496569E+02 -0.81558929801E+01 -0.12582912302E+02  0.59512552738E+02  0.00000000000E+00 0.  1.
         21    1    1    2  504  506 -0.22478554588E+03  0.33894413776E+02  0.87044046308E+03  0.89963546656E+03  0.00000000000E+00 0. -1.
         21    1    1    2  505  502  0.63616186686E+02  0.23541756218E+02 -0.23526330963E+03  0.24484701009E+03  0.00000000000E+00 0.  1.
         21    1    1    2  506  505  0.21876185576E+03 -0.49280277014E+02 -0.86734446494E+03  0.89586367049E+03  0.00000000000E+00 0.  1.
<scales pt_clust_3="58.16712" pt_clust_4="228.04268" pt_clust_5="39.18926" pt_clust_6="39.18926"></scales>
<clustering>
<clus scale="   39.189">  5  6 -1 -1</clus>
<clus scale="   58.167">  2  3  1 -1</clus>
<clus scale="  228.043">  1  4  2 -1</clus>
<clus scale="  228.043">  1  3  2 -1</clus>
</clustering>
</event>
<event>
 6    0  0.2036847E+002  0.1090452E+03  0.7546771E-02  0.1262348E+00
         21   -1    0    0  503  501  0.00000000000E+00  0.00000000000E+00  0.69238454284E+02  0.69238454284E+02  0.00000000000E+00 0.  1.
         21   -1    0    0  506  502 -0.00000000000E+00 -0.00000000000E+00 -0.21516495544E+04  0.21516495544E+04  0.00000000000E+00 0.  1.
         21    1    1    2  503  505 -0.27335050073E+02 -0.23671532224E+02  0.44974589269E+02  0.57708405629E+02  0.00000000000E+00 0.  1.
         21    1    1    2  504  501  0.10108294460E+03  0.18287099852E+02 -0.13533811685E+04  0.13572740206E+04  0.00000000000E+00 0.  1.
         21    1    1    2  505  502 -0.74437001600E+02 -0.33079586392E+02 -0.92247058882E+02  0.12306358566E+03  0.00000000000E+00 0.  1.
         21    1    1    2  506  504  0.68910707657E+00  0.38464018764E+02 -0.68175746197E+03  0.68284199677E+03  0.00000000000E+00 0. -1.
<scales pt_clust_3="36.16001" pt_clust_4="109.04525" pt_clust_5="14000.00000" pt_clust_6="37.74704"></scales>
<clustering>
<clus scale="   36.160">  1  3  2 -1</clus>
<clus scale="   37.747">  2  6  1 -1</clus>
<clus scale="  109.045">  2  4  1 -1</clus>
<clus scale="   36.160">  1  3  2 -1</clus>
</clustering>
</event>
<event>
 6    0  0.2036847E+002  0.7912948E+02  0.7546771E-02  0.1331540E+00
         21   -1    0    0  505  501  0.00000000000E+00  0.00000000000E+00  0.50413695391E+03  0.50413695391E+03  0.00000000000E+00 0. -1.
         21   -1    0    0  503  502 -0.00000000000E+00 -0.00000000000E+00 -0.36248757594E+03  0.36248757594E+03  0.00000000000E+00 0.  1.
         21    1    1    2  503  504 -0.92275010115E+02  0.23029106759E+02 -0.88669143369E+02  0.13002782101E+03  0.00000000000E+00 0.  1.
         21    1    1    2  504  501  0.41222652454E+02  0.91103260276E+02  0.42176558097E+03  0.43345739860E+03  0.00000000000E+00 0. -1.
         21    1    1    2  505  506  0.20444266273E+02 -0.35788465342E+02  0.39662066804E+02  0.57200190717E+02  0.00000000000E+00 0.  1.
         21    1    1    2  506  502  0.30608091388E+02 -0.78343901693E+02 -0.23110912644E+03  0.24593911953E+03  0.00000000000E+00 0.  1.
<scales pt_clust_3="79.12948" pt_clust_4="83.41242" pt_clust_5="41.21629" pt_clust_6="14000.00000"></scales>
<clustering>
<clus scale="   41.216">  1  5  2 -1</clus>
<clus scale="   83.412">  1  4  2 -1</clus>
<clus scale="   79.129">  1  3  2 -1</clus>
<clus scale="   41.216">  1  3  2 -1</clus>
</clustering>
</event>
<event>
 6    0  0.2036847E+002  0.1931630E+03  0.7546771E-02  0.1155639E+00
         21   -1    0    0  505  501  0.00000000000E+00  0.00000000000E+00  0.92861341869E+03  0.92861341869E+03  0.00000000000E+00 0. -1.
         21   -1    0    0  503  502 -0.00000000000E+00 -0.00000000000E+00 -0.73282960055E+02  0.73282960055E+02  0.00000000000E+00 0. -1.
         21    1    1    2  503  504 -0.11022483265E+03  0.96186380717E+02  0.27506382007E+03  0.31154684829E+03  0.00000000000E+00 0. -1.
         21    1    1    2  504  501  0.32299193276E+02  0.10683949659E+03  0.33696984310E+03  0.35497407100E+03  0.00000000000E+00 0. -1.
         21    1    1    2  505  506 -0.10534158980E+02 -0.71032387610E+02  0.70603136000E+02  0.10070437631E+03  0.00000000000E+00 0. -1.
         21    1    1    2  506  502  0.88459798354E+02 -0.13199348970E+03  0.17269365946E+03  0.23467108315E+03  0.00000000000E+00 0. -1.
<scales pt_clust_3="176.97592" pt_clust_4="111.61503" pt_clust_5="52.03579" pt_clust_6="52.03579"></scales>
<clustering>
<clus scale="   52.036">  5  6 -1 -1</clus>
<clus scale="  111.615">  1  4  2 -1</clus>
<clus scale="  176.976">  1  3  2 -1</clus>
<clus scale="  111.615">  1  3  2 -1</clus>
</clustering>
</event>
<event>
 6    0  0.2036847E+002  0.1244306E+03  0.7546771E-02  0.1235962E+00
         21   -1    0    0  503  501  0.00000000000E+00  0.00000000000E+00  0.10091797723E+03  0.10091797723E+03  0.00000000000E+00 0. -1.
         21   -1    0    0  506  502 -0.00000000000E+00 -0.00000000000E+00 -0.14437387425E+04  0.14437387425E+04  0.00000000000E+00 0.  1.
         21    1    1    2  503  502 -0.14833090713E+02  0.36202337217E+02 -0.57329598102E+02  0.69406862907E+02  0.00000000000E+00 0. -1.
         21    1    1    2  504  505 -0.38133914770E+02 -0.22875338393E+02  0.11472211640E+01  0.44483622589E+02  0.00000000000E+00 0. -1.
         21    1    1    2  505  501 -0.33273074770E+02 -0.88148798129E+02  0.37724399603E+02  0.10149107567E+03  0.00000000000E+00 0. -1.
         21    1    1    2  506  504  0.86240080253E+02  0.74821799304E+02 -0.13243627879E+04  0.13292751585E+04  0.00000000000E+00 0.  1.
<scales pt_clust_3="39.12326" pt_clust_4="33.46121" pt_clust_5="33.46121" pt_clust_6="114.50193"></scales>
<clustering>
<clus scale="   33.461">  4  5 -1 -1</clus>
<clus scale="   39.123">  1  3  2 -1</clus>
<clus scale="  114.502">  2  6  1 -1</clus>
<clus scale="   39.123">  1  3  2 -1</clus>
</clustering>
</event>
<event>
 6    0  0.2036847E+002  0.1502305E+03  0.7546771E-02  0.1200190E+00
         21   -1    0    0  503  501  0.00000000000E+00  0.00000000000E+00  0.55437428614E+02  0.55437428614E+02  0.00000000000E+00 0. -1.
         21   -1    0    0  505  502 -0.00000000000E+00 -0.00000000000E+00 -0.69307622123E+03  0.69307622123E+03  0.00000000000E+00 0. -1.
         21    1    1    2  503  506 -0.47114761811E+02 -0.82086142635E+02 -0.30210561875E+02  0.99350961958E+02  0.00000000000E+00 0. -1.
         21    1    1    2  504  501  0.15895619607E+02  0.65465999638E+02 -0.19899152574E+03  0.21008592325E+03  0.00000000000E+00 0. -1.
         21    1    1    2  505  504  0.29216732215E+02  0.68164897175E+02 -0.36248544097E+03  0.36999427774E+03  0.00000000000E+00 0. -1.
         21    1    1    2  506  502  0.20024099892E+01 -0.51544754179E+02 -0.45951264030E+02  0.69082486891E+02  0.00000000000E+00 0. -1.
<scales pt_clust_3="38.19592" pt_clust_4="34.94505" pt_clust_5="145.72802" pt_clust_6="38.19592"></scales>
<clustering>
<clus scale="   34.945">  4  5 -1 -1</clus>
<clus scale="   38.196">  3  6 -1 -1</clus>
<clus scale="  145.728">  2  4  1 -1</clus>
<clus scale="  150.230">  1  3  2 -1</clus>
</clustering>
</event>
<event>
 6    0  0.2036847E+002  0.9782321E+02  0.7546771E-02  0.1284941E+00
         21   -1    0    0  505  501  0.00000000000E+00  0.00000000000E+00  0.47581046038E+03  0.47581046038E+03  0.00000000000E+00 0.  1.
         21   -1    0    0  503  502 -0.00000000000E+00 -0.00000000000E+00 -0.14268421197E+03  0.14268421197E+03  0.00000000000E+00 0.  1.
         21    1    1    2  503  506 -0.34662486839E+02  0.17135304387E+02 -0.55688154549E+02  0.67795849485E+02  0.00000000000E+00 0.  1.
         21    1    1    2  504  501  0.12191896769E+03  0.67769516855E+02  0.27967732865E+03  0.31253215876E+03  0.00000000000E+00 0.  1.
         21    1    1    2  505  502 -0.37785253381E+02 -0.61719381565E+02  0.15224763405E+03  0.16857149673E+03  0.00000000000E+00 0.  1.
         21    1    1    2  506  504 -0.49471227473E+02 -0.23185439677E+02 -0.43110559749E+02  0.69595167379E+02  0.00000000000E+00 0.  1.
<scales pt_clust_3="37.62273" pt_clust_4="87.00207" pt_clust_5="72.36717" pt_clust_6="37.62273"></scales>
<clustering>
<clus scale="   37.623">  3  6 -1 -1</clus>
<clus scale="   72.367">  1  5  2 -1</clus>
<clus scale="   87.002">  1  4  2 -1</clus>
<clus scale="   72.367">  1  3  2 -1</clus>
</clustering>
</event>
<event>
 6    0  0.2036847E+002  0.9806016E+02  0.7546771E-02  0.1284429E+00
         21   -1    0    0  506  501  0.00000000000E+00  0.00000000000E+00  0.31283418601E+03  0.31283418601E+03  0.00000000000E+00 0. -1.
         21   -1    0    0  504  502 -0.00000000000E+00 -0.00000000000E+00 -0.12426503996E+03  0.12426503996E+03  0.00000000000E+00 0.  1.
         21    1    1    2  503  501  0.95934824917E+02 -0.16357805514E+02  0.41237126895E+02  0.10569564356E+03  0.00000000000E+00 0.  1.
         21    1    1    2  504  505 -0.11551263343E+01  0.35650941342E+02 -0.54419452285E+02  0.65067662647E+02  0.00000000000E+00 0.  1.
         21    1    1    2  505  503 -0.50437408916E+01  0.36621497866E+02 -0.17481005026E+01  0.37008502854E+02  0.00000000000E+00 0.  1.
         21    1    1    2  506  502 -0.89735957691E+02 -0.55914633694E+02  0.20349957194E+03  0.22932741690E+03  0.00000000000E+00 0. -1.
<scales pt_clust_3="98.06016" pt_clust_4="35.66965" pt_clust_5="47.63486" pt_clust_6="14000.00000"></scales>
<clustering>
<clus scale="   35.670">  2  4  1 -1</clus>
<clus scale="   47.635">  2  5  1 -1</clus>
<clus scale="   98.060">  2  3  1 -1</clus>
<clus scale="   98.060">  1  3  2 -1</clus>
</clustering>
</event>
<event>
 6    0  0.2036847E+002  0.7680504E+02  0.7546771E-02  0.1338371E+00
         21   -1    0    0  504  501  0.00000000000E+00  0.00000000000E+00  0.33100979562E+03  0.33100979562E+03  0.00000000000E+00 0.  1.
         21   -1    0    0  503  502 -0.00000000000E+00 -0.00000000000E+00 -0.72520395956E+02  0.72520395956E+02  0.00000000000E+00 0.  1.
         21    1    1    2  503  506 -0.38227941787E+02  0.14011998455E+02 -0.70907720771E+01  0.41327843915E+02  0.00000000000E+00 0.  1.
         21    1    1    2  504  505  0.65515066542E+02  0.50030244374E+02  0.18141298515E+03  0.19926344491E+03  0.00000000000E+00 0.  1.
         21    1    1    2  505  502  0.41523723064E+02 -0.46330733690E+02  0.15478464021E+02  0.64111927984E+02  0.00000000000E+00 0.  1.
         21    1    1    2  506  501 -0.68810847819E+02 -0.17711509139E+02  0.68688722572E+02  0.98826974770E+02  0.00000000000E+00 0.  1.
<scales pt_clust_3="40.71501" pt_clust_4="14000.00000" pt_clust_5="45.15813" pt_clust_6="76.80504"></scales>
<clustering>
<clus scale="   40.715">  2  3  1 -1</clus>
<clus scale="   45.158">  2  5  1 -1</clus>
<clus scale="   76.805">  2  6  1 -1</clus>
<clus scale="   76.805">  1  3  2 -1</clus>
</clustering>
</event>
<event>
 6    0  0.2036847E+002  0.1042091E+03  0.7546771E-02  0.1271686E+00
         21   -1    0    0  504  501  0.00000000000E+00  0.00000000000E+00  0.16574744504E+03  0.16574744504E+03  0.00000000000E+00 0.  1.
         21   -1    0    0  506  502 -0.00000000000E+00 -0.00000000000E+00 -0.40896772091E+03  0.40896772091E+03  0.00000000000E+00 0.  1.
         21    1    1    2  503  501  0.52429885111E+02  0.21876684100E+02  0.10005729377E+03  0.11506061096E+03  0.00000000000E+00 0.  1.
         21    1    1    2  504  505  0.35445643368E+02  0.87324549925E+01  0.87625104105E+01  0.37542389278E+02  0.00000000000E+00 0.  1.
         21    1    1    2  505  502  0.15856641941E+02 -0.96423722646E+02 -0.90640860400E+02  0.13328440628E+03  0.00000000000E+00 0.  1.
         21    1    1    2  506  503 -0.10373217042E+03  0.65814583553E+02 -0.26139921964E+03  0.28882775943E+03  0.00000000000E+00 0.  1.
<scales pt_clust_3="84.12785" pt_clust_4="36.50547" pt_clust_5="14000.00000" pt_clust_6="104.20907"></scales>
<clustering>
<clus scale="   36.505">  1  4  2 -1</clus>
<clus scale="   84.128">  1  3  2 -1</clus>
<clus scale="  104.209">  2  6  1 -1</clus>
<clus scale="   36.505">  1  3  2 -1</clus>
</clustering>
</event>
<event>
 6    0  0.2036847E+002  0.1111560E+03  0.7546771E-02  0.1258444E+00
         21   -1    0    0  502  501  0.00000000000E+00  0.00000000000E+00  0.45537771377E+02  0.45537771377E+02  0.00000000000E+00 0.  1.
         21   -1    0    0  505  502 -0.00000000000E+00 -0.00000000000E+00 -0.72768452632E+03  0.72768452632E+03  0.00000000000E+00 0. -1.
         21    1    1    2  503  501 -0.30907342891E+02 -0.50363201968E+01 -0.15953849458E+02  0.35144753211E+02  0.00000000000E+00 0.  1.
         21    1    1    2  504  506  0.51431496543E+02 -0.86253526884E+02 -0.46419169286E+03  0.47493030800E+03  0.00000000000E+00 0. -1.
         21    1    1    2  505  504  0.31943966512E+02  0.11936916768E+01 -0.13610422047E+03  0.13980772770E+03  0.00000000000E+00 0. -1.
         21    1    1    2  506  503 -0.52468120164E+02  0.90096155404E+02 -0.65896992161E+02  0.12333950879E+03  0.00000000000E+00 0.  1.
<scales pt_clust_3="31.31499" pt_clust_4="14000.00000" pt_clust_5="30.36599" pt_clust_6="111.15604"></scales>
<clustering>
<clus scale="   31.315">  1  3  2 -1</clus>
<clus scale="   30.366">  2  5  1 -1</clus>
<clus scale="  111.156">  1  6  2 -1</clus>
<clus scale="   31.315">  1  3  2 -1</clus>
</clustering>
</event>
<event>
 6    0  0.2036847E+002  0.1182605E+03  0.7546771E-02  0.1245995E+00
         21   -1    0    0  504  501  0.00000000000E+00  0.00000000000E+00  0.13099912520E+04  0.13099912520E+04  0.00000000000E+00 0. -1.
         21   -1    0    0  506  502 -0.00000000000E+00 -0.00000000000E+00 -0.44587485571E+02  0.44587485571E+02  0.00000000000E+00 0.  1.
         21    1    1    2  503  502 -0.60080824849E+02 -0.27790153510E+01  0.60730259635E+01  0.60450889863E+02  0.00000000000E+00 0.  1.
         21    1    1    2  504  505 -0.11959937969E+02 -0.27780644701E+02  0.20326727882E+03  0.20550520912E+03  0.00000000000E+00 0.  1.
         21    1    1    2  505  503 -0.38892650759E+02 -0.33101170331E+02  0.40891210665E+02  0.65424894880E+02  0.00000000000E+00 0. -1.
         21    1    1    2  506  501  0.11093341358E+03  0.63660830383E+02  0.10151722510E+04  0.10231977438E+04  0.00000000000E+00 0. -1.
<scales pt_clust_3="47.02220" pt_clust_4="30.24573" pt_clust_5="47.02220" pt_clust_6="106.90932"></scales>
<clustering>
<clus scale="   30.246">  1  4  2 -1</clus>
<clus scale="   47.022">  3  5 -1 -1</clus>
<clus scale="  106.909">  1  6  2 -1</clus>
<clus scale="   30.246">  1  3  2 -1</clus>
</clustering>
</event>
<event>
 6    0  0.2036847E+002  0.6955299E+02  0.7546771E-02  0.1361620E+00
         21   -1    0    0  503  501  0.00000000000E+00  0.00000000000E+00  0.16559079785E+03  0.16559079785E+03  0.00000000000E+00 0.  1.
         21   -1    0    0  506  502 -0.00000000000E+00 -0.00000000000E+00 -0.71334217050E+03  0.71334217050E+03  0.00000000000E+00 0.  1.
         21    1    1    2  503  505  0.11298313522E+02 -0.33371587696E+02  0.11229251484E+03  0.11768994708E+03  0.00000000000E+00 0.  1.
         21    1    1    2  504  501 -0.50581299058E+02  0.12421591019E+02  0.21075734792E+02  0.56186745188E+02  0.00000000000E+00 0.  1.
         21    1    1    2  505  502  0.10126501684E+03  0.14772622514E+02 -0.26103118570E+03  0.28037495238E+03  0.00000000000E+00 0.  1.
         21    1    1    2  506  504 -0.61982031305E+02  0.61773741625E+01 -0.42008843658E+03  0.42468132371E+03  0.00000000000E+00 0.  1.
<scales pt_clust_3="35.23230" pt_clust_4="43.94006" pt_clust_5="14000.00000" pt_clust_6="69.55299"></scales>
<clustering>
<clus scale="   35.232">  1  3  2 -1</clus>
<clus scale="   43.940">  1  4  2 -1</clus>
<clus scale="   69.553">  2  6  1 -1</clus>
<clus scale="   35.232">  1  3  2 -1</clus>
</clustering>
</event>
<event>
 6    0  0.2036847E+002  0.1029595E+03  0.7546771E-02  0.1274193E+00
         21   -1    0    0  504  501  0.00000000000E+00  0.00000000000E+00  0.15951532152E+04  0.15951532152E+04  0.00000000000E+00 0.  1.
         21   -1    0    0  503  502 -0.00000000000E+00 -0.00000000000E+00 -0.17785498625E+03  0.17785498625E+03  0.00000000000E+00 0. -1.
         21    1    1    2  503  506  0.12829340704E+02 -0.10855657608E+03 -0.11137213736E+03  0.15605407772E+03  0.00000000000E+00 0. -1.
         21    1    1    2  504  505 -0.46951383690E+02 -0.21238501015E+01  0.11792009424E+04  0.11801371978E+04  0.00000000000E+00 0.  1.
         21    1    1    2  505  502  0.62711030766E+02  0.31533594686E+02 -0.70076487825E+01  0.70541818200E+02  0.00000000000E+00 0.  1.
         21    1    1    2  506  501 -0.28588987779E+02  0.79146831491E+02  0.35647707271E+03  0.36627510770E+03  0.00000000000E+00 0.  1.
<scales pt_clust_3="102.95949" pt_clust_4="46.99940" pt_clust_5="66.92886" pt_clust_6="14000.00000"></scales>
<clustering>
<clus scale="   46.999">  1  4  2 -1</clus>
<clus scale="   66.929">  2  5  1 -1</clus>
<clus scale="  102.959">  2  3  1 -1</clus>
<clus scale="   46.999">  1  3  2 -1</clus>
</clustering>
</event>
<event>
 6    0  0.2036847E+002  0.2129110E+03  0.7546771E-02  0.1139281E+00
         21   -1    0    0  506  501  0.00000000000E+00  0.00000000000E+00  0.29698044646E+03  0.29698044646E+03  0.00000000000E+00 0. -1.
         21   -1    0    0  503  502 -0.00000000000E+00 -0.00000000000E+00 -0.39234728767E+03  0.39234728767E+03  0.00000000000E+00 0. -1.
         21    1    1    2  503  504  0.17885663736E+02  0.62152758314E+02  0.25875392917E+02  0.69659157991E+02  0.00000000000E+00 0. -1.
         21    1    1    2  504  501 -0.44530299767E+02  0.14102222118E+03  0.18051968881E+03  0.23336146321E+03  0.00000000000E+00 0. -1.
         21    1    1    2  505  502 -0.38936895940E+02 -0.70675439388E+02 -0.51769154148E+02  0.95870459054E+02  0.00000000000E+00 0. -1.
         21    1    1    2  506  505  0.65581531971E+02 -0.13249954010E+03 -0.24999276879E+03  0.29043665387E+03  0.00000000000E+00 0. -1.
<scales pt_clust_3="56.24075" pt_clust_4="56.24075" pt_clust_5="80.69138" pt_clust_6="195.18851"></scales>
<clustering>
<clus scale="   56.241">  3  4 -1 -1</clus>
<clus scale="   80.691">  2  5  1 -1</clus>
<clus scale="  195.189">  2  6  1 -1</clus>
<clus scale="  212.911">  1  3  2 -1</clus>
</clustering>
</event>
<event>
 6    0  0.2036847E+002  0.1522600E+03  0.7546771E-02  0.1197723E+00
         21   -1    0    0  504  501  0.00000000000E+00  0.00000000000E+00  0.26557242228E+03  0.26557242228E+03  0.00000000000E+00 0. -1.
         21   -1    0    0  506  502 -0.00000000000E+00 -0.00000000000E+00 -0.76528539599E+03  0.76528539599E+03  0.00000000000E+00 0. -1.
         21    1    1    2  503  501  0.97995720622E+02 -0.13296209123E+03  0.16061173603E+03  0.23038708452E+03  0.00000000000E+00 0. -1.
         21    1    1    2  504  502 -0.66437172920E+02 -0.12762526968E+02 -0.58554339644E+03  0.58943858811E+03  0.00000000000E+00 0. -1.
         21    1    1    2  505  503  0.16461865758E+01  0.14376018501E+03 -0.17550151508E+02  0.14483683420E+03  0.00000000000E+00 0. -1.
         21    1    1    2  506  505 -0.33204734279E+02  0.19644331839E+01 -0.57231161789E+02  0.66195311435E+02  0.00000000000E+00 0.  1.
<scales pt_clust_3="152.25996" pt_clust_4="94.81809" pt_clust_5="14000.00000" pt_clust_6="33.26279"></scales>
<clustering>
<clus scale="   33.263">  2  6  1 -1</clus>
<clus scale="   94.818">  2  4  1 -1</clus>
<clus scale="  152.260">  1  3  2 -1</clus>
<clus scale="  152.260">  1  3  2 -1</clus>
</clustering>
</event>
<event>
 6    0  0.2036847E+002  0.1650907E+03  0.7546771E-02  0.1183066E+00
         21   -1    0    0  503  501  0.00000000000E+00  0.00000000000E+00  0.37088619031E+03  0.37088619031E+03  0.00000000000E+00 0.  1.
         21   -1    0    0  505  502 -0.00000000000E+00 -0.00000000000E+00 -0.86214464050E+02  0.86214464050E+02  0.00000000000E+00 0.  1.
         21    1    1    2  503  504 -0.41486592336E+02 -0.50281478986E+02  0.24494915320E+02  0.69637384709E+02  0.00000000000E+00 0. -1.
         21    1    1    2  504  502 -0.97418741709E+02 -0.21594537917E+02  0.29282020782E+02  0.10399121138E+03  0.00000000000E+00 0.  1.
         21    1    1    2  505  506  0.84037046161E+02  0.50365163888E+02  0.18281635164E+03  0.20741430348E+03  0.00000000000E+00 0.  1.
         21    1    1    2  506  501  0.54868287884E+02  0.21510853015E+02  0.48078438512E+02  0.76057754782E+02  0.00000000000E+00 0.  1.
<scales pt_clust_3="42.72390" pt_clust_4="42.72390" pt_clust_5="164.45061" pt_clust_6="39.41882"></scales>
<clustering>
<clus scale="   39.419">  5  6 -1 -1</clus>
<clus scale="   42.724">  3  4 -1 -1</clus>
<clus scale="  164.451">  1  5  2 -1</clus>
<clus scale="  164.451">  1  3  2 -1</clus>
</clustering>
</event>
<event>
 6    0  0.2036847E+002  0.1219038E+03  0.7546771E-02  0.1239989E+00
         21   -1    0    0  503  501  0.00000000000E+00  0.00000000000E+00  0.70360618585E+02  0.70360618585E+02  0.00000000000E+00 0.  1.
         21   -1    0    0  501  502 -0.00000000000E+00 -0.00000000000E+00 -0.15126682109E+04  0.15126682109E+04  0.00000000000E+00 0. -1.
         21    1    1    2  503  504 -0.31665339866E+02  0.46710713359E+02 -0.47855649132E+01  0.56634672444E+02  0.00000000000E+00 0.  1.
         21    1    1    2  504  505 -0.60233706208E+02  0.25013330791E+02  0.15134854236E+02  0.66953938596E+02  0.00000000000E+00 0.  1.
         21    1    1    2  505  506  0.93360925424E+02 -0.28948960734E+02 -0.10068756044E+04  0.10116090092E+04  0.00000000000E+00 0. -1.
         21    1    1    2  506  502 -0.14618793508E+01 -0.42775083417E+02 -0.44578127721E+03  0.44783120923E+03  0.00000000000E+00 0. -1.
<scales pt_clust_3="36.94213" pt_clust_4="36.94213" pt_clust_5="115.25305" pt_clust_6="42.80006"></scales>
<clustering>
<clus scale="   36.942">  3  4 -1 -1</clus>
<clus scale="   42.800">  2  6  1 -1</clus>
<clus scale="  115.253">  2  5  1 -1</clus>
<clus scale="  121.904">  1  3  2 -1</clus>
</clustering>
</event>
<event>
 6    0  0.2036847E+002  0.1184884E+03  0.7546771E-02  0.1245612E+00
         21   -1    0    0  506  501  0.00000000000E+00  0.00000000000E+00  0.65236557575E+03  0.65236557575E+03  0.00000000000E+00 0. -1.
         21   -1    0    0  504  502 -0.00000000000E+00 -0.00000000000E+00 -0.32992980368E+03  0.32992980368E+03  0.00000000000E+00 0.  1.
         21    1    1    2  503  501  0.60752306151E+02  0.33593120844E+02  0.16077284714E+03  0.17512066939E+03  0.00000000000E+00 0.  1.
         21    1    1    2  504  503 -0.37891633548E+02 -0.47213118426E+01 -0.60030462464E+01  0.38653631688E+02  0.00000000000E+00 0.  1.
         21    1    1    2  505  502 -0.64677396397E+02 -0.72697083642E+02 -0.29050264867E+03  0.30636550142E+03  0.00000000000E+00 0.  1.
         21    1    1    2  506  505  0.41816723794E+02  0.43825274640E+02  0.45816861984E+03  0.46215557693E+03  0.00000000000E+00 0. -1.
<scales pt_clust_3="14000.00000" pt_clust_4="38.18464" pt_clust_5="118.48844" pt_clust_6="60.38323"></scales>
<clustering>
<clus scale="   38.185">  2  4  1 -1</clus>
<clus scale="   60.383">  1  6  2 -1</clus>
<clus scale="  118.488">  2  5  1 -1</clus>
<clus scale="   60.383">  1  3  2 -1</clus>
</clustering>
</event>
<event>
 6    0  0.2036847E+002  0.7951408E+02  0.7546771E-02  0.1330436E+00
         21   -1    0    0  506  501  0.00000000000E+00  0.00000000000E+00  0.16683662031E+04  0.16683662031E+04  0.00000000000E+00 0.  1.
         21   -1    0    0  505  502 -0.00000000000E+00 -0.00000000000E+00 -0.70194524826E+02  0.70194524826E+02  0.00000000000E+00 0.  1.
         21    1    1    2  503  501  0.11480424184E+03  0.76692928405E+01  0.57276015643E+03  0.58420290036E+03  0.00000000000E+00 0. -1.
         21    1    1    2  504  502 -0.10659150089E+03  0.30275095394E+01 -0.47494066566E+01  0.10674020208E+03  0.00000000000E+00 0.  1.
         21    1    1    2  505  503  0.34779861890E+02  0.28775705403E+01  0.28815108691E+02  0.45257371711E+02  0.00000000000E+00 0. -1.
         21    1    1    2  506  504 -0.42992602846E+02 -0.13574372920E+02  0.10013458198E+04  0.10023602537E+04  0.00000000000E+00 0.  1.
<scales pt_clust_3="79.51408" pt_clust_4="14000.00000" pt_clust_5="34.89870" pt_clust_6="44.80618"></scales>
<clustering>
<clus scale="   34.899">  2  5  1 -1</clus>
<clus scale="   44.806">  1  6  2 -1</clus>
<clus scale="   79.514">  1  3  2 -1</clus>
<clus scale="   44.806">  1  3  2 -1</clus>
</clustering>
</event>
<event>
 6    0  0.2036847E+002  0.9577589E+02  0.7546771E-02  0.1289438E+00
         21   -1    0    0  505  501  0.00000000000E+00  0.00000000000E+00  0.97663972198E+02  0.97663972198E+02  0.00000000000E+00 0.  1.
         21   -1    0    0  506  502 -0.00000000000E+00 -0.00000000000E+00 -0.33707444794E+03  0.33707444794E+03  0.00000000000E+00 0.  1.
         21    1    1    2  503  502  0.54845842397E+02  0.40723864727E+02 -0.48325261175E+02  0.83676940994E+02  0.00000000000E+00 0.  1.
         21    1    1    2  504  501  0.21320106423E+02 -0.47094970095E+02 -0.10486224898E+03  0.11691267856E+03  0.00000000000E+00 0.  1.
         21    1    1    2  505  503 -0.57557719515E+02  0.65415422032E+02  0.38228649774E+02  0.95149872196E+02  0.00000000000E+00 0.  1.
         21    1    1    2  506  504 -0.18608229304E+02 -0.59044316663E+02 -0.12445161536E+03  0.13899892839E+03  0.00000000000E+00 0.  1.
<scales pt_clust_3="68.31178" pt_clust_4="36.92762" pt_clust_5="86.83330" pt_clust_6="36.92762"></scales>
<clustering>
<clus scale="   36.928">  4  6 -1 -1</clus>
<clus scale="   68.312">  2  3  1 -1</clus>
<clus scale="   86.833">  1  5  2 -1</clus>
<clus scale="   86.833">  1  3  2 -1</clus>
</clustering>
</event>
<event>
 6    0  0.2036847E+002  0.1273065E+03  0.7546771E-02  0.1231508E+00
         21   -1    0    0  503  501  0.00000000000E+00  0.00000000000E+00  0.11661534494E+03  0.11661534494E+03  0.00000000000E+00 0.  1.
         21   -1    0    0  506  502 -0.00000000000E+00 -0.00000000000E+00 -0.26439577432E+03  0.26439577432E+03  0.00000000000E+00 0.  1.
         21    1    1    2  503  502 -0.83447546417E+02  0.72140478987E+02 -0.81995650004E+02  0.13744463733E+03  0.00000000000E+00 0.  1.
         21    1    1    2  504  505 -0.16270227908E+02 -0.45929179336E+02  0.11655718757E+02  0.50100554991E+02  0.00000000000E+00 0. -1.
         21    1    1    2  505  501  0.46179322626E+02 -0.72717425367E+02  0.30443553277E+01  0.86195254449E+02  0.00000000000E+00 0.  1.
         21    1    1    2  506  504  0.53538451699E+02  0.46506125716E+02 -0.80484853464E+02  0.10727067249E+03  0.00000000000E+00 0.  1.
<scales pt_clust_3="113.21690" pt_clust_4="43.78265" pt_clust_5="43.78265" pt_clust_6="70.91675"></scales>
<clustering>
<clus scale="   43.783">  4  5 -1 -1</clus>
<clus scale="   70.917">  2  6  1 -1</clus>
<clus scale="  113.217">  2  3  1 -1</clus>
<clus scale="  127.307">  1  3  2 -1</clus>
</clustering>
</event>
<event>
 6    0  0.2036847E+002  0.1369735E+03  0.7546771E-02  0.1217460E+00
         21   -1    0    0  504  501  0.00000000000E+00  0.00000000000E+00  0.84295048751E+02  0.84295048751E+02  0.00000000000E+00 0. -1.
         21   -1    0    0  501  502 -0.00000000000E+00 -0.00000000000E+00 -0.38484148489E+03  0.38484148489E+03  0.00000000000E+00 0. -1.
         21    1    1    2  503  506  0.10168017121E+03 -0.31367351681E+02 -0.13437493599E+03  0.17140417554E+03  0.00000000000E+00 0. -1.
         21    1    1    2  504  505 -0.16050532306E+02  0.46988729215E+02 -0.11039304162E+02  0.50866752372E+02  0.00000000000E+00 0. -1.
         21    1    1    2  505  503 -0.91291351527E+02  0.49099482399E+02 -0.33441632439E+02  0.10891837685E+03  0.00000000000E+00 0. -1.
         21    1    1    2  506  502  0.56617126256E+01 -0.64720859933E+02 -0.12169056355E+03  0.13794722889E+03  0.00000000000E+00 0. -1.
<scales pt_clust_3="126.34969" pt_clust_4="36.60702" pt_clust_5="36.60702" pt_clust_6="64.96803"></scales>
<clustering>
<clus scale="   36.607">  4  5 -1 -1</clus>
<clus scale="   64.968">  2  6  1 -1</clus>
<clus scale="  126.350">  2  3  1 -1</clus>
<clus scale="  136.974">  1  3  2 -1</clus>
</clustering>
</event>
<event>
 6    0  0.2036847E+002  0.9332633E+02  0.7546771E-02  0.1294991E+00
         21   -1    0    0  504  501  0.00000000000E+00  0.00000000000E+00  0.19336877454E+03  0.19336877454E+03  0.00000000000E+00 0.  1.
         21   -1    0    0  505  502 -0.00000000000E+00 -0.00000000000E+00 -0.14946121867E+03  0.14946121867E+03  0.00000000000E+00 0.  1.
         21    1    1    2  503  501 -0.88211324201E+02 -0.41826882414E+02  0.86684607655E+02  0.13055629825E+03  0.00000000000E+00 0.  1.
         21    1    1    2  504  506  0.18456714313E+02 -0.38763405666E+02  0.43724348235E+02  0.61278630456E+02  0.00000000000E+00 0. -1.
         21    1    1    2  505  503  0.69809806866E+01  0.48017289214E+02 -0.15890214204E+02  0.51057742432E+02  0.00000000000E+00 0.  1.
         21    1    1    2  506  502  0.62773629201E+02  0.32572998867E+02 -0.70611185817E+02  0.99937322061E+02  0.00000000000E+00 0.  1.
<scales pt_clust_3="93.32633" pt_clust_4="42.93311" pt_clust_5="44.16564" pt_clust_6="14000.00000"></scales>
<clustering>
<clus scale="   42.933">  1  4  2 -1</clus>
<clus scale="   44.166">  2  5  1 -1</clus>
<clus scale="   93.326">  1  3  2 -1</clus>
<clus scale="   42.933">  1  3  2 -1</clus>
</clustering>
</event>
<event>
 6    0  0.2036847E+002  0.6281116E+02  0.7546771E-02  0.1386399E+00
         21   -1    0    0  503  501  0.00000000000E+00  0.00000000000E+00  0.17471099180E+03  0.17471099180E+03  0.00000000000E+00 0. -1.
         21   -1    0    0  506  502 -0.00000000000E+00 -0.00000000000E+00 -0.31574554572E+03  0.31574554572E+03  0.00000000000E+00 0. -1.
         21    1    1    2  503  505 -0.59957947118E+02 -0.73181953146E+01  0.79805394882E+02  0.10008702442E+03  0.00000000000E+00 0. -1.
         21    1    1    2  504  501  0.36896585930E+02  0.57187170981E+02  0.39401620851E+02  0.78639801016E+02  0.00000000000E+00 0. -1.
         21    1    1    2  505  502  0.66600712196E+02 -0.83446565334E+02 -0.11748359528E+03  0.15874942296E+03  0.00000000000E+00 0. -1.
         21    1    1    2  506  504 -0.43539351008E+02  0.33577589668E+02 -0.14275797437E+03  0.15298028912E+03  0.00000000000E+00 0. -1.
<scales pt_clust_3="62.81116" pt_clust_4="14000.00000" pt_clust_5="59.81987" pt_clust_6="54.98299"></scales>
<clustering>
<clus scale="   54.983">  2  6  1 -1</clus>
<clus scale="   62.811">  1  3  2 -1</clus>
<clus scale="   59.820">  2  5  1 -1</clus>
<clus scale="   62.811">  1  3  2 -1</clus>
</clustering>
</event>
<event>
 6    0  0.2036847E+002  0.1992876E+03  0.7546771E-02  0.1150341E+00
         21   -1    0    0  506  501  0.00000000000E+00  0.00000000000E+00  0.14242655049E+03  0.14242655049E+03  0.00000000000E+00 0. -1.
         21   -1    0    0  503  502 -0.00000000000E+00 -0.00000000000E+00 -0.60501456081E+03  0.60501456081E+03  0.00000000000E+00 0.  1.
         21    1    1    2  503  504 -0.30458523063E+02  0.11419281282E+03 -0.27278036900E+03  0.29728244119E+03  0.00000000000E+00 0.  1.
         21    1    1    2  504  505 -0.56696809679E+02 -0.48509901166E+02 -0.13902381835E+02  0.75901350183E+02  0.00000000000E+00 0. -1.
         21    1    1    2  505  501 -0.21885948585E+00 -0.15852975776E+03 -0.18977042451E+01  0.15854126680E+03  0.00000000000E+00 0. -1.
         21    1    1    2  506  502  0.87374192228E+02  0.92846846109E+02 -0.17400755523E+03  0.21571605313E+03  0.00000000000E+00 0. -1.
<scales pt_clust_3="118.18511" pt_clust_4="63.65574" pt_clust_5="63.65574" pt_clust_6="176.37080"></scales>
<clustering>
<clus scale="   63.656">  4  5 -1 -1</clus>
<clus scale="  118.185">  2  3  1 -1</clus>
<clus scale="  176.371">  2  6  1 -1</clus>
<clus scale="  199.288">  1  3  2 -1</clus>
</clustering>
</event>
<event>
 6    0  0.2036847E+002  0.8165239E+02  0.7546771E-02  0.1324427E+00
         21   -1    0    0  503  501  0.00000000000E+00  0.00000000000E+00  0.15117332217E+03  0.15117332217E+03  0.00000000000E+00 0.  1.
         21   -1    0    0  504  502 -0.00000000000E+00 -0.00000000000E+00 -0.35658360907E+03  0.35658360907E+03  0.00000000000E+00 0. -1.
         21    1    1    2  503  502 -0.68615822533E+02 -0.87218046738E+02 -0.28754632318E+03  0.30821746666E+03  0.00000000000E+00 0. -1.
         21    1    1    2  504  506  0.18328472271E+02  0.23936250543E+02 -0.24408401632E+02  0.38789780305E+02  0.00000000000E+00 0. -1.
         21    1    1    2  505  501  0.37420018628E+02 -0.13663342571E+02  0.52242615867E+02  0.65698064179E+02  0.00000000000E+00 0.  1.
         21    1    1    2  506  505  0.12867331633E+02  0.76945138765E+02  0.54301822052E+02  0.95051620087E+02  0.00000000000E+00 0.  1.
<scales pt_clust_3="81.65239" pt_clust_4="30.14759" pt_clust_5="40.02736" pt_clust_6="14000.00000"></scales>
<clustering>
<clus scale="   30.148">  2  4  1 -1</clus>
<clus scale="   40.027">  1  5  2 -1</clus>
<clus scale="   81.652">  2  3  1 -1</clus>
<clus scale="   40.027">  1  3  2 -1</clus>
</clustering>
</event>
<event>
 6    0  0.2036847E+002  0.2463441E+03  0.7546771E-02  0.1115637E+00
         21   -1    0    0  503  501  0.00000000000E+00  0.00000000000E+00  0.51188616373E+03  0.51188616373E+03  0.00000000000E+00 0. -1.
         21   -1    0    0  504  502 -0.00000000000E+00 -0.00000000000E+00 -0.14396502689E+04  0.14396502689E+04  0.00000000000E+00 0. -1.
         21    1    1    2  503  506  0.28512443347E+02  0.12383011276E+02  0.43436889514E+02  0.53414059615E+02  0.00000000000E+00 0. -1.
         21    1    1    2  504  501 -0.24882839057E+03 -0.10590032151E+02  0.41842334125E+03  0.48693511809E+03  0.00000000000E+00 0. -1.
         21    1    1    2  505  502  0.12046929223E+03  0.16539953232E+02 -0.45156363671E+03  0.46764958936E+03  0.00000000000E+00 0.  1.
         21    1    1    2  506  505  0.99846654988E+02 -0.18332932357E+02 -0.93806069927E+03  0.94353766561E+03  0.00000000000E+00 0. -1.
<scales pt_clust_3="31.08534" pt_clust_4="220.98435" pt_clust_5="99.33105" pt_clust_6="99.33105"></scales>
<clustering>
<clus scale="   31.085">  1  3  2 -1</clus>
<clus scale="   99.331">  5  6 -1 -1</clus>
<clus scale="  220.984">  1  4  2 -1</clus>
<clus scale="   31.085">  1  3  2 -1</clus>
</clustering>
</event>
<event>
 6    0  0.2036847E+002  0.1260997E+03  0.7546771E-02  0.1233361E+00
         21   -1    0    0  504  501  0.00000000000E+00  0.00000000000E+00  0.84660485824E+03  0.84660485824E+03  0.00000000000E+00 0. -1.
         21   -1    0    0  505  502 -0.00000000000E+00 -0.00000000000E+00 -0.56907889438E+03  0.56907889438E+03  0.00000000000E+00 0. -1.
         21    1    1    2  503  501 -0.28712111333E+02  0.20309535660E+02  0.40957962499E+02  0.53985343085E+02  0.00000000000E+00 0. -1.
         21    1    1    2  504  502  0.38756785520E+02  0.42919029500E+02  0.69429870721E+03  0.69670282499E+03  0.00000000000E+00 0. -1.
         21    1    1    2  505  506  0.12274284004E+03 -0.30237003853E+02 -0.50473333274E+03  0.52032280208E+03  0.00000000000E+00 0. -1.
         21    1    1    2  506  503 -0.13278751423E+03 -0.32991561306E+02  0.47002626895E+02  0.14467278247E+03  0.00000000000E+00 0. -1.
<scales pt_clust_3="35.16906" pt_clust_4="62.13928" pt_clust_5="126.09971" pt_clust_6="14000.00000"></scales>
<clustering>
<clus scale="   35.169">  1  3  2 -1</clus>
<clus scale="   62.139">  1  4  2 -1</clus>
<clus scale="  126.100">  2  5  1 -1</clus>
<clus scale="   35.169">  1  3  2 -1</clus>
</clustering>
</event>
<event>
 6    0  0.2036847E+002  0.1327282E+03  0.7546771E-02  0.1223463E+00
         21   -1    0    0  506  501  0.00000000000E+00  0.00000000000E+00  0.94193742108E+03  0.94193742108E+03  0.00000000000E+00 0.  1.
         21   -1    0    0  503  502 -0.00000000000E+00 -0.00000000000E+00 -0.26781473225E+02  0.26781473225E+02  0.00000000000E+00 0.  1.
         21    1    1    2  503  504  0.72628470277E+02 -0.43338075533E+02  0.28468531646E+03  0.29698284950E+03  0.00000000000E+00 0.  1.
         21    1    1    2  504  505  0.48345454157E+02 -0.28732871616E+02  0.88759054273E+02  0.10507630829E+03  0.00000000000E+00 0.  1.
         21    1    1    2  505  501 -0.11282921102E+03  0.28710419261E+02  0.45104589148E+03  0.46582949161E+03  0.00000000000E+00 0.  1.
         21    1    1    2  506  502 -0.81447134154E+01  0.43360527888E+02  0.90665685646E+02  0.10083024491E+03  0.00000000000E+00 0.  1.
<scales pt_clust_3="39.63078" pt_clust_4="39.63078" pt_clust_5="123.51042" pt_clust_6="44.11884"></scales>
<clustering>
<clus scale="   39.631">  3  4 -1 -1</clus>
<clus scale="   44.119">  2  6  1 -1</clus>
<clus scale="  123.510">  1  5  2 -1</clus>
<clus scale="  123.510">  1  3  2 -1</clus>
</clustering>
</event>
<event>
 6    0  0.2036847E+002  0.7686972E+02  0.7546771E-02  0.1338177E+00
         21   -1    0    0  505  501  0.00000000000E+00  0.00000000000E+00  0.49293637250E+03  0.49293637250E+03  0.00000000000E+00 0. -1.
         21   -1    0    0  506  502 -0.00000000000E+00 -0.00000000000E+00 -0.55402160977E+02  0.55402160977E+02  0.00000000000E+00 0.  1.
         21    1    1    2  503  504 -0.23968623012E+02 -0.95327328217E+02  0.30335545386E+03  0.31888293429E+03  0.00000000000E+00 0. -1.
         21    1    1    2  504  502  0.67308549360E+02  0.30782113417E+02  0.20484521158E+02  0.76795800213E+02  0.00000000000E+00 0.  1.
         21    1    1    2  505  503 -0.16821340610E+02  0.29851533118E+02  0.10178409983E+03  0.10739680864E+03  0.00000000000E+00 0.  1.
         21    1    1    2  506  501 -0.26518585737E+02  0.34693681683E+02  0.11910136683E+02  0.45262990334E+02  0.00000000000E+00 0.  1.
<scales pt_clust_3="14000.00000" pt_clust_4="76.86972" pt_clust_5="34.26473" pt_clust_6="46.16702"></scales>
<clustering>
<clus scale="   34.265">  1  5  2 -1</clus>
<clus scale="   46.167">  2  6  1 -1</clus>
<clus scale="   76.870">  2  4  1 -1</clus>
<clus scale="   34.265">  1  3  2 -1</clus>
</clustering>
</event>
<event>
 6    0  0.2036847E+002  0.8858978E+02  0.7546771E-02  0.1306303E+00
         21   -1    0    0  505  501  0.00000000000E+00  0.00000000000E+00  0.16128972050E+03  0.16128972050E+03  0.00000000000E+00 0. -1.
         21   -1    0    0  506  502 -0.00000000000E+00 -0.00000000000E+00 -0.15024178200E+04  0.15024178200E+04  0.00000000000E+00 0.  1.
         21    1    1    2  503  501 -0.18624096558E+02  0.73857214830E+02  0.68767503543E+02  0.10261927060E+03  0.00000000000E+00 0. -1.
         21    1    1    2  504  503  0.69429747608E+02 -0.26196276323E+02 -0.79610779067E+02  0.10883294947E+03  0.00000000000E+00 0.  1.
         21    1    1    2  505  502 -0.53593457168E+02  0.11123206071E+02  0.47947943828E+02  0.72766679750E+02  0.00000000000E+00 0. -1.
         21    1    1    2  506  504  0.27878061169E+01 -0.58784144578E+02 -0.13782327678E+04  0.13794886407E+04  0.00000000000E+00 0.  1.
<scales pt_clust_3="14000.00000" pt_clust_4="88.58978" pt_clust_5="54.73559" pt_clust_6="58.76622"></scales>
<clustering>
<clus scale="   54.736">  1  5  2 -1</clus>
<clus scale="   58.766">  2  6  1 -1</clus>
<clus scale="   88.590">  2  4  1 -1</clus>
<clus scale="   54.736">  1  3  2 -1</clus>
</clustering>
</event>
<event>
 6    0  0.2036847E+002  0.1079539E+03  0.7546771E-02  0.1264406E+00
         21   -1    0    0  502  501  0.00000000000E+00  0.00000000000E+00  0.77400394200E+03  0.77400394200E+03  0.00000000000E+00 0.  1.
         21   -1    0    0  503  502 -0.00000000000E+00 -0.00000000000E+00 -0.14838602662E+04  0.14838602662E+04  0.00000000000E+00 0. -1.
         21    1    1    2  503  506 -0.32817587659E+02  0.43367088012E+02 -0.97535294420E+03  0.97686798706E+03  0.00000000000E+00 0. -1.
         21    1    1    2  504  501  0.58559514943E+02  0.17467099074E+02  0.62992981015E+03  0.63288694256E+03  0.00000000000E+00 0.  1.
         21    1    1    2  505  504 -0.18298621449E+01 -0.10382895062E+03  0.12142063842E+03  0.15977099492E+03  0.00000000000E+00 0. -1.
         21    1    1    2  506  505 -0.23912065140E+02  0.42994763536E+02 -0.48585382859E+03  0.48833828368E+03  0.00000000000E+00 0. -1.
<scales pt_clust_3="30.48836" pt_clust_4="61.10905" pt_clust_5="103.08487" pt_clust_6="30.48836"></scales>
<clustering>
<clus scale="   30.488">  3  6 -1 -1</clus>
<clus scale="   61.109">  1  4  2 -1</clus>
<clus scale="  103.085">  1  5  2 -1</clus>
<clus scale="   61.109">  1  3  2 -1</clus>
</clustering>
</event>
<event>
 6    0  0.2036847E+002  0.1672166E+03  0.7546771E-02  0.1180782E+00
         21   -1    0    0  505  501  0.00000000000E+00  0.00000000000E+00  0.92787565453E+02  0.92787565453E+02  0.00000000000E+00 0. -1.
         21   -1    0    0  503  502 -0.00000000000E+00 -0.00000000000E+00 -0.55123373997E+03  0.55123373997E+03  0.00000000000E+00 0. -1.
         21    1    1    2  503  504  0.10720667892E+03 -0.99662899154E+02 -0.12980937989E+03  0.19564365715E+03  0.00000000000E+00 0. -1.
         21    1    1    2  504  506  0.76173538879E+01 -0.55446890224E+02 -0.92945476693E+02  0.10849536098E+03  0.00000000000E+00 0. -1.
         21    1    1    2  505  502 -0.60570438008E+02  0.32250781082E+02 -0.18329424594E+03  0.19571834722E+03  0.00000000000E+00 0. -1.
         21    1    1    2  506  501 -0.54253594802E+02  0.12285900830E+03 -0.52397071993E+02  0.14416394009E+03  0.00000000000E+00 0. -1.
<scales pt_clust_3="46.42648" pt_clust_4="46.42648" pt_clust_5="68.62136" pt_clust_6="149.41278"></scales>
<clustering>
<clus scale="   46.426">  3  4 -1 -1</clus>
<clus scale="   68.621">  2  5  1 -1</clus>
<clus scale="  149.413">  1  6  2 -1</clus>
<clus scale="  149.413">  1  3  2 -1</clus>
</clustering>
</event>
<event>
 6    0  0.2036847E+002  0.1434482E+03  0.7546771E-02  0.1208763E+00
         21   -1    0    0  504  501  0.00000000000E+00  0.00000000000E+00  0.13960677061E+04  0.13960677061E+04  0.00000000000E+00 0. -1.
         21   -1    0    0  505  502 -0.00000000000E+00 -0.00000000000E+00 -0.29369436246E+03  0.29369436246E+03  0.00000000000E+00 0. -1.
         21    1    1    2  503  506 -0.96852469919E+02 -0.17772845408E+02 -0.14976612761E+03  0.17923774140E+03  0.00000000000E+00 0. -1.
         21    1    1    2  504  502  0.12042736987E+03  0.75450571260E+02  0.12759024343E+04  0.12837922581E+04  0.00000000000E+00 0. -1.
         21    1    1    2  505  503 -0.28476353474E+02 -0.27145155880E+02 -0.11966579554E+03  0.12596691953E+03  0.00000000000E+00 0. -1.
         21    1    1    2  506  501  0.49014535223E+01 -0.30532569972E+02  0.95902832503E+02  0.10076514952E+03  0.00000000000E+00 0. -1.
<scales pt_clust_3="33.65041" pt_clust_4="133.21409" pt_clust_5="33.65041" pt_clust_6="30.92349"></scales>
<clustering>
<clus scale="   30.923">  1  6  2 -1</clus>
<clus scale="   33.650">  3  5 -1 -1</clus>
<clus scale="  133.214">  1  4  2 -1</clus>
<clus scale="   30.923">  1  3  2 -1</clus>
</clustering>
</event>
<event>
 6    0  0.2036847E+002  0.1534964E+03  0.7546771E-02  0.1196241E+00
         21   -1    0    0  506  501  0.00000000000E+00  0.00000000000E+00  0.63503408759E+03  0.63503408759E+03  0.00000000000E+00 0.  1.
         21   -1    0    0  505  502 -0.00000000000E+00 -0.00000000000E+00 -0.15174485331E+03  0.15174485331E+03  0.00000000000E+00 0. -1.
         21    1    1    2  503  502  0.86834080197E+02 -0.95303059835E+01 -0.47385179555E+02  0.99379773884E+02  0.00000000000E+00 0. -1.
         21    1    1    2  504  503 -0.11798909412E+03  0.10667755085E+03  0.15547216745E+03  0.22242554043E+03  0.00000000000E+00 0. -1.
         21    1    1    2  505  501  0.11558587050E+03 -0.11585876360E+03  0.14350199934E+03  0.21766067715E+03  0.00000000000E+00 0.  1.
         21    1    1    2  506  504 -0.84430856573E+02  0.18711518736E+02  0.23170024705E+03  0.24731294943E+03  0.00000000000E+00 0.  1.
<scales pt_clust_3="81.70730" pt_clust_4="14000.00000" pt_clust_5="153.49640" pt_clust_6="86.47942"></scales>
<clustering>
<clus scale="   86.479">  1  6  2 -1</clus>
<clus scale="   81.707">  2  3  1 -1</clus>
<clus scale="  153.496">  1  5  2 -1</clus>
<clus scale="   86.479">  1  3  2 -1</clus>
</clustering>
</event>
<event>
 6    0  0.2036847E+002  0.1170314E+03  0.7546771E-02  0.1248076E+00
         21   -1    0    0  506  501  0.00000000000E+00  0.00000000000E+00  0.19468977547E+04  0.19468977547E+04  0.00000000000E+00 0.  1.
         21   -1    0    0  505  502 -0.00000000000E+00 -0.00000000000E+00 -0.89731875450E+03  0.89731875450E+03  0.00000000000E+00 0.  1.
         21    1    1    2  503  504 -0.24004307690E+02 -0.35883874000E+02  0.44645261387E+03  0.44853516655E+03  0.00000000000E+00 0.  1.
         21    1    1    2  504  501 -0.10510993121E+02 -0.65018180336E+02  0.14917953018E+04  0.14932484948E+04  0.00000000000E+00 0.  1.
         21    1    1    2  505  503  0.56947100802E+02  0.23810455572E+02 -0.20571298018E+03  0.21477369555E+03  0.00000000000E+00 0.  1.
         21    1    1    2  506  502 -0.22431799991E+02  0.77091598765E+02 -0.68295593528E+03  0.68765915233E+03  0.00000000000E+00 0.  1.
<scales pt_clust_3="39.21698" pt_clust_4="39.21698" pt_clust_5="61.72447" pt_clust_6="106.53674"></scales>
<clustering>
<clus scale="   39.217">  3  4 -1 -1</clus>
<clus scale="   61.724">  2  5  1 -1</clus>
<clus scale="  106.537">  2  6  1 -1</clus>
<clus scale="  117.031">  1  3  2 -1</clus>
</clustering>
</event>
<event>
 6    0  0.2036847E+002  0.8599164E+02  0.7546771E-02  0.1312859E+00
         21   -1    0    0  505  501  0.00000000000E+00  0.00000000000E+00  0.51916434318E+03  0.51916434318E+03  0.00000000000E+00 0.  1.
         21   -1    0    0  506  502 -0.00000000000E+00 -0.00000000000E+00 -0.33775663015E+03  0.33775663015E+03  0.00000000000E+00 0.  1.
         21    1    1    2  503  501 -0.30892121912E+02 -0.61947324078E+01  0.29145024222E+03  0.29314832695E+03  0.00000000000E+00 0.  1.
         21    1    1    2  504  502 -0.87678512902E+02 -0.29541935826E+02 -0.25233317239E+03  0.26876063232E+03  0.00000000000E+00 0.  1.
         21    1    1    2  505  504  0.73671325157E+02  0.11599567826E+01 -0.53583756157E+02  0.91104492612E+02  0.00000000000E+00 0.  1.
         21    1    1    2  506  503  0.44899309657E+02  0.34576711451E+02  0.19587439936E+03  0.20390752146E+03  0.00000000000E+00 0.  1.
<scales pt_clust_3="31.50711" pt_clust_4="14000.00000" pt_clust_5="85.99164" pt_clust_6="34.06581"></scales>
<clustering>
<clus scale="   31.507">  1  3  2 -1</clus>
<clus scale="   34.066">  1  6  2 -1</clus>
<clus scale="   85.992">  1  5  2 -1</clus>
<clus scale="   31.507">  1  3  2 -1</clus>
</clustering>
</event>
<event>
 6    0  0.2036847E+002  0.1818155E+03  0.7546771E-02  0.1166057E+00
         21   -1    0    0  503  501  0.00000000000E+00  0.00000000000E+00  0.16378096004E+04  0.16378096004E+04  0.00000000000E+00 0.  1.
         21   -1    0    0  504  502 -0.00000000000E+00 -0.00000000000E+00 -0.44900491730E+02  0.44900491730E+02  0.00000000000E+00 0.  1.
         21    1    1    2  503  506  0.12649060400E+03  0.13573631686E+02  0.15086822207E+03  0.19734572914E+03  0.00000000000E+00 0.  1.
         21    1    1    2  504  505 -0.15057075186E+03 -0.19038336969E+02  0.12799705668E+04  0.12889370277E+04  0.00000000000E+00 0.  1.
         21    1    1    2  505  501 -0.29759445335E+02  0.25753549034E+02  0.11669313670E+03  0.12315095626E+03  0.00000000000E+00 0.  1.
         21    1    1    2  506  502  0.53839593199E+02 -0.20288843751E+02  0.45377183152E+02  0.73276379055E+02  0.00000000000E+00 0.  1.
<scales pt_clust_3="31.25518" pt_clust_4="175.77512" pt_clust_5="39.35568" pt_clust_6="31.25518"></scales>
<clustering>
<clus scale="   31.255">  3  6 -1 -1</clus>
<clus scale="   39.356">  1  5  2 -1</clus>
<clus scale="  175.775">  1  4  2 -1</clus>
<clus scale="   39.356">  1  3  2 -1</clus>
</clustering>
</event>
<event>
 6    0  0.2036847E+002  0.9454079E+02  0.7546771E-02  0.1292214E+00
         21   -1    0    0  503  501  0.00000000000E+00  0.00000000000E+00  0.25824922928E+03  0.25824922928E+03  0.00000000000E+00 0.  1.
         21   -1    0    0  505  502 -0.00000000000E+00 -0.00000000000E+00 -0.15390624273E+03  0.15390624273E+03  0.00000000000E+00 0.  1.
         21    1    1    2  503  506 -0.55438601396E+01 -0.41925908829E+02  0.12461305750E+03  0.13159380804E+03  0.00000000000E+00 0.  1.
         21    1    1    2  504  501 -0.84981445875E+02  0.83291036181E+02  0.69625821564E+02  0.13786586916E+03  0.00000000000E+00 0.  1.
         21    1    1    2  505  504  0.67557305281E+02 -0.16732186589E+02 -0.82997834670E+02  0.10831710910E+03  0.00000000000E+00 0.  1.
         21    1    1    2  506  502  0.22968000733E+02 -0.24632940763E+02 -0.68980578382E+01  0.34378685697E+02  0.00000000000E+00 0.  1.
<scales pt_clust_3="42.85699" pt_clust_4="94.54079" pt_clust_5="14000.00000" pt_clust_6="33.67953"></scales>
<clustering>
<clus scale="   33.680">  2  6  1 -1</clus>
<clus scale="   42.857">  1  3  2 -1</clus>
<clus scale="   94.541">  1  4  2 -1</clus>
<clus scale="   42.857">  1  3  2 -1</clus>
</clustering>
</event>
<event>
 6    0  0.2036847E+002  0.8889426E+02  0.7546771E-02  0.1305552E+00
         21   -1    0    0  505  501  0.00000000000E+00  0.00000000000E+00  0.86438331510E+03  0.86438331510E+03  0.00000000000E+00 0.  1.
         21   -1    0    0  506  502 -0.00000000000E+00 -0.00000000000E+00 -0.42659957836E+03  0.42659957836E+03  0.00000000000E+00 0. -1.
         21    1    1    2  503  502  0.63122259772E+02  0.57615383340E+00 -0.18414690878E+03  0.19466595914E+03  0.00000000000E+00 0. -1.
         21    1    1    2  504  501  0.24356238108E+02  0.71543086685E+02  0.81541276838E+02  0.11117832260E+03  0.00000000000E+00 0. -1.
         21    1    1    2  505  503 -0.10381541929E+03 -0.24202866047E+02  0.75609467559E+03  0.76357224836E+03  0.00000000000E+00 0.  1.
         21    1    1    2  506  504  0.16336921414E+02 -0.47916374471E+02 -0.21570530691E+03  0.22156636336E+03  0.00000000000E+00 0. -1.
<scales pt_clust_3="88.89426" pt_clust_4="72.75177" pt_clust_5="14000.00000" pt_clust_6="50.62484"></scales>
<clustering>
<clus scale="   50.625">  2  6  1 -1</clus>
<clus scale="   72.752">  1  4  2 -1</clus>
<clus scale="   88.894">  2  3  1 -1</clus>
<clus scale="   72.752">  1  3  2 -1</clus>
</clustering>
</event>
<event>
 6    0  0.2036847E+002  0.1808099E+03  0.7546771E-02  0.1167021E+00
         21   -1    0    0  506  501  0.00000000000E+00  0.00000000000E+00  0.15270886790E+03  0.15270886790E+03  0.00000000000E+00 0.  1.
         21   -1    0    0  505  502 -0.00000000000E+00 -0.00000000000E+00 -0.31030949726E+03  0.31030949726E+03  0.00000000000E+00 0.  1.
         21    1    1    2  503  502 -0.32449039003E+02  0.72463663068E+01 -0.19565365800E+02  0.38577888689E+02  0.00000000000E+00 0.  1.
         21    1    1    2  504  503  0.44534440552E+02  0.72907641188E+02 -0.16389581317E+02  0.86991142736E+02  0.00000000000E+00 0.  1.
         21    1    1    2  505  501 -0.33903569384E+02 -0.16123136065E+03 -0.17310105063E+03  0.23897484680E+03  0.00000000000E+00 0.  1.
         21    1    1    2  506  504  0.21818167835E+02  0.81077353157E+02  0.51455368379E+02  0.98474486937E+02  0.00000000000E+00 0.  1.
<scales pt_clust_3="33.24831" pt_clust_4="70.99429" pt_clust_5="166.24797" pt_clust_6="70.99429"></scales>
<clustering>
<clus scale="   33.248">  2  3  1 -1</clus>
<clus scale="   70.994">  4  6 -1 -1</clus>
<clus scale="  166.248">  2  5  1 -1</clus>
<clus scale="  180.810">  1  3  2 -1</clus>
</clustering>
</event>
<event>
 6    0  0.2036847E+002  0.3155660E+03  0.7546771E-02  0.1077708E+00
         21   -1    0    0  506  501  0.00000000000E+00  0.00000000000E+00  0.21031631515E+03  0.21031631515E+03  0.00000000000E+00 0. -1.
         21   -1    0    0  505  502 -0.00000000000E+00 -0.00000000000E+00 -0.44127820830E+03  0.44127820830E+03  0.00000000000E+00 0. -1.
         21    1    1    2  503  502  0.44979673014E+02 -0.11694411797E+03 -0.45382914292E+02  0.13326179731E+03  0.00000000000E+00 0. -1.
         21    1    1    2  504  501 -0.11854044745E+03  0.12676285066E+03 -0.90372268182E+02  0.19567269826E+03  0.00000000000E+00 0. -1.
         21    1    1    2  505  504 -0.11093847661E+03  0.36630781021E+02 -0.22453587420E+02  0.11896774058E+03  0.00000000000E+00 0. -1.
         21    1    1    2  506  503  0.18449925105E+03 -0.46449513711E+02 -0.72753123264E+02  0.20369228730E+03  0.00000000000E+00 0. -1.
<scales pt_clust_3="115.40673" pt_clust_4="293.71573" pt_clust_5="68.20668" pt_clust_6="115.40673"></scales>
<clustering>
<clus scale="   68.207">  4  5 -1 -1</clus>
<clus scale="  115.407">  3  6 -1 -1</clus>
<clus scale="  293.716">  2  4  1 -1</clus>
<clus scale="  315.566">  1  3  2 -1</clus>
</clustering>
</event>
<event>
 6    0  0.2036847E+002  0.1695185E+03  0.7546771E-02  0.1178351E+00
         21   -1    0    0  502  501  0.00000000000E+00  0.00000000000E+00  0.12461209083E+03  0.12461209083E+03  0.00000000000E+00 0.  1.
         21   -1    0    0  505  502 -0.00000000000E+00 -0.00000000000E+00 -0.38838900118E+03  0.38838900118E+03  0.00000000000E+00 0.  1.
         21    1    1    2  503  506 -0.69348102674E+02 -0.73053631352E+02 -0.39833602986E+02  0.10831762703E+03  0.00000000000E+00 0.  1.
         21    1    1    2  504  503  0.10853621343E+03  0.45165175045E+02 -0.19285974331E+03  0.22586474549E+03  0.00000000000E+00 0.  1.
         21    1    1    2  505  504  0.11638072591E+02  0.74663435523E+02 -0.66977425766E+02  0.10097548663E+03  0.00000000000E+00 0.  1.
         21    1    1    2  506  501 -0.50826183346E+02 -0.46774979216E+02  0.35893861713E+02  0.77843232865E+02  0.00000000000E+00 0.  1.
<scales pt_clust_3="63.28116" pt_clust_4="151.31728" pt_clust_5="75.56503" pt_clust_6="63.28116"></scales>
<clustering>
<clus scale="   63.281">  3  6 -1 -1</clus>
<clus scale="   75.565">  2  5  1 -1</clus>
<clus scale="  151.317">  2  4  1 -1</clus>
<clus scale="  169.518">  1  3  2 -1</clus>
</clustering>
</event>
<event>
 6    0  0.2036847E+002  0.1278566E+03  0.7546771E-02  0.1230671E+00
         21   -1    0    0  505  501  0.00000000000E+00  0.00000000000E+00  0.32648848731E+03  0.32648848731E+03  0.00000000000E+00 0. -1.
         21   -1    0    0  506  502 -0.00000000000E+00 -0.00000000000E+00 -0.25047309756E+03  0.25047309756E+03  0.00000000000E+00 0. -1.
         21    1    1    2  503  502 -0.16823552170E+02  0.38247373109E+02 -0.10676912123E+02  0.43126440959E+02  0.00000000000E+00 0. -1.
         21    1    1    2  504  503 -0.11955164007E+03 -0.16378944493E+02 -0.17354655237E+03  0.21137471539E+03  0.00000000000E+00 0. -1.
         21    1    1    2  505  504  0.36301450809E+02  0.36931635801E+02  0.16304288637E+03  0.17106935392E+03  0.00000000000E+00 0. -1.
         21    1    1    2  506  501  0.10007374144E+03 -0.58800064417E+02  0.97195967865E+02  0.15139107460E+03  0.00000000000E+00 0. -1.
<scales pt_clust_3="41.78389" pt_clust_4="14000.00000" pt_clust_5="52.06813" pt_clust_6="127.85661"></scales>
<clustering>
<clus scale="   41.784">  2  3  1 -1</clus>
<clus scale="   52.068">  1  5  2 -1</clus>
<clus scale="  127.857">  1  6  2 -1</clus>
<clus scale="   52.068">  1  3  2 -1</clus>
</clustering>
</event>
<event>
 6    0  0.2036847E+002  0.3442035E+03  0.7546771E-02  0.1065020E+00
         21   -1    0    0  506  501  0.00000000000E+00  0.00000000000E+00  0.98856712460E+02  0.98856712460E+02  0.00000000000E+00 0.  1.
         21   -1    0    0  504  502 -0.00000000000E+00 -0.00000000000E+00 -0.20091821052E+04  0.20091821052E+04  0.00000000000E+00 0.  1.
         21    1    1    2  503  505  0.22278523498E+02 -0.55410011110E+02 -0.11713955372E+03  0.13148489262E+03  0.00000000000E+00 0.  1.
         21    1    1    2  504  503 -0.13333025592E+03  0.29782423673E+03 -0.14288246580E+04  0.14656111819E+04  0.00000000000E+00 0.  1.
         21    1    1    2  505  501  0.10527412867E+03 -0.28837224016E+03 -0.28410207849E+03  0.41827644216E+03  0.00000000000E+00 0.  1.
         21    1    1    2  506  502  0.57776037516E+01  0.45958014535E+02 -0.80259102551E+02  0.92666301034E+02  0.00000000000E+00 0.  1.
<scales pt_clust_3="36.33581" pt_clust_4="334.19952" pt_clust_5="36.33581" pt_clust_6="46.31976"></scales>
<clustering>
<clus scale="   36.336">  3  5 -1 -1</clus>
<clus scale="   46.320">  1  6  2 -1</clus>
<clus scale="  334.200">  2  4  1 -1</clus>
<clus scale="   46.320">  1  3  2 -1</clus>
</clustering>
</event>
<event>
 6    0  0.2036847E+002  0.1656550E+03  0.7546771E-02  0.1182456E+00
         21   -1    0    0  506  501  0.00000000000E+00  0.00000000000E+00  0.35629878618E+03  0.35629878618E+03  0.00000000000E+00 0. -1.
         21   -1    0    0  503  502 -0.00000000000E+00 -0.00000000000E+00 -0.26858718573E+03  0.26858718573E+03  0.00000000000E+00 0. -1.
         21    1    1    2  503  504  0.10081133078E+03  0.64087836646E+02 -0.14868899678E+03  0.19073173041E+03  0.00000000000E+00 0. -1.
         21    1    1    2  504  501  0.43010918366E+02 -0.15118588444E+02 -0.71824346321E+02  0.85072013845E+02  0.00000000000E+00 0.  1.
         21    1    1    2  505  502 -0.51488792371E+02 -0.26224112408E+02  0.60158508398E+02  0.83413703575E+02  0.00000000000E+00 0. -1.
         21    1    1    2  506  505 -0.92333456779E+02 -0.22745135794E+02  0.24806643514E+03  0.26566852408E+03  0.00000000000E+00 0. -1.
<scales pt_clust_3="40.78603" pt_clust_4="40.78603" pt_clust_5="47.88096" pt_clust_6="163.87735"></scales>
<clustering>
<clus scale="   40.786">  3  4 -1 -1</clus>
<clus scale="   47.881">  5  6 -1 -1</clus>
<clus scale="  163.877">  1  5  2 -1</clus>
<clus scale="  163.877">  1  3  2 -1</clus>
</clustering>
</event>
<event>
 6    0  0.2036847E+002  0.3281081E+03  0.7546771E-02  0.1071977E+00
         21   -1    0    0  504  501  0.00000000000E+00  0.00000000000E+00  0.56290766450E+03  0.56290766450E+03  0.00000000000E+00 0.  1.
         21   -1    0    0  506  502 -0.00000000000E+00 -0.00000000000E+00 -0.17743093288E+03  0.17743093288E+03  0.00000000000E+00 0.  1.
         21    1    1    2  503  505  0.56304313997E+02 -0.22600570128E+02  0.84776056618E+02  0.10424941880E+03  0.00000000000E+00 0.  1.
         21    1    1    2  504  502 -0.30135675562E+03  0.25333485542E+01  0.15116071397E+03  0.33715259670E+03  0.00000000000E+00 0.  1.
         21    1    1    2  505  501  0.50026208147E+02  0.32916224629E+02  0.15237764551E+02  0.61792303841E+02  0.00000000000E+00 0.  1.
         21    1    1    2  506  503  0.19502623348E+03 -0.12849003056E+02  0.13430219649E+03  0.23714427804E+03  0.00000000000E+00 0.  1.
<scales pt_clust_3="35.80826" pt_clust_4="301.36740" pt_clust_5="52.55906" pt_clust_6="52.55906"></scales>
<clustering>
<clus scale="   35.808">  3  6 -1 -1</clus>
<clus scale="   52.559">  3  5 -1 -1</clus>
<clus scale="  301.367">  2  4  1 -1</clus>
<clus scale="  328.108">  1  3  2 -1</clus>
</clustering>
</event>
<event>
 6    0  0.2036847E+002  0.1050041E+03  0.7546771E-02  0.1270112E+00
         21   -1    0    0  505  501  0.00000000000E+00  0.00000000000E+00  0.14308295020E+04  0.14308295020E+04  0.00000000000E+00 0. -1.
         21   -1    0    0  503  502 -0.00000000000E+00 -0.00000000000E+00 -0.14364146848E+02  0.14364146848E+02  0.00000000000E+00 0. -1.
         21    1    1    2  503  501 -0.87740699942E+02  0.16364570049E+02  0.33566068282E+03  0.34732452198E+03  0.00000000000E+00 0. -1.
         21    1    1    2  504  502  0.39194438263E+01  0.48447637544E+02  0.10671644688E+03  0.11726438359E+03  0.00000000000E+00 0. -1.
         21    1    1    2  505  506  0.29226545411E+02 -0.46878938992E+02  0.45188384376E+03  0.45524810173E+03  0.00000000000E+00 0.  1.
         21    1    1    2  506  504  0.54594710705E+02 -0.17933268601E+02  0.52220438169E+03  0.52535664154E+03  0.00000000000E+00 0. -1.
<scales pt_clust_3="97.54327" pt_clust_4="48.60592" pt_clust_5="38.11498" pt_clust_6="38.11498"></scales>
<clustering>
<clus scale="   38.115">  5  6 -1 -1</clus>
<clus scale="   48.606">  2  4  1 -1</clus>
<clus scale="   97.543">  2  3  1 -1</clus>
<clus scale="  105.004">  1  3  2 -1</clus>
</clustering>
</event>
<event>
 6    0  0.2036847E+002  0.1402062E+03  0.7546771E-02  0.1213052E+00
         21   -1    0    0  505  501  0.00000000000E+00  0.00000000000E+00  0.17572506872E+03  0.17572506872E+03  0.00000000000E+00 0. -1.
         21   -1    0    0  506  502 -0.00000000000E+00 -0.00000000000E+00 -0.26374601883E+04  0.26374601883E+04  0.00000000000E+00 0.  1.
         21    1    1    2  503  501  0.53657426110E+02 -0.72234606799E+02  0.13032765411E+03  0.15837378325E+03  0.00000000000E+00 0. -1.
         21    1    1    2  504  503 -0.14236544137E+03 -0.39386565012E+02 -0.17421477683E+03  0.22840754993E+03  0.00000000000E+00 0. -1.
         21    1    1    2  505  502 -0.39056567791E+02  0.36104194039E+02 -0.79831480048E+03  0.80008465113E+03  0.00000000000E+00 0.  1.
         21    1    1    2  506  504  0.12776458305E+03  0.75516977772E+02 -0.16195331963E+04  0.16263192727E+04  0.00000000000E+00 0.  1.
<scales pt_clust_3="89.58437" pt_clust_4="140.20621" pt_clust_5="53.18767" pt_clust_6="14000.00000"></scales>
<clustering>
<clus scale="   53.188">  2  5  1 -1</clus>
<clus scale="   89.584">  1  3  2 -1</clus>
<clus scale="  140.206">  1  4  2 -1</clus>
<clus scale="   89.584">  1  3  2 -1</clus>
</clustering>
</event>
<event>
 6    0  0.2036847E+002  0.1243577E+03  0.7546771E-02  0.1236076E+00
         21   -1    0    0  504  501  0.00000000000E+00  0.00000000000E+00  0.18204945242E+03  0.18204945242E+03  0.00000000000E+00 0. -1.
         21   -1    0    0  503  502 -0.00000000000E+00 -0.00000000000E+00 -0.29148922904E+03  0.29148922904E+03  0.00000000000E+00 0. -1.
         21    1    1    2  503  501  0.20473625674E+02 -0.71800492093E+02 -0.78137066958E+02  0.10807349928E+03  0.00000000000E+00 0. -1.
         21    1    1    2  504  506  0.86482822578E+02 -0.35642073343E+02  0.10999959418E+03  0.14439372117E+03  0.00000000000E+00 0. -1.
         21    1    1    2  505  502 -0.59888933277E+02  0.38720841117E+02 -0.11198992908E+03  0.13276946968E+03  0.00000000000E+00 0. -1.
         21    1    1    2  506  505 -0.47067514976E+02  0.68721724319E+02 -0.29312374766E+02  0.88301991335E+02  0.00000000000E+00 0. -1.
<scales pt_clust_3="74.66244" pt_clust_4="97.68407" pt_clust_5="71.21039" pt_clust_6="71.21039"></scales>
<clustering>
<clus scale="   71.210">  5  6 -1 -1</clus>
<clus scale="   74.662">  2  3  1 -1</clus>
<clus scale="   97.684">  1  4  2 -1</clus>
<clus scale="   97.684">  1  3  2 -1</clus>
</clustering>
</event>
<event>
 6    0  0.2036847E+002  0.2372052E+03  0.7546771E-02  0.1121669E+00
         21   -1    0    0  506  501  0.00000000000E+00  0.00000000000E+00  0.29129492724E+03  0.29129492724E+03  0.00000000000E+00 0.  1.
         21   -1    0    0  504  502 -0.00000000000E+00 -0.00000000000E+00 -0.49311618928E+03  0.49311618928E+03  0.00000000000E+00 0.  1.
         21    1    1    2  503  505  0.41353960500E+02  0.13732075075E+03 -0.20385000683E+03  0.24924278107E+03  0.00000000000E+00 0.  1.
         21    1    1    2  504  501 -0.37554455435E+02 -0.20447886451E+03  0.96513564615E+02  0.22920909953E+03  0.00000000000E+00 0.  1.
         21    1    1    2  505  502  0.49765020737E+02  0.85688921153E+02 -0.17876561612E+03  0.20439249987E+03  0.00000000000E+00 0.  1.
         21    1    1    2  506  503 -0.53564525802E+02 -0.18530807393E+02  0.84280796287E+02  0.10156673604E+03  0.00000000000E+00 0.  1.
<scales pt_clust_3="30.58988" pt_clust_4="234.33318" pt_clust_5="30.58988" pt_clust_6="56.67935"></scales>
<clustering>
<clus scale="   30.590">  3  5 -1 -1</clus>
<clus scale="   56.679">  1  6  2 -1</clus>
<clus scale="  234.333">  1  4  2 -1</clus>
<clus scale="   56.679">  1  3  2 -1</clus>
</clustering>
</event>
<event>
 6    0  0.2036847E+002  0.2058803E+03  0.7546771E-02  0.1144870E+00
         21   -1    0    0  502  501  0.00000000000E+00  0.00000000000E+00  0.57179965023E+03  0.57179965023E+03  0.00000000000E+00 0. -1.
         21   -1    0    0  504  502 -0.00000000000E+00 -0.00000000000E+00 -0.34312757496E+03  0.34312757496E+03  0.00000000000E+00 0.  1.
         21    1    1    2  503  506 -0.97186762690E+01  0.53008703702E+02 -0.47245502804E+02  0.71669469594E+02  0.00000000000E+00 0.  1.
         21    1    1    2  504  503  0.29956183161E+02  0.14100481230E+03 -0.24436891731E+03  0.28371798982E+03  0.00000000000E+00 0.  1.
         21    1    1    2  505  501 -0.27536538764E+02 -0.11677892554E+03  0.38859858634E+03  0.40669944643E+03  0.00000000000E+00 0. -1.
         21    1    1    2  506  505  0.72990318721E+01 -0.77234590461E+02  0.13168790904E+03  0.15284031935E+03  0.00000000000E+00 0. -1.
<scales pt_clust_3="34.64479" pt_clust_4="203.12872" pt_clust_5="52.94857" pt_clust_6="52.94857"></scales>
<clustering>
<clus scale="   34.645">  3  4 -1 -1</clus>
<clus scale="   52.949">  5  6 -1 -1</clus>
<clus scale="  203.129">  2  3  1 -1</clus>
<clus scale="  205.880">  1  3  2 -1</clus>
</clustering>
</event>
<event>
 6    0  0.2036847E+002  0.1024329E+03  0.7546771E-02  0.1275262E+00
         21   -1    0    0  506  501  0.00000000000E+00  0.00000000000E+00  0.10811504374E+03  0.10811504374E+03  0.00000000000E+00 0. -1.
         21   -1    0    0  505  502 -0.00000000000E+00 -0.00000000000E+00 -0.12456281529E+04  0.12456281529E+04  0.00000000000E+00 0.  1.
         21    1    1    2  503  504  0.20884988088E+02  0.43354469538E+02 -0.33657407934E+03  0.33999691711E+03  0.00000000000E+00 0.  1.
         21    1    1    2  504  501 -0.99688256419E+02  0.22652377964E+02 -0.85271145896E+02  0.13312417894E+03  0.00000000000E+00 0.  1.
         21    1    1    2  505  503  0.25732748904E+02  0.38948650904E+02 -0.75512738896E+03  0.75656892966E+03  0.00000000000E+00 0.  1.
         21    1    1    2  506  502  0.53070519428E+02 -0.10495549841E+03  0.39459505042E+02  0.12405317092E+03  0.00000000000E+00 0. -1.
<scales pt_clust_3="40.57966" pt_clust_4="102.22954" pt_clust_5="40.57966" pt_clust_6="93.78137"></scales>
<clustering>
<clus scale="   40.580">  3  5 -1 -1</clus>
<clus scale="  102.230">  1  4  2 -1</clus>
<clus scale="   93.781">  1  6  2 -1</clus>
<clus scale="  102.230">  1  3  2 -1</clus>
</clustering>
</event>
<event>
 6    0  0.2036847E+002  0.1476236E+03  0.7546771E-02  0.1203424E+00
         21   -1    0    0  505  501  0.00000000000E+00  0.00000000000E+00  0.15079481635E+03  0.15079481635E+03  0.00000000000E+00 0.  1.
         21   -1    0    0  503  502 -0.00000000000E+00 -0.00000000000E+00 -0.13650362555E+04  0.13650362555E+04  0.00000000000E+00 0.  1.
         21    1    1    2  503  501  0.45653724567E+01  0.91117499681E+02  0.35813062346E+02  0.98009268993E+02  0.00000000000E+00 0.  1.
         21    1    1    2  504  502 -0.46206764048E+01 -0.99452342493E+02 -0.10648149870E+04  0.10694592445E+04  0.00000000000E+00 0.  1.
         21    1    1    2  505  506 -0.29135520751E+02  0.42133070922E+02  0.71395139761E+02  0.87871156908E+02  0.00000000000E+00 0.  1.
         21    1    1    2  506  504  0.29190824699E+02 -0.33798228111E+02 -0.25663465431E+03  0.26049140152E+03  0.00000000000E+00 0. -1.
<scales pt_clust_3="132.71236" pt_clust_4="43.30212" pt_clust_5="51.22572" pt_clust_6="43.30212"></scales>
<clustering>
<clus scale="   43.302">  4  6 -1 -1</clus>
<clus scale="   51.226">  1  5  2 -1</clus>
<clus scale="  132.712">  1  3  2 -1</clus>
<clus scale="   51.226">  1  3  2 -1</clus>
</clustering>
</event>
<event>
 6    0  0.2036847E+002  0.1936560E+03  0.7546771E-02  0.1155205E+00
         21   -1    0    0  506  501  0.00000000000E+00  0.00000000000E+00  0.25398795611E+04  0.25398795611E+04  0.00000000000E+00 0. -1.
         21   -1    0    0  504  502 -0.00000000000E+00 -0.00000000000E+00 -0.22437424227E+02  0.22437424227E+02  0.00000000000E+00 0. -1.
         21    1    1    2  503  502  0.20647282042E+02  0.65475904019E+02  0.29883493360E+03  0.30661983269E+03  0.00000000000E+00 0. -1.
         21    1    1    2  504  505 -0.44984338441E+02 -0.15991959358E+03  0.11537222963E+04  0.11656212953E+04  0.00000000000E+00 0. -1.
         21    1    1    2  505  501 -0.75731522166E+02 -0.62059356813E+01  0.57649074138E+03  0.58147687141E+03  0.00000000000E+00 0. -1.
         21    1    1    2  506  503  0.10006857857E+03  0.10064962525E+03  0.48839416562E+03  0.50859898594E+03  0.00000000000E+00 0. -1.
<scales pt_clust_3="36.01894" pt_clust_4="186.60280" pt_clust_5="75.98537" pt_clust_6="36.01894"></scales>
<clustering>
<clus scale="   36.019">  3  6 -1 -1</clus>
<clus scale="   75.985">  1  5  2 -1</clus>
<clus scale="  186.603">  1  4  2 -1</clus>
<clus scale="   75.985">  1  3  2 -1</clus>
</clustering>
</event>
<event>
 6    0  0.2036847E+002  0.9991385E+02  0.7546771E-02  0.1280477E+00
         21   -1    0    0  503  501  0.00000000000E+00  0.00000000000E+00  0.47832831023E+03  0.47832831023E+03  0.00000000000E+00 0. -1.
         21   -1    0    0  504  502 -0.00000000000E+00 -0.00000000000E+00 -0.46049547896E+03  0.46049547896E+03  0.00000000000E+00 0.  1.
         21    1    1    2  503  505 -0.23569654301E+02 -0.10903422919E+03  0.26590949842E+03  0.28836063027E+03  0.00000000000E+00 0. -1.
         21    1    1    2  504  501 -0.39874851529E+02  0.41258888428E+02  0.19138426632E+03  0.19980049313E+03  0.00000000000E+00 0.  1.
         21    1    1    2  505  506  0.39091924703E+02  0.33416747281E+02 -0.16042818161E+03  0.16846975702E+03  0.00000000000E+00 0.  1.
         21    1    1    2  506  502  0.24352581127E+02  0.34358593482E+02 -0.27903275185E+03  0.28219290877E+03  0.00000000000E+00 0.  1.
<scales pt_clust_3="92.90077" pt_clust_4="57.37856" pt_clust_5="33.27632" pt_clust_6="33.27632"></scales>
<clustering>
<clus scale="   33.276">  5  6 -1 -1</clus>
<clus scale="   57.379">  1  4  2 -1</clus>
<clus scale="   92.901">  1  3  2 -1</clus>
<clus scale="   57.379">  1  3  2 -1</clus>
</clustering>
</event>
<event>
 6    0  0.2036847E+002  0.1435981E+03  0.7546771E-02  0.1208568E+00
         21   -1    0    0  503  501  0.00000000000E+00  0.00000000000E+00  0.11720544409E+03  0.11720544409E+03  0.00000000000E+00 0. -1.
         21   -1    0    0  504  502 -0.00000000000E+00 -0.00000000000E+00 -0.23889617436E+03  0.23889617436E+03  0.00000000000E+00 0. -1.
         21    1    1    2  503  506  0.83160053193E+02  0.92503616467E+02 -0.13192494968E+01  0.12439555428E+03  0.00000000000E+00 0. -1.
         21    1    1    2  504  501  0.37084818070E+02 -0.26018862277E+01 -0.20362948413E+02  0.42387536037E+02  0.00000000000E+00 0. -1.
         21    1    1    2  505  502 -0.56240532022E+02 -0.74960139299E+02 -0.46763569304E+02  0.10473228413E+03  0.00000000000E+00 0. -1.
         21    1    1    2  506  505 -0.64004339240E+02 -0.14941590940E+02 -0.53244963063E+02  0.84586243994E+02  0.00000000000E+00 0.  1.
<scales pt_clust_3="131.61215" pt_clust_4="37.17598" pt_clust_5="45.24485" pt_clust_6="45.24485"></scales>
<clustering>
<clus scale="   37.176">  2  4  1 -1</clus>
<clus scale="   45.245">  5  6 -1 -1</clus>
<clus scale="  131.612">  1  3  2 -1</clus>
<clus scale="  131.612">  1  3  2 -1</clus>
</clustering>
</event>
<event>
 6    0  0.2036847E+002  0.9408668E+02  0.7546771E-02  0.1293246E+00
         21   -1    0    0  503  501  0.00000000000E+00  0.00000000000E+00  0.54722277060E+03  0.54722277060E+03  0.00000000000E+00 0. -1.
         21   -1    0    0  505  502 -0.00000000000E+00 -0.00000000000E+00 -0.29723418032E+02  0.29723418032E+02  0.00000000000E+00 0. -1.
         21    1    1    2  503  506 -0.31438356105E+02 -0.29097492037E+02  0.85471401238E+02  0.95605411494E+02  0.00000000000E+00 0.  1.
         21    1    1    2  504  501  0.54924655181E+02 -0.27949237271E+02  0.12821421924E+03  0.14225597923E+03  0.00000000000E+00 0. -1.
         21    1    1    2  505  504  0.50522706660E+02  0.56678771170E+02  0.13813630683E+03  0.15762825335E+03  0.00000000000E+00 0. -1.
         21    1    1    2  506  502 -0.74009005736E+02  0.36795813758E+00  0.16567742526E+03  0.18145654456E+03  0.00000000000E+00 0. -1.
<scales pt_clust_3="31.76307" pt_clust_4="61.62692" pt_clust_5="84.31632" pt_clust_6="31.76307"></scales>
<clustering>
<clus scale="   31.763">  3  6 -1 -1</clus>
<clus scale="   61.627">  1  4  2 -1</clus>
<clus scale="   84.316">  2  5  1 -1</clus>
<clus scale="   61.627">  1  3  2 -1</clus>
</clustering>
</event>
<event>
 6    0  0.2036847E+002  0.2769218E+03  0.7546771E-02  0.1097382E+00
         21   -1    0    0  506  501  0.00000000000E+00  0.00000000000E+00  0.68828384357E+03  0.68828384357E+03  0.00000000000E+00 0.  1.
         21   -1    0    0  503  502 -0.00000000000E+00 -0.00000000000E+00 -0.79378350333E+03  0.79378350333E+03  0.00000000000E+00 0.  1.
         21    1    1    2  503  504  0.96963387033E+02 -0.55682293849E+02 -0.34179162978E+03  0.35961637123E+03  0.00000000000E+00 0.  1.
         21    1    1    2  504  501  0.85823919772E+02  0.54559446715E+02  0.93643159939E+02  0.13824442063E+03  0.00000000000E+00 0.  1.
         21    1    1    2  505  502 -0.34903995306E+03  0.15700556412E+03 -0.30002790675E+03  0.48630893558E+03  0.00000000000E+00 0.  1.
         21    1    1    2  506  505  0.16625264626E+03 -0.15588271698E+03  0.44267671682E+03  0.49789761946E+03  0.00000000000E+00 0.  1.
<scales pt_clust_3="112.55879" pt_clust_4="101.69798" pt_clust_5="14000.00000" pt_clust_6="276.92181"></scales>
<clustering>
<clus scale="  101.698">  1  4  2 -1</clus>
<clus scale="  112.559">  2  3  1 -1</clus>
<clus scale="  276.922">  1  6  2 -1</clus>
<clus scale="  101.698">  1  3  2 -1</clus>
</clustering>
</event>
<event>
 6    0  0.2036847E+002  0.8153450E+02  0.7546771E-02  0.1324752E+00
         21   -1    0    0  505  501  0.00000000000E+00  0.00000000000E+00  0.13010277904E+04  0.13010277904E+04  0.00000000000E+00 0.  1.
         21   -1    0    0  506  502 -0.00000000000E+00 -0.00000000000E+00 -0.24581954659E+03  0.24581954659E+03  0.00000000000E+00 0. -1.
         21    1    1    2  503  502 -0.32441963415E+02 -0.26421918961E+02  0.43254169671E+01  0.42063143293E+02  0.00000000000E+00 0. -1.
         21    1    1    2  504  501 -0.44428455323E+02 -0.24193634563E+02  0.85902261541E+03  0.86051093740E+03  0.00000000000E+00 0.  1.
         21    1    1    2  505  503  0.48351946813E+01 -0.48301799434E+02  0.39994233980E+03  0.40287754727E+03  0.00000000000E+00 0.  1.
         21    1    1    2  506  504  0.72035224056E+02  0.98917352957E+02 -0.20808212833E+03  0.24139570905E+03  0.00000000000E+00 0. -1.
<scales pt_clust_3="41.84016" pt_clust_4="14000.00000" pt_clust_5="48.69284" pt_clust_6="81.53450"></scales>
<clustering>
<clus scale="   41.840">  2  3  1 -1</clus>
<clus scale="   48.693">  1  5  2 -1</clus>
<clus scale="   81.535">  2  6  1 -1</clus>
<clus scale="   48.693">  1  3  2 -1</clus>
</clustering>
</event>
<event>
 6    0  0.2036847E+002  0.1262722E+03  0.7546771E-02  0.1233094E+00
         21   -1    0    0  504  501  0.00000000000E+00  0.00000000000E+00  0.95289376273E+03  0.95289376273E+03  0.00000000000E+00 0. -1.
         21   -1    0    0  506  502 -0.00000000000E+00 -0.00000000000E+00 -0.64979118717E+02  0.64979118717E+02  0.00000000000E+00 0. -1.
         21    1    1    2  503  501 -0.11027880234E+03  0.47274616656E+02  0.80134883004E+03  0.81028158749E+03  0.00000000000E+00 0. -1.
         21    1    1    2  504  502 -0.19609424754E+02 -0.32842340609E+02  0.56443661925E+02  0.68183838608E+02  0.00000000000E+00 0. -1.
         21    1    1    2  505  503  0.83168407052E+02  0.86706196258E+01  0.23568377341E+02  0.86877108531E+02  0.00000000000E+00 0. -1.
         21    1    1    2  506  505  0.46719820041E+02 -0.23102895673E+02  0.65537747050E+01  0.52530346810E+02  0.00000000000E+00 0. -1.
<scales pt_clust_3="120.40277" pt_clust_4="38.25113" pt_clust_5="30.04077" pt_clust_6="30.04077"></scales>
<clustering>
<clus scale="   30.041">  5  6 -1 -1</clus>
<clus scale="   38.251">  2  4  1 -1</clus>
<clus scale="  120.403">  1  3  2 -1</clus>
<clus scale="  120.403">  1  3  2 -1</clus>
</clustering>
</event>
<event>
 6    0  0.2036847E+002  0.2752293E+03  0.7546771E-02  0.1098323E+00
         21   -1    0    0  506  501  0.00000000000E+00  0.00000000000E+00  0.63336058113E+02  0.63336058113E+02  0.00000000000E+00 0. -1.
         21   -1    0    0  503  502 -0.00000000000E+00 -0.00000000000E+00 -0.17866456124E+04  0.17866456124E+04  0.00000000000E+00 0. -1.
         21    1    1    2  503  505  0.48184835077E+02 -0.17191294427E+03 -0.17457657452E+03  0.24970546472E+03  0.00000000000E+00 0. -1.
         21    1    1    2  504  502 -0.66409839950E+01  0.83971168866E+02 -0.59478283057E+03  0.60071780014E+03  0.00000000000E+00 0.  1.
         21    1    1    2  505  501  0.15058235473E+02 -0.87682041240E+02 -0.14737437421E+03  0.17214556917E+03  0.00000000000E+00 0.  1.
         21    1    1    2  506  504 -0.56602086555E+02  0.17562381664E+03 -0.80657577497E+03  0.82741283646E+03  0.00000000000E+00 0. -1.
<scales pt_clust_3="272.59105" pt_clust_4="44.62314" pt_clust_5="38.12301" pt_clust_6="44.62314"></scales>
<clustering>
<clus scale="   38.123">  3  5 -1 -1</clus>
<clus scale="   44.623">  4  6 -1 -1</clus>
<clus scale="  272.591">  1  3  2 -1</clus>
<clus scale="  272.591">  1  3  2 -1</clus>
</clustering>
</event>
<event>
 6    0  0.2036847E+002  0.7599072E+02  0.7546771E-02  0.1340830E+00
         21   -1    0    0  503  501  0.00000000000E+00  0.00000000000E+00  0.29165635777E+03  0.29165635777E+03  0.00000000000E+00 0.  1.
         21   -1    0    0  504  502 -0.00000000000E+00 -0.00000000000E+00 -0.31894198363E+03  0.31894198363E+03  0.00000000000E+00 0. -1.
         21    1    1    2  503  505 -0.22871837995E+02  0.70678656916E+02  0.21499119449E+03  0.22746385916E+03  0.00000000000E+00 0.  1.
         21    1    1    2  504  506 -0.10087005450E+02 -0.69504292417E+02 -0.16679092082E+03  0.18097459935E+03  0.00000000000E+00 0. -1.
         21    1    1    2  505  502  0.95957353355E+01  0.83408452627E+02 -0.77680514785E+02  0.11438229969E+03  0.00000000000E+00 0. -1.
         21    1    1    2  506  501  0.23363108110E+02 -0.84582817126E+02  0.21946152492E+01  0.87777583184E+02  0.00000000000E+00 0. -1.
<scales pt_clust_3="75.99072" pt_clust_4="70.23243" pt_clust_5="37.50923" pt_clust_6="14000.00000"></scales>
<clustering>
<clus scale="   70.232">  2  4  1 -1</clus>
<clus scale="   37.509">  2  5  1 -1</clus>
<clus scale="   75.991">  1  3  2 -1</clus>
<clus scale="   75.991">  1  3  2 -1</clus>
</clustering>
</event>
<event>
 6    0  0.2036847E+002  0.1682925E+03  0.7546771E-02  0.1179640E+00
         21   -1    0    0  504  501  0.00000000000E+00  0.00000000000E+00  0.69960785038E+03  0.69960785038E+03  0.00000000000E+00 0.  1.
         21   -1    0    0  505  502 -0.00000000000E+00 -0.00000000000E+00 -0.51294169670E+03  0.51294169670E+03  0.00000000000E+00 0.  1.
         21    1    1    2  503  502 -0.14616962181E+03 -0.50177178160E+02  0.61425436788E+03  0.63339698136E+03  0.00000000000E+00 0.  1.
         21    1    1    2  504  503 -0.99467886188E+01  0.55270970578E+02  0.48444307370E+02  0.74166499911E+02  0.00000000000E+00 0.  1.
         21    1    1    2  505  506  0.11180266692E+03 -0.86284261324E+00 -0.41268182465E+03  0.42755919967E+03  0.00000000000E+00 0.  1.
         21    1    1    2  506  501  0.44313743509E+02 -0.42309498045E+01 -0.63350696916E+02  0.77426866137E+02  0.00000000000E+00 0.  1.
<scales pt_clust_3="155.93811" pt_clust_4="56.15887" pt_clust_5="39.93561" pt_clust_6="39.93561"></scales>
<clustering>
<clus scale="   39.936">  5  6 -1 -1</clus>
<clus scale="   56.159">  1  4  2 -1</clus>
<clus scale="  155.938">  1  3  2 -1</clus>
<clus scale="   56.159">  1  3  2 -1</clus>
</clustering>
</event>
<event>
 6    0  0.2036847E+002  0.2558057E+03  0.7546771E-02  0.1109690E+00
         21   -1    0    0  506  501  0.00000000000E+00  0.00000000000E+00  0.45620848316E+03  0.45620848316E+03  0.00000000000E+00 0. -1.
         21   -1    0    0  504  502 -0.00000000000E+00 -0.00000000000E+00 -0.21937086110E+03  0.21937086110E+03  0.00000000000E+00 0. -1.
         21    1    1    2  503  502  0.15456628768E+03  0.25254232848E+01  0.16314306010E+03  0.22475046854E+03  0.00000000000E+00 0. -1.
         21    1    1    2  504  505 -0.86218889127E+02 -0.75984944256E+00 -0.66871615605E+02  0.10911501816E+03  0.00000000000E+00 0. -1.
         21    1    1    2  505  501 -0.13417047334E+03 -0.73749682617E+02 -0.19427079912E+02  0.15433127692E+03  0.00000000000E+00 0. -1.
         21    1    1    2  506  503  0.65823074786E+02  0.71984108774E+02  0.15999325748E+03  0.18738258065E+03  0.00000000000E+00 0. -1.
<scales pt_clust_3="84.49013" pt_clust_4="66.41871" pt_clust_5="248.91060" pt_clust_6="84.49013"></scales>
<clustering>
<clus scale="   66.419">  4  5 -1 -1</clus>
<clus scale="   84.490">  3  6 -1 -1</clus>
<clus scale="  248.911">  2  4  1 -1</clus>
<clus scale="  255.806">  1  3  2 -1</clus>
</clustering>
</event>
<event>
 6    0  0.2036847E+002  0.1135441E+03  0.7546771E-02  0.1254144E+00
         21   -1    0    0  505  501  0.00000000000E+00  0.00000000000E+00  0.12724961897E+04  0.12724961897E+04  0.00000000000E+00 0.  1.
         21   -1    0    0  504  502 -0.00000000000E+00 -0.00000000000E+00 -0.73927389086E+03  0.73927389086E+03  0.00000000000E+00 0.  1.
         21    1    1    2  503  501  0.10746614354E+03  0.16317614224E+02  0.80375958041E+03  0.81107626007E+03  0.00000000000E+00 0.  1.
         21    1    1    2  504  506 -0.14080453688E+02 -0.27410127762E+02 -0.16677712604E+02  0.35038840986E+02  0.00000000000E+00 0.  1.
         21    1    1    2  505  502  0.42810829118E+02 -0.69868972436E+02 -0.69350558427E+03  0.69832974719E+03  0.00000000000E+00 0.  1.
         21    1    1    2  506  503 -0.13619651897E+03  0.80961485974E+02  0.43964601530E+03  0.46732523232E+03  0.00000000000E+00 0. -1.
<scales pt_clust_3="14000.00000" pt_clust_4="30.81516" pt_clust_5="100.88743" pt_clust_6="113.54409"></scales>
<clustering>
<clus scale="   30.815">  2  4  1 -1</clus>
<clus scale="  100.887">  2  5  1 -1</clus>
<clus scale="  113.544">  2  6  1 -1</clus>
<clus scale="  113.544">  1  3  2 -1</clus>
</clustering>
</event>
<event>
 6    0  0.2036847E+002  0.1117771E+03  0.7546771E-02  0.1257314E+00
         21   -1    0    0  505  501  0.00000000000E+00  0.00000000000E+00  0.29249021268E+03  0.29249021268E+03  0.00000000000E+00 0.  1.
         21   -1    0    0  504  502 -0.00000000000E+00 -0.00000000000E+00 -0.16411940750E+03  0.16411940750E+03  0.00000000000E+00 0.  1.
         21    1    1    2  503  506 -0.51795827306E+02 -0.34150492501E+02 -0.47746548503E+02  0.78286632054E+02  0.00000000000E+00 0.  1.
         21    1    1    2  504  503 -0.16857231915E+02 -0.41971283444E+02 -0.70012455549E+02  0.83351657654E+02  0.00000000000E+00 0.  1.
         21    1    1    2  505  502  0.99766174998E+02  0.66066020026E+02  0.22822816000E+03  0.25769381385E+03  0.00000000000E+00 0.  1.
         21    1    1    2  506  501 -0.31113115777E+02  0.10055755919E+02  0.17901649223E+02  0.37277516620E+02  0.00000000000E+00 0.  1.
<scales pt_clust_3="35.42462" pt_clust_4="35.42462" pt_clust_5="103.64422" pt_clust_6="32.69777"></scales>
<clustering>
<clus scale="   32.698">  1  6  2 -1</clus>
<clus scale="   35.425">  3  4 -1 -1</clus>
<clus scale="  103.644">  1  5  2 -1</clus>
<clus scale="   32.698">  1  3  2 -1</clus>
</clustering>
</event>
<event>
 6    0  0.2036847E+002  0.8810229E+02  0.7546771E-02  0.1307513E+00
         21   -1    0    0  504  501  0.00000000000E+00  0.00000000000E+00  0.19160527205E+02  0.19160527205E+02  0.00000000000E+00 0. -1.
         21   -1    0    0  505  502 -0.00000000000E+00 -0.00000000000E+00 -0.14351064563E+04  0.14351064563E+04  0.00000000000E+00 0.  1.
         21    1    1    2  503  502  0.34977552513E+02  0.19938809305E+02 -0.31580402004E+03  0.31836011743E+03  0.00000000000E+00 0. -1.
         21    1    1    2  504  506  0.36107148561E+02 -0.45813323704E+01 -0.63750875508E+02  0.73409051972E+02  0.00000000000E+00 0. -1.
         21    1    1    2  505  501 -0.52552040388E+02 -0.88104566439E+02 -0.22090200792E+03  0.24356072894E+03  0.00000000000E+00 0. -1.
         21    1    1    2  506  503 -0.18532660685E+02  0.72747089505E+02 -0.81548902563E+03  0.81893708517E+03  0.00000000000E+00 0.  1.
<scales pt_clust_3="42.90083" pt_clust_4="36.39663" pt_clust_5="88.10229" pt_clust_6="14000.00000"></scales>
<clustering>
<clus scale="   36.397">  1  4  2 -1</clus>
<clus scale="   42.901">  2  3  1 -1</clus>
<clus scale="   88.102">  1  5  2 -1</clus>
<clus scale="   36.397">  1  3  2 -1</clus>
</clustering>
</event>
<event>
 6    0  0.2036847E+002  0.1659221E+03  0.7546771E-02  0.1182168E+00
         21   -1    0    0  504  501  0.00000000000E+00  0.00000000000E+00  0.95277401771E+01  0.95277401771E+01  0.00000000000E+00 0.  1.
         21   -1    0    0  503  502 -0.00000000000E+00 -0.00000000000E+00 -0.30375490934E+04  0.30375490934E+04  0.00000000000E+00 0. -1.
         21    1    1    2  503  506 -0.91048932528E+02 -0.33794386036E+02 -0.81622279400E+03  0.82198030274E+03  0.00000000000E+00 0.  1.
         21    1    1    2  504  505  0.84261615470E+02  0.26700835858E+02 -0.11613691972E+04  0.11647280226E+04  0.00000000000E+00 0. -1.
         21    1    1    2  505  502  0.60678448887E+02  0.44044342091E+02 -0.69022305068E+03  0.69428354288E+03  0.00000000000E+00 0.  1.
         21    1    1    2  506  501 -0.53891131830E+02 -0.36950791913E+02 -0.36020631140E+03  0.36608496539E+03  0.00000000000E+00 0.  1.
<scales pt_clust_3="165.87236" pt_clust_4="35.87978" pt_clust_5="35.87978" pt_clust_6="31.78023"></scales>
<clustering>
<clus scale="   31.780">  3  6 -1 -1</clus>
<clus scale="   35.880">  4  5 -1 -1</clus>
<clus scale="  165.872">  1  3  2 -1</clus>
<clus scale="  165.872">  1  3  2 -1</clus>
</clustering>
</event>
<event>
 6    0  0.2036847E+002  0.1234572E+03  0.7546771E-02  0.1237500E+00
         21   -1    0    0  503  501  0.00000000000E+00  0.00000000000E+00  0.39701941025E+03  0.39701941025E+03  0.00000000000E+00 0. -1.
         21   -1    0    0  504  502 -0.00000000000E+00 -0.00000000000E+00 -0.80578070295E+03  0.80578070295E+03  0.00000000000E+00 0. -1.
         21    1    1    2  503  505 -0.56213709310E+02  0.78605116025E+01  0.32053810092E+03  0.32552487293E+03  0.00000000000E+00 0. -1.
         21    1    1    2  504  501 -0.17365446690E+01  0.36745425088E+02  0.41655878223E+02  0.55573861147E+02  0.00000000000E+00 0. -1.
         21    1    1    2  505  506 -0.17713053214E+02  0.76151985666E+02 -0.65496544346E+02  0.10199350223E+03  0.00000000000E+00 0. -1.
         21    1    1    2  506  502  0.75663307194E+02 -0.12075792236E+03 -0.70545872749E+03  0.71970787689E+03  0.00000000000E+00 0. -1.
<scales pt_clust_3="71.42623" pt_clust_4="36.78644" pt_clust_5="14000.00000" pt_clust_6="123.45721"></scales>
<clustering>
<clus scale="   36.786">  1  4  2 -1</clus>
<clus scale="   71.426">  1  3  2 -1</clus>
<clus scale="  123.457">  2  6  1 -1</clus>
<clus scale="   36.786">  1  3  2 -1</clus>
</clustering>
</event>
<event>
 6    0  0.2036847E+002  0.1878569E+03  0.7546771E-02  0.1160409E+00
         21   -1    0    0  504  501  0.00000000000E+00  0.00000000000E+00  0.25107946732E+02  0.25107946732E+02  0.00000000000E+00 0.  1.
         21   -1    0    0  503  502 -0.00000000000E+00 -0.00000000000E+00 -0.16303350831E+04  0.16303350831E+04  0.00000000000E+00 0.  1.
         21    1    1    2  503  505 -0.28544251064E+02 -0.12981660386E+02 -0.12492152556E+03  0.12879707032E+03  0.00000000000E+00 0.  1.
         21    1    1    2  504  506  0.64339235615E+02 -0.90711488745E+02 -0.31979287430E+03  0.33857878534E+03  0.00000000000E+00 0.  1.
         21    1    1    2  505  501 -0.71410487341E+02  0.16697824432E+03 -0.80947543291E+03  0.82959729283E+03  0.00000000000E+00 0.  1.
         21    1    1    2  506  502  0.35615502789E+02 -0.63285095193E+02 -0.35103730356E+03  0.35846988131E+03  0.00000000000E+00 0.  1.
<scales pt_clust_3="31.35758" pt_clust_4="37.65519" pt_clust_5="182.02308" pt_clust_6="37.65519"></scales>
<clustering>
<clus scale="   31.358">  2  3  1 -1</clus>
<clus scale="   37.655">  4  6 -1 -1</clus>
<clus scale="  182.023">  2  5  1 -1</clus>
<clus scale="  187.857">  1  3  2 -1</clus>
</clustering>
</event>
<event>
 6    0  0.2036847E+002  0.2020296E+03  0.7546771E-02  0.1148038E+00
         21   -1    0    0  503  501  0.00000000000E+00  0.00000000000E+00  0.88137534105E+03  0.88137534105E+03  0.00000000000E+00 0.  1.
         21   -1    0    0  505  502 -0.00000000000E+00 -0.00000000000E+00 -0.49171640632E+03  0.49171640632E+03  0.00000000000E+00 0.  1.
         21    1    1    2  503  502 -0.12188830383E+03 -0.23819286178E+02 -0.70444023649E+02  0.14278122241E+03  0.00000000000E+00 0.  1.
         21    1    1    2  504  501  0.12274055242E+03 -0.41511874528E+02  0.59720474963E+03  0.61109900337E+03  0.00000000000E+00 0.  1.
         21    1    1    2  505  506 -0.72967673355E+02  0.40788495711E+02 -0.36732278078E+03  0.37671475684E+03  0.00000000000E+00 0.  1.
         21    1    1    2  506  504  0.72115424763E+02  0.24542664995E+02  0.23022098954E+03  0.24249676476E+03  0.00000000000E+00 0. -1.
<scales pt_clust_3="187.29763" pt_clust_4="58.06954" pt_clust_5="83.59415" pt_clust_6="58.06954"></scales>
<clustering>
<clus scale="   58.070">  4  6 -1 -1</clus>
<clus scale="   83.594">  2  5  1 -1</clus>
<clus scale="  187.298">  2  3  1 -1</clus>
<clus scale="  202.030">  1  3  2 -1</clus>
</clustering>
</event>
<event>
 6    0  0.2036847E+002  0.1075362E+03  0.7546771E-02  0.1265202E+00
         21   -1    0    0  503  501  0.00000000000E+00  0.00000000000E+00  0.83367726321E+02  0.83367726321E+02  0.00000000000E+00 0. -1.
         21   -1    0    0  506  502 -0.00000000000E+00 -0.00000000000E+00 -0.94516893914E+03  0.94516893914E+03  0.00000000000E+00 0. -1.
         21    1    1    2  503  505 -0.26816747510E+02  0.14083204266E+02 -0.10301403580E+02  0.31993647887E+02  0.00000000000E+00 0. -1.
         21    1    1    2  504  502  0.19542591257E+02  0.52777165941E+02 -0.16610029004E+03  0.17537573512E+03  0.00000000000E+00 0.  1.
         21    1    1    2  505  504 -0.27652659023E+02 -0.11253562520E+03  0.16380854317E+02  0.11703533175E+03  0.00000000000E+00 0. -1.
         21    1    1    2  506  501  0.34926815275E+02  0.45675254994E+02 -0.70178037352E+03  0.70413195071E+03  0.00000000000E+00 0. -1.
<scales pt_clust_3="30.28984" pt_clust_4="56.56085" pt_clust_5="107.53617" pt_clust_6="14000.00000"></scales>
<clustering>
<clus scale="   30.290">  1  3  2 -1</clus>
<clus scale="   56.561">  2  4  1 -1</clus>
<clus scale="  107.536">  1  5  2 -1</clus>
<clus scale="   30.290">  1  3  2 -1</clus>
</clustering>
</event>
<event>
 6    0  0.2036847E+002  0.1693140E+03  0.7546771E-02  0.1178565E+00
         21   -1    0    0  503  501  0.00000000000E+00  0.00000000000E+00  0.40642151543E+03  0.40642151543E+03  0.00000000000E+00 0.  1.
         21   -1    0    0  505  502 -0.00000000000E+00 -0.00000000000E+00 -0.26724117079E+03  0.26724117079E+03  0.00000000000E+00 0. -1.
         21    1    1    2  503  506 -0.61545490847E+02  0.48628499200E+02  0.77741132090E+02  0.11043668773E+03  0.00000000000E+00 0. -1.
         21    1    1    2  504  501 -0.11492924127E+03 -0.55633903893E+02  0.23140978619E+03  0.26429973687E+03  0.00000000000E+00 0.  1.
         21    1    1    2  505  504 -0.19780779195E+02 -0.26539537384E+02  0.54794037915E+01  0.33550709919E+02  0.00000000000E+00 0.  1.
         21    1    1    2  506  502  0.19625551131E+03  0.33544942078E+02 -0.17544997744E+03  0.26537555171E+03  0.00000000000E+00 0. -1.
<scales pt_clust_3="78.40726" pt_clust_4="169.31401" pt_clust_5="33.10025" pt_clust_6="14000.00000"></scales>
<clustering>
<clus scale="   33.100">  2  5  1 -1</clus>
<clus scale="   78.407">  1  3  2 -1</clus>
<clus scale="  169.314">  1  4  2 -1</clus>
<clus scale="   78.407">  1  3  2 -1</clus>
</clustering>
</event>
<event>
 6    0  0.2036847E+002  0.1498935E+03  0.7546771E-02  0.1200604E+00
         21   -1    0    0  506  501  0.00000000000E+00  0.00000000000E+00  0.10635004746E+03  0.10635004746E+03  0.00000000000E+00 0. -1.
         21   -1    0    0  504  502 -0.00000000000E+00 -0.00000000000E+00 -0.56003976356E+03  0.56003976356E+03  0.00000000000E+00 0. -1.
         21    1    1    2  503  501 -0.17249705805E+02 -0.11011987516E+03 -0.43526228271E+02  0.11965981699E+03  0.00000000000E+00 0. -1.
         21    1    1    2  504  503 -0.14421849298E+02 -0.71393795981E+02  0.10821922624E+02  0.73635438825E+02  0.00000000000E+00 0. -1.
         21    1    1    2  505  502  0.33745223315E+02  0.13164622619E+03 -0.39308512637E+03  0.41591511819E+03  0.00000000000E+00 0. -1.
         21    1    1    2  506  505 -0.20736682113E+01  0.49867444946E+02 -0.27900284076E+02  0.57179437011E+02  0.00000000000E+00 0. -1.
<scales pt_clust_3="39.13011" pt_clust_4="39.13011" pt_clust_5="141.86215" pt_clust_6="49.91054"></scales>
<clustering>
<clus scale="   39.130">  3  4 -1 -1</clus>
<clus scale="   49.911">  1  6  2 -1</clus>
<clus scale="  141.862">  2  5  1 -1</clus>
<clus scale="   49.911">  1  3  2 -1</clus>
</clustering>
</event>
<event>
 6    0  0.2036847E+002  0.7658975E+02  0.7546771E-02  0.1339018E+00
         21   -1    0    0  504  501  0.00000000000E+00  0.00000000000E+00  0.14582823862E+03  0.14582823862E+03  0.00000000000E+00 0. -1.
         21   -1    0    0  506  502 -0.00000000000E+00 -0.00000000000E+00 -0.43623965185E+03  0.43623965185E+03  0.00000000000E+00 0. -1.
         21    1    1    2  503  502 -0.90711939798E+02 -0.29272991956E+02 -0.30512659971E+03  0.31966827483E+03  0.00000000000E+00 0. -1.
         21    1    1    2  504  505  0.60788301945E+02 -0.44591664286E+02  0.88235855199E+02  0.11605688398E+03  0.00000000000E+00 0. -1.
         21    1    1    2  505  503 -0.52328879220E+00  0.91383281607E+02 -0.51871704147E+02  0.10508021545E+03  0.00000000000E+00 0. -1.
         21    1    1    2  506  501  0.30446926645E+02 -0.17518625365E+02 -0.21648964570E+02  0.41262516208E+02  0.00000000000E+00 0.  1.
<scales pt_clust_3="74.31198" pt_clust_4="76.58975" pt_clust_5="14000.00000" pt_clust_6="35.12716"></scales>
<clustering>
<clus scale="   35.127">  2  6  1 -1</clus>
<clus scale="   76.590">  1  4  2 -1</clus>
<clus scale="   74.312">  2  3  1 -1</clus>
<clus scale="   76.590">  1  3  2 -1</clus>
</clustering>
</event>
<event>
 6    0  0.2036847E+002  0.3979057E+03  0.7546771E-02  0.1044507E+00
         21   -1    0    0  506  501  0.00000000000E+00  0.00000000000E+00  0.11376224894E+04  0.11376224894E+04  0.00000000000E+00 0. -1.
         21   -1    0    0  501  502 -0.00000000000E+00 -0.00000000000E+00 -0.32189222811E+03  0.32189222811E+03  0.00000000000E+00 0.  1.
         21    1    1    2  503  504 -0.13012312745E+03 -0.24968369287E+03  0.83087461216E+03  0.87728364622E+03  0.00000000000E+00 0. -1.
         21    1    1    2  504  505  0.12245949628E+03  0.22454738673E+03 -0.15077851841E+03  0.29690405644E+03  0.00000000000E+00 0.  1.
         21    1    1    2  505  502  0.10202732575E+03  0.79713365950E+02  0.28686332941E+02  0.13261486195E+03  0.00000000000E+00 0. -1.
         21    1    1    2  506  503 -0.94363694592E+02 -0.54577059808E+02  0.10694783457E+03  0.15271215287E+03  0.00000000000E+00 0.  1.
<scales pt_clust_3="362.92953" pt_clust_4="113.62979" pt_clust_5="113.62979" pt_clust_6="109.00992"></scales>
<clustering>
<clus scale="  109.010">  1  6  2 -1</clus>
<clus scale="  113.630">  4  5 -1 -1</clus>
<clus scale="  362.930">  1  3  2 -1</clus>
<clus scale="  109.010">  1  3  2 -1</clus>
</clustering>
</event>
<event>
 6    0  0.2036847E+002  0.1189968E+03  0.7546771E-02  0.1244761E+00
         21   -1    0    0  505  501  0.00000000000E+00  0.00000000000E+00  0.11336707930E+03  0.11336707930E+03  0.00000000000E+00 0.  1.
         21   -1    0    0  503  502 -0.00000000000E+00 -0.00000000000E+00 -0.17828027843E+04  0.17828027843E+04  0.00000000000E+00 0.  1.
         21    1    1    2  503  501  0.29341021090E+02  0.23991853026E+02 -0.35509389866E+02  0.51936704736E+02  0.00000000000E+00 0. -1.
         21    1    1    2  504  502 -0.12022355691E+03 -0.17961430227E+01 -0.16889132679E+04  0.16931878089E+04  0.00000000000E+00 0.  1.
         21    1    1    2  505  506  0.19897880808E+02 -0.46823872333E+02 -0.98276483863E+01  0.51816825006E+02  0.00000000000E+00 0.  1.
         21    1    1    2  506  504  0.70984655010E+02  0.24628162329E+02  0.64814601197E+02  0.99228524906E+02  0.00000000000E+00 0.  1.
<scales pt_clust_3="37.90125" pt_clust_4="118.99682" pt_clust_5="49.29713" pt_clust_6="14000.00000"></scales>
<clustering>
<clus scale="   37.901">  1  3  2 -1</clus>
<clus scale="   49.297">  1  5  2 -1</clus>
<clus scale="  118.997">  2  4  1 -1</clus>
<clus scale="   37.901">  1  3  2 -1</clus>
</clustering>
</event>
<event>
 6    0  0.2036847E+002  0.8651558E+02  0.7546771E-02  0.1311516E+00
         21   -1    0    0  503  501  0.00000000000E+00  0.00000000000E+00  0.71046964980E+02  0.71046964980E+02  0.00000000000E+00 0.  1.
         21   -1    0    0  506  502 -0.00000000000E+00 -0.00000000000E+00 -0.13697319807E+04  0.13697319807E+04  0.00000000000E+00 0.  1.
         21    1    1    2  503  505 -0.49717655573E+02 -0.60843401494E+01 -0.98636806023E+01  0.51050530514E+02  0.00000000000E+00 0.  1.
         21    1    1    2  504  501 -0.29064228571E+02 -0.13507137578E+02  0.33705970543E+02  0.46510908378E+02  0.00000000000E+00 0.  1.
         21    1    1    2  505  502  0.89796873703E+01  0.90035534477E+02 -0.10373572543E+04  0.10412958778E+04  0.00000000000E+00 0.  1.
         21    1    1    2  506  504  0.69802196773E+02 -0.70444056750E+02 -0.28517005137E+03  0.30192162891E+03  0.00000000000E+00 0.  1.
<scales pt_clust_3="70.68963" pt_clust_4="32.04953" pt_clust_5="86.51558" pt_clust_6="14000.00000"></scales>
<clustering>
<clus scale="   32.050">  1  4  2 -1</clus>
<clus scale="   70.690">  1  3  2 -1</clus>
<clus scale="   86.516">  2  5  1 -1</clus>
<clus scale="   32.050">  1  3  2 -1</clus>
</clustering>
</event>
<event>
 6    0  0.2036847E+002  0.1020660E+03  0.7546771E-02  0.1276010E+00
         21   -1    0    0  505  501  0.00000000000E+00  0.00000000000E+00  0.69335413226E+02  0.69335413226E+02  0.00000000000E+00 0. -1.
         21   -1    0    0  503  502 -0.00000000000E+00 -0.00000000000E+00 -0.10681455956E+04  0.10681455956E+04  0.00000000000E+00 0. -1.
         21    1    1    2  503  506  0.50122346978E+02  0.17016601373E+01 -0.12692343186E+03  0.13647235203E+03  0.00000000000E+00 0. -1.
         21    1    1    2  504  501 -0.94412915702E+02 -0.12486985891E+02 -0.20005904424E+01  0.95256106524E+02  0.00000000000E+00 0. -1.
         21    1    1    2  505  502 -0.86455618905E+01  0.50997554748E+02 -0.23591854878E+02  0.56851314385E+02  0.00000000000E+00 0. -1.
         21    1    1    2  506  504  0.52936130615E+02 -0.40212228994E+02 -0.84629430514E+03  0.84890123584E+03  0.00000000000E+00 0. -1.
<scales pt_clust_3="50.15122" pt_clust_4="14000.00000" pt_clust_5="51.48171" pt_clust_6="102.06601"></scales>
<clustering>
<clus scale="   50.151">  2  3  1 -1</clus>
<clus scale="   51.482">  1  5  2 -1</clus>
<clus scale="  102.066">  2  6  1 -1</clus>
<clus scale="   51.482">  1  3  2 -1</clus>
</clustering>
</event>
<event>
 6    0  0.2036847E+002  0.1835730E+03  0.7546771E-02  0.1164389E+00
         21   -1    0    0  504  501  0.00000000000E+00  0.00000000000E+00  0.13456370915E+03  0.13456370915E+03  0.00000000000E+00 0.  1.
         21   -1    0    0  505  502 -0.00000000000E+00 -0.00000000000E+00 -0.80310739031E+03  0.80310739031E+03  0.00000000000E+00 0.  1.
         21    1    1    2  503  506  0.30639643368E+02  0.45711678625E+02  0.11376489331E+02  0.56194037210E+02  0.00000000000E+00 0.  1.
         21    1    1    2  504  502  0.14273202308E+03  0.62764747626E+02 -0.26908382709E+03  0.31099509636E+03  0.00000000000E+00 0.  1.
         21    1    1    2  505  503 -0.17044631012E+03 -0.13930170092E+03 -0.46138283646E+03  0.51120546778E+03  0.00000000000E+00 0.  1.
         21    1    1    2  506  501 -0.29253563302E+01  0.30825274665E+02  0.50546493059E+02  0.59276498112E+02  0.00000000000E+00 0. -1.
<scales pt_clust_3="65.72782" pt_clust_4="183.57297" pt_clust_5="14000.00000" pt_clust_6="30.96377"></scales>
<clustering>
<clus scale="   30.964">  1  6  2 -1</clus>
<clus scale="   65.728">  1  3  2 -1</clus>
<clus scale="  183.573">  2  4  1 -1</clus>
<clus scale="   30.964">  1  3  2 -1</clus>
</clustering>
</event>
<event>
 6    0  0.2036847E+002  0.5922166E+02  0.7546771E-02  0.1401127E+00
         21   -1    0    0  506  501  0.00000000000E+00  0.00000000000E+00  0.14889498746E+04  0.14889498746E+04  0.00000000000E+00 0.  1.
         21   -1    0    0  505  502 -0.00000000000E+00 -0.00000000000E+00 -0.68977724533E+02  0.68977724533E+02  0.00000000000E+00 0. -1.
         21    1    1    2  503  502  0.41632609099E+02  0.86717469275E+02  0.15182699580E+02  0.97384331308E+02  0.00000000000E+00 0. -1.
         21    1    1    2  504  501 -0.35235294502E+02 -0.76528885929E+02  0.11314730561E+04  0.11346054262E+04  0.00000000000E+00 0.  1.
         21    1    1    2  505  504 -0.23258511182E+00 -0.49142662786E+02 -0.64977910705E+00  0.49147508731E+02  0.00000000000E+00 0. -1.
         21    1    1    2  506  503 -0.61647294852E+01  0.38954079440E+02  0.27396617351E+03  0.27679033296E+03  0.00000000000E+00 0.  1.
<scales pt_clust_3="59.22166" pt_clust_4="14000.00000" pt_clust_5="48.36561" pt_clust_6="39.43887"></scales>
<clustering>
<clus scale="   39.439">  1  6  2 -1</clus>
<clus scale="   48.366">  2  5  1 -1</clus>
<clus scale="   59.222">  2  3  1 -1</clus>
<clus scale="   39.439">  1  3  2 -1</clus>
</clustering>
</event>
<event>
 6    0  0.2036847E+002  0.1322017E+03  0.7546771E-02  0.1224225E+00
         21   -1    0    0  503  501  0.00000000000E+00  0.00000000000E+00  0.59670337716E+03  0.59670337716E+03  0.00000000000E+00 0. -1.
         21   -1    0    0  506  502 -0.00000000000E+00 -0.00000000000E+00 -0.22370905285E+03  0.22370905285E+03  0.00000000000E+00 0.  1.
         21    1    1    2  503  502  0.76251380384E+02 -0.57509105771E+02  0.48033668656E+03  0.48973962747E+03  0.00000000000E+00 0. -1.
         21    1    1    2  504  501 -0.42308187429E+01 -0.39464454333E+02  0.86651093984E+02  0.95308735547E+02  0.00000000000E+00 0. -1.
         21    1    1    2  505  504 -0.43251447593E+02  0.42660285910E+02 -0.49574842289E+02  0.78410794542E+02  0.00000000000E+00 0.  1.
         21    1    1    2  506  505 -0.28769114048E+02  0.54313274195E+02 -0.14441861395E+03  0.15695327245E+03  0.00000000000E+00 0.  1.
<scales pt_clust_3="119.60488" pt_clust_4="39.69059" pt_clust_5="55.85575" pt_clust_6="55.85575"></scales>
<clustering>
<clus scale="   39.691">  1  4  2 -1</clus>
<clus scale="   55.856">  5  6 -1 -1</clus>
<clus scale="  119.605">  1  3  2 -1</clus>
<clus scale="   39.691">  1  3  2 -1</clus>
</clustering>
</event>
<event>
 6    0  0.2036847E+002  0.1641775E+03  0.7546771E-02  0.1184059E+00
         21   -1    0    0  506  501  0.00000000000E+00  0.00000000000E+00  0.12849872007E+03  0.12849872007E+03  0.00000000000E+00 0.  1.
         21   -1    0    0  503  502 -0.00000000000E+00 -0.00000000000E+00 -0.49216415751E+03  0.49216415751E+03  0.00000000000E+00 0.  1.
         21    1    1    2  503  504 -0.83665333276E+02  0.24546690544E+02 -0.31739069967E+03  0.32914933426E+03  0.00000000000E+00 0.  1.
         21    1    1    2  504  505  0.82493773316E+02 -0.19069975115E+02 -0.17316420286E+02  0.86421901149E+02  0.00000000000E+00 0.  1.
         21    1    1    2  505  501  0.72619518033E+02 -0.22400707080E+02  0.54809779205E+02  0.93698975307E+02  0.00000000000E+00 0.  1.
         21    1    1    2  506  502 -0.71447958073E+02  0.16923991651E+02 -0.83768096697E+02  0.11139266686E+03  0.00000000000E+00 0.  1.
<scales pt_clust_3="147.29708" pt_clust_4="68.69664" pt_clust_5="68.69664" pt_clust_6="73.42501"></scales>
<clustering>
<clus scale="   68.697">  4  5 -1 -1</clus>
<clus scale="   73.425">  2  6  1 -1</clus>
<clus scale="  147.297">  2  3  1 -1</clus>
<clus scale="  164.178">  1  3  2 -1</clus>
</clustering>
</event>
<event>
 6    0  0.2036847E+002  0.1097411E+03  0.7546771E-02  0.1261050E+00
         21   -1    0    0  503  501  0.00000000000E+00  0.00000000000E+00  0.16983814263E+03  0.16983814263E+03  0.00000000000E+00 0.  1.
         21   -1    0    0  504  502 -0.00000000000E+00 -0.00000000000E+00 -0.14955255470E+04  0.14955255470E+04  0.00000000000E+00 0. -1.
         21    1    1    2  503  506  0.21009897855E+02 -0.52699739025E+02 -0.97754075748E+02  0.11302450012E+03  0.00000000000E+00 0.  1.
         21    1    1    2  504  505 -0.91490062848E+01  0.11336383614E+03 -0.13480600975E+04  0.13528492488E+04  0.00000000000E+00 0. -1.
         21    1    1    2  505  501 -0.33320498110E+02  0.65112444452E+00  0.12962186352E+03  0.13383761452E+03  0.00000000000E+00 0.  1.
         21    1    1    2  506  502  0.21459606539E+02 -0.61315221558E+02 -0.94950946715E+01  0.65652326161E+02  0.00000000000E+00 0.  1.
<scales pt_clust_3="54.48846" pt_clust_4="14000.00000" pt_clust_5="33.32686" pt_clust_6="109.74115"></scales>
<clustering>
<clus scale="   33.327">  1  5  2 -1</clus>
<clus scale="   54.488">  1  3  2 -1</clus>
<clus scale="  109.741">  1  6  2 -1</clus>
<clus scale="   33.327">  1  3  2 -1</clus>
</clustering>
</event>
<event>
 6    0  0.2036847E+002  0.1683074E+03  0.7546771E-02  0.1179625E+00
         21   -1    0    0  505  501  0.00000000000E+00  0.00000000000E+00  0.53170459120E+02  0.53170459120E+02  0.00000000000E+00 0.  1.
         21   -1    0    0  504  502 -0.00000000000E+00 -0.00000000000E+00 -0.21071609685E+04  0.21071609685E+04  0.00000000000E+00 0.  1.
         21    1    1    2  503  502 -0.14125004640E+03  0.10240848044E+03 -0.17282188646E+04  0.17370030271E+04  0.00000000000E+00 0.  1.
         21    1    1    2  504  506  0.28313552249E+02  0.25671103002E+02 -0.15322195953E+03  0.15791653381E+03  0.00000000000E+00 0.  1.
         21    1    1    2  505  503 -0.17830656317E+02 -0.39438716106E+02 -0.30371397923E+02  0.52875007751E+02  0.00000000000E+00 0.  1.
         21    1    1    2  506  501  0.13076715047E+03 -0.88640867339E+02 -0.14217828741E+03  0.21253685896E+03  0.00000000000E+00 0.  1.
<scales pt_clust_3="168.30742" pt_clust_4="38.21862" pt_clust_5="42.53573" pt_clust_6="14000.00000"></scales>
<clustering>
<clus scale="   38.219">  2  4  1 -1</clus>
<clus scale="   42.536">  1  5  2 -1</clus>
<clus scale="  168.307">  2  3  1 -1</clus>
<clus scale="   42.536">  1  3  2 -1</clus>
</clustering>
</event>
<event>
 6    0  0.2036847E+002  0.2830948E+03  0.7546771E-02  0.1094011E+00
         21   -1    0    0  505  501  0.00000000000E+00  0.00000000000E+00  0.50007314474E+03  0.50007314474E+03  0.00000000000E+00 0.  1.
         21   -1    0    0  503  502 -0.00000000000E+00 -0.00000000000E+00 -0.22978889766E+03  0.22978889766E+03  0.00000000000E+00 0.  1.
         21    1    1    2  503  504 -0.38565699692E+02  0.79426716501E+02  0.61803923398E+02  0.10777588522E+03  0.00000000000E+00 0.  1.
         21    1    1    2  504  501 -0.75193582836E+02  0.15225796070E+03  0.28237780998E+03  0.32950537031E+03  0.00000000000E+00 0.  1.
         21    1    1    2  505  506  0.90045512292E+01 -0.92011007260E+02  0.19636387904E+02  0.94512936309E+02  0.00000000000E+00 0.  1.
         21    1    1    2  506  502  0.10475473130E+03 -0.13967366994E+03 -0.93533874199E+02  0.19806785056E+03  0.00000000000E+00 0.  1.
<scales pt_clust_3="56.47854" pt_clust_4="269.72918" pt_clust_5="84.62348" pt_clust_6="84.62348"></scales>
<clustering>
<clus scale="   56.479">  3  4 -1 -1</clus>
<clus scale="   84.623">  5  6 -1 -1</clus>
<clus scale="  269.729">  1  3  2 -1</clus>
<clus scale="  269.729">  1  3  2 -1</clus>
</clustering>
</event>
<event>
 6    0  0.2036847E+002  0.1121946E+03  0.7546771E-02  0.1256559E+00
         21   -1    0    0  505  501  0.00000000000E+00  0.00000000000E+00  0.23708690566E+03  0.23708690566E+03  0.00000000000E+00 0.  1.
         21   -1    0    0  503  502 -0.00000000000E+00 -0.00000000000E+00 -0.20650954680E+03  0.20650954680E+03  0.00000000000E+00 0.  1.
         21    1    1    2  503  504  0.14297177848E+03  0.39099451854E+02 -0.71121769982E+02  0.16440195480E+03  0.00000000000E+00 0.  1.
         21    1    1    2  504  501 -0.68035955139E+01 -0.29878348160E+02  0.63287063324E+02  0.70315410721E+02  0.00000000000E+00 0.  1.
         21    1    1    2  505  506 -0.71705571155E+02  0.57091900296E+02  0.65332637137E+02  0.11255899560E+03  0.00000000000E+00 0.  1.
         21    1    1    2  506  502 -0.64462611813E+02 -0.66313003990E+02 -0.26920571616E+02  0.96320091342E+02  0.00000000000E+00 0.  1.
<scales pt_clust_3="14000.00000" pt_clust_4="30.64318" pt_clust_5="85.93606" pt_clust_6="112.19461"></scales>
<clustering>
<clus scale="   30.643">  1  4  2 -1</clus>
<clus scale="   85.936">  1  5  2 -1</clus>
<clus scale="  112.195">  2  6  1 -1</clus>
<clus scale="   30.643">  1  3  2 -1</clus>
</clustering>
</event>
<event>
 6    0  0.2036847E+002  0.2161785E+03  0.7546771E-02  0.1136765E+00
         21   -1    0    0  505  501  0.00000000000E+00  0.00000000000E+00  0.43739860972E+03  0.43739860972E+03  0.00000000000E+00 0.  1.
         21   -1    0    0  504  502 -0.00000000000E+00 -0.00000000000E+00 -0.47406826573E+03  0.47406826573E+03  0.00000000000E+00 0. -1.
         21    1    1    2  503  506  0.65870738270E+02  0.23278436656E+02 -0.94643964219E+02  0.11763638781E+03  0.00000000000E+00 0. -1.
         21    1    1    2  504  501 -0.18700757283E+02  0.41141277882E+02  0.27228976052E+02  0.52761161905E+02  0.00000000000E+00 0.  1.
         21    1    1    2  505  503 -0.18917383343E+03 -0.82032677038E+02  0.34151770239E+03  0.39893663707E+03  0.00000000000E+00 0.  1.
         21    1    1    2  506  502  0.14200385244E+03  0.17612962500E+02 -0.31077237022E+03  0.34213268866E+03  0.00000000000E+00 0. -1.
<scales pt_clust_3="32.33326" pt_clust_4="45.19207" pt_clust_5="211.16798" pt_clust_6="32.33326"></scales>
<clustering>
<clus scale="   32.333">  3  6 -1 -1</clus>
<clus scale="   45.192">  1  4  2 -1</clus>
<clus scale="  211.168">  1  5  2 -1</clus>
<clus scale="   45.192">  1  3  2 -1</clus>
</clustering>
</event>
<event>
 6    0  0.2036847E+002  0.1482199E+03  0.7546771E-02  0.1202678E+00
         21   -1    0    0  503  501  0.00000000000E+00  0.00000000000E+00  0.72769457024E+03  0.72769457024E+03  0.00000000000E+00 0.  1.
         21   -1    0    0  505  502 -0.00000000000E+00 -0.00000000000E+00 -0.37314350187E+03  0.37314350187E+03  0.00000000000E+00 0. -1.
         21    1    1    2  503  502  0.27010683363E+02  0.16479186094E+02  0.13775330489E+01  0.31670778130E+02  0.00000000000E+00 0.  1.
         21    1    1    2  504  506  0.18120540316E+02 -0.98018411242E+02  0.31837366003E+03  0.33361317469E+03  0.00000000000E+00 0.  1.
         21    1    1    2  505  504 -0.11620890050E+03  0.10906666275E+03 -0.32808734174E+03  0.36474833692E+03  0.00000000000E+00 0. -1.
         21    1    1    2  506  501  0.71077676820E+02 -0.27527437606E+02  0.36288721702E+03  0.37080578237E+03  0.00000000000E+00 0.  1.
<scales pt_clust_3="31.64081" pt_clust_4="148.21988" pt_clust_5="14000.00000" pt_clust_6="76.43527"></scales>
<clustering>
<clus scale="   31.641">  2  3  1 -1</clus>
<clus scale="   76.435">  1  6  2 -1</clus>
<clus scale="  148.220">  1  4  2 -1</clus>
<clus scale="   76.435">  1  3  2 -1</clus>
</clustering>
</event>
<event>
 6    0  0.2036847E+002  0.1639309E+03  0.7546771E-02  0.1184329E+00
         21   -1    0    0  504  501  0.00000000000E+00  0.00000000000E+00  0.10015496970E+04  0.10015496970E+04  0.00000000000E+00 0.  1.
         21   -1    0    0  503  502 -0.00000000000E+00 -0.00000000000E+00 -0.88839606830E+02  0.88839606830E+02  0.00000000000E+00 0. -1.
         21    1    1    2  503  506  0.45349862203E+02 -0.33311135670E+02  0.17565902732E+02  0.58947457115E+02  0.00000000000E+00 0. -1.
         21    1    1    2  504  505 -0.10013094061E+03  0.42758865715E+02  0.47258800217E+03  0.48496798416E+03  0.00000000000E+00 0.  1.
         21    1    1    2  505  502 -0.36136200943E+02  0.24778275590E+02  0.44468571709E+03  0.44683909290E+03  0.00000000000E+00 0. -1.
         21    1    1    2  506  501  0.90917279350E+02 -0.34226005635E+02 -0.22129531819E+02  0.99634769657E+02  0.00000000000E+00 0. -1.
<scales pt_clust_3="34.01467" pt_clust_4="38.81260" pt_clust_5="38.81260" pt_clust_6="158.51655"></scales>
<clustering>
<clus scale="   34.015">  3  6 -1 -1</clus>
<clus scale="   38.813">  4  5 -1 -1</clus>
<clus scale="  158.517">  2  3  1 -1</clus>
<clus scale="  163.931">  1  3  2 -1</clus>
</clustering>
</event>
<event>
 6    0  0.2036847E+002  0.1423030E+03  0.7546771E-02  0.1210263E+00
         21   -1    0    0  504  501  0.00000000000E+00  0.00000000000E+00  0.10127109921E+03  0.10127109921E+03  0.00000000000E+00 0.  1.
         21   -1    0    0  505  502 -0.00000000000E+00 -0.00000000000E+00 -0.32012996466E+03  0.32012996466E+03  0.00000000000E+00 0.  1.
         21    1    1    2  503  502 -0.31499566637E+02  0.30513994023E+02 -0.98277620954E+02  0.10761885202E+03  0.00000000000E+00 0.  1.
         21    1    1    2  504  503 -0.98733714927E+02 -0.89356888849E+02 -0.95922050942E+02  0.16411593434E+03  0.00000000000E+00 0.  1.
         21    1    1    2  505  506  0.73380404001E+02  0.24672514628E+02 -0.30210541344E+02  0.83102908960E+02  0.00000000000E+00 0.  1.
         21    1    1    2  506  501  0.56852877563E+02  0.34170380198E+02  0.55513477901E+01  0.66563368547E+02  0.00000000000E+00 0.  1.
<scales pt_clust_3="43.85575" pt_clust_4="137.40966" pt_clust_5="34.24517" pt_clust_6="34.24517"></scales>
<clustering>
<clus scale="   34.245">  5  6 -1 -1</clus>
<clus scale="   43.856">  2  3  1 -1</clus>
<clus scale="  137.410">  2  4  1 -1</clus>
<clus scale="  142.303">  1  3  2 -1</clus>
</clustering>
</event>
<event>
 6    0  0.2036847E+002  0.1836167E+03  0.7546771E-02  0.1164348E+00
         21   -1    0    0  504  501  0.00000000000E+00  0.00000000000E+00  0.10081678511E+04  0.10081678511E+04  0.00000000000E+00 0. -1.
         21   -1    0    0  503  502 -0.00000000000E+00 -0.00000000000E+00 -0.50942585783E+03  0.50942585783E+03  0.00000000000E+00 0. -1.
         21    1    1    2  503  501  0.14486692005E+03  0.38534593389E+02 -0.45298205294E+03  0.47714157197E+03  0.00000000000E+00 0. -1.
         21    1    1    2  504  505 -0.32961476143E+02 -0.77214762765E+02  0.36185519788E+03  0.37146704125E+03  0.00000000000E+00 0. -1.
         21    1    1    2  505  506 -0.14717222652E+03  0.26568040817E+02  0.60898693738E+03  0.62708102742E+03  0.00000000000E+00 0. -1.
         21    1    1    2  506  502  0.35266782613E+02  0.12112128560E+02 -0.19118089025E+02  0.41904068324E+02  0.00000000000E+00 0.  1.
<scales pt_clust_3="183.61669" pt_clust_4="83.70554" pt_clust_5="14000.00000" pt_clust_6="37.28873"></scales>
<clustering>
<clus scale="   37.289">  2  6  1 -1</clus>
<clus scale="   83.706">  1  4  2 -1</clus>
<clus scale="  183.617">  2  3  1 -1</clus>
<clus scale="   83.706">  1  3  2 -1</clus>
</clustering>
</event>
<event>
 6    0  0.2036847E+002  0.1071038E+03  0.7546771E-02  0.1266029E+00
         21   -1    0    0  506  501  0.00000000000E+00  0.00000000000E+00  0.34542113521E+03  0.34542113521E+03  0.00000000000E+00 0. -1.
         21   -1    0    0  503  502 -0.00000000000E+00 -0.00000000000E+00 -0.17746449180E+03  0.17746449180E+03  0.00000000000E+00 0.  1.
         21    1    1    2  503  501  0.80947816004E+02 -0.87591639494E+02 -0.19254341504E+02  0.12081214298E+03  0.00000000000E+00 0.  1.
         21    1    1    2  504  502 -0.96387755640E+02 -0.59070702098E+02 -0.34862638688E+02  0.11830194783E+03  0.00000000000E+00 0.  1.
         21    1    1    2  505  504  0.24773894024E+02  0.94391180729E+02  0.63214553842E+02  0.11627347351E+03  0.00000000000E+00 0. -1.
         21    1    1    2  506  505 -0.93339543880E+01  0.52271160863E+02  0.15885906975E+03  0.16749806269E+03  0.00000000000E+00 0. -1.
<scales pt_clust_3="107.10381" pt_clust_4="14000.00000" pt_clust_5="105.08580" pt_clust_6="53.09799"></scales>
<clustering>
<clus scale="   53.098">  1  6  2 -1</clus>
<clus scale="  107.104">  2  3  1 -1</clus>
<clus scale="  105.086">  1  5  2 -1</clus>
<clus scale="   53.098">  1  3  2 -1</clus>
</clustering>
</event>
<event>
 6    0  0.2036847E+002  0.1107474E+03  0.7546771E-02  0.1259192E+00
         21   -1    0    0  505  501  0.00000000000E+00  0.00000000000E+00  0.31774879249E+03  0.31774879249E+03  0.00000000000E+00 0. -1.
         21   -1    0    0  506  502 -0.00000000000E+00 -0.00000000000E+00 -0.34407771669E+03  0.34407771669E+03  0.00000000000E+00 0.  1.
         21    1    1    2  503  502  0.40644458480E+02  0.27786381073E+02 -0.15421669873E+03  0.16188528391E+03  0.00000000000E+00 0.  1.
         21    1    1    2  504  501 -0.46092716187E+02 -0.33289741643E+02  0.92238527966E+02  0.10835447118E+03  0.00000000000E+00 0. -1.
         21    1    1    2  505  503  0.11103005561E+02 -0.80368680681E+02  0.19459958569E+03  0.21083500734E+03  0.00000000000E+00 0. -1.
         21    1    1    2  506  504 -0.56547478538E+01  0.85872041252E+02 -0.15895033913E+03  0.18075174675E+03  0.00000000000E+00 0.  1.
<scales pt_clust_3="49.23469" pt_clust_4="54.72532" pt_clust_5="110.74739" pt_clust_6="14000.00000"></scales>
<clustering>
<clus scale="   49.235">  2  3  1 -1</clus>
<clus scale="   54.725">  1  4  2 -1</clus>
<clus scale="  110.747">  1  5  2 -1</clus>
<clus scale="   54.725">  1  3  2 -1</clus>
</clustering>
</event>
<event>
 6    0  0.2036847E+002  0.1146035E+03  0.7546771E-02  0.1252275E+00
         21   -1    0    0  506  501  0.00000000000E+00  0.00000000000E+00  0.56883471953E+03  0.56883471953E+03  0.00000000000E+00 0.  1.
         21   -1    0    0  504  502 -0.00000000000E+00 -0.00000000000E+00 -0.47473718168E+02  0.47473718168E+02  0.00000000000E+00 0.  1.
         21    1    1    2  503  505 -0.30456082098E+02 -0.26548116437E+02  0.57122467489E+02  0.69966790087E+02  0.00000000000E+00 0.  1.
         21    1    1    2  504  503  0.13871322284E+02  0.89139350406E+02  0.50403724813E+02  0.10333814808E+03  0.00000000000E+00 0.  1.
         21    1    1    2  505  501 -0.23368783499E+02 -0.97723623631E+02  0.31663972738E+03  0.33219982482E+03  0.00000000000E+00 0.  1.
         21    1    1    2  506  502  0.39953543312E+02  0.35132389661E+02  0.97195081680E+02  0.11080367471E+03  0.00000000000E+00 0. -1.
<scales pt_clust_3="38.56764" pt_clust_4="97.13257" pt_clust_5="38.56764" pt_clust_6="53.20311"></scales>
<clustering>
<clus scale="   38.568">  3  5 -1 -1</clus>
<clus scale="   53.203">  1  6  2 -1</clus>
<clus scale="   97.133">  2  4  1 -1</clus>
<clus scale="   53.203">  1  3  2 -1</clus>
</clustering>
</event>
<event>
 6    0  0.2494481E+002  0.1004687E+03  0.7546771E-02  0.1279313E+00
         21   -1    0    0  503  501  0.00000000000E+00  0.00000000000E+00  0.21873221109E+03  0.21873221109E+03  0.00000000000E+00 0. -1.
         21   -1    0    0  506  502 -0.00000000000E+00 -0.00000000000E+00 -0.32350782461E+04  0.32350782461E+04  0.00000000000E+00 0.  1.
         21    1    1    2  503  504 -0.11113289405E+01  0.86318208323E+02 -0.29813524138E+03  0.31038152376E+03  0.00000000000E+00 0.  1.
         21    1    1    2  504  502 -0.43956633000E+02 -0.89732205253E+02 -0.28568894205E+04  0.28586362510E+04  0.00000000000E+00 0.  1.
         21    1    1    2  505  501  0.77401524667E+02  0.11162135456E+02  0.20016123987E+03  0.21489558217E+03  0.00000000000E+00 0. -1.
         21    1    1    2  506  505 -0.32333562727E+02 -0.77481385254E+01 -0.61482612960E+02  0.69897100266E+02  0.00000000000E+00 0. -1.
<scales pt_clust_3="14000.00000" pt_clust_4="100.46874" pt_clust_5="78.12527" pt_clust_6="33.24895"></scales>
<clustering>
<clus scale="   33.249">  2  6  1 -1</clus>
<clus scale="   78.125">  1  5  2 -1</clus>
<clus scale="  100.469">  2  4  1 -1</clus>
<clus scale="   78.125">  1  3  2 -1</clus>
</clustering>
</event>
<event>
 6    0  0.2036847E+002  0.1189522E+03  0.7546771E-02  0.1244836E+00
         21   -1    0    0  505  501  0.00000000000E+00  0.00000000000E+00  0.13685879635E+03  0.13685879635E+03  0.00000000000E+00 0.  1.
         21   -1    0    0  504  502 -0.00000000000E+00 -0.00000000000E+00 -0.37049376790E+03  0.37049376790E+03  0.00000000000E+00 0. -1.
         21    1    1    2  503  506  0.15736216231E+01  0.43505947878E+02  0.17219155135E+02  0.46816055893E+02  0.00000000000E+00 0. -1.
         21    1    1    2  504  503 -0.50186245766E+00 -0.72534777039E+02 -0.22875884633E+03  0.23998365677E+03  0.00000000000E+00 0. -1.
         21    1    1    2  505  502 -0.58447705501E+02 -0.23836696610E+02 -0.94811832493E+02  0.11390173820E+03  0.00000000000E+00 0.  1.
         21    1    1    2  506  501  0.57375946336E+02  0.52865525771E+02  0.72716552130E+02  0.10665111339E+03  0.00000000000E+00 0.  1.
<scales pt_clust_3="38.82400" pt_clust_4="106.99723" pt_clust_5="63.12149" pt_clust_6="38.82400"></scales>
<clustering>
<clus scale="   38.824">  3  6 -1 -1</clus>
<clus scale="   63.121">  2  5  1 -1</clus>
<clus scale="  106.997">  2  4  1 -1</clus>
<clus scale="  118.952">  1  3  2 -1</clus>
</clustering>
</event>
<event>
 6    0  0.2036847E+002  0.1478332E+03  0.7546771E-02  0.1203161E+00
         21   -1    0    0  505  501  0.00000000000E+00  0.00000000000E+00  0.10608530235E+04  0.10608530235E+04  0.00000000000E+00 0. -1.
         21   -1    0    0  504  502 -0.00000000000E+00 -0.00000000000E+00 -0.16605424308E+03  0.16605424308E+03  0.00000000000E+00 0.  1.
         21    1    1    2  503  506  0.53631967284E+02  0.20132764007E+02 -0.27274339806E+02  0.63447661211E+02  0.00000000000E+00 0. -1.
         21    1    1    2  504  501 -0.60965982021E+02  0.60925174030E+01  0.62865993865E+03  0.63163857402E+03  0.00000000000E+00 0. -1.
         21    1    1    2  505  503 -0.56718027777E+02 -0.90522360013E+02  0.38698961792E+03  0.40146257200E+03  0.00000000000E+00 0. -1.
         21    1    1    2  506  502  0.64052042514E+02  0.64297078604E+02 -0.93576436387E+02  0.13035845931E+03  0.00000000000E+00 0.  1.
<scales pt_clust_3="35.33431" pt_clust_4="61.26965" pt_clust_5="140.98469" pt_clust_6="35.33431"></scales>
<clustering>
<clus scale="   35.334">  3  6 -1 -1</clus>
<clus scale="   61.270">  1  4  2 -1</clus>
<clus scale="  140.985">  1  5  2 -1</clus>
<clus scale="   61.270">  1  3  2 -1</clus>
</clustering>
</event>
<event>
 6    0  0.2036847E+002  0.1363144E+03  0.7546771E-02  0.1218376E+00
         21   -1    0    0  506  501  0.00000000000E+00  0.00000000000E+00  0.20888519628E+03  0.20888519628E+03  0.00000000000E+00 0.  1.
         21   -1    0    0  505  502 -0.00000000000E+00 -0.00000000000E+00 -0.21073513606E+03  0.21073513606E+03  0.00000000000E+00 0.  1.
         21    1    1    2  503  502 -0.34050725272E+02  0.23399640270E+02 -0.43066806103E+02  0.59680355597E+02  0.00000000000E+00 0.  1.
         21    1    1    2  504  501  0.23045517985E+01 -0.30040652162E+02  0.10813588192E+02  0.32010708066E+02  0.00000000000E+00 0.  1.
         21    1    1    2  505  504  0.15982436898E+03 -0.22889873234E+02 -0.55706989280E+02  0.17079532743E+03  0.00000000000E+00 0.  1.
         21    1    1    2  506  503 -0.12807819551E+03  0.29530885125E+02  0.86110267407E+02  0.15713394125E+03  0.00000000000E+00 0.  1.
<scales pt_clust_3="40.49111" pt_clust_4="30.12892" pt_clust_5="136.31445" pt_clust_6="14000.00000"></scales>
<clustering>
<clus scale="   30.129">  1  4  2 -1</clus>
<clus scale="   40.491">  2  3  1 -1</clus>
<clus scale="  136.314">  2  5  1 -1</clus>
<clus scale="   30.129">  1  3  2 -1</clus>
</clustering>
</event>
<event>
 6    0  0.2036847E+002  0.1590902E+03  0.7546771E-02  0.1189728E+00
         21   -1    0    0  504  501  0.00000000000E+00  0.00000000000E+00  0.14701115501E+03  0.14701115501E+03  0.00000000000E+00 0. -1.
         21   -1    0    0  501  502 -0.00000000000E+00 -0.00000000000E+00 -0.66135759529E+03  0.66135759529E+03  0.00000000000E+00 0. -1.
         21    1    1    2  503  506  0.35321339522E+01  0.10167808247E+03  0.59865659768E+02  0.11804577775E+03  0.00000000000E+00 0. -1.
         21    1    1    2  504  503  0.49056154851E+02  0.29684451237E+02  0.32008671466E+02  0.65667556853E+02  0.00000000000E+00 0.  1.
         21    1    1    2  505  502  0.73646336276E+01 -0.37774596210E+02 -0.12633803898E+03  0.13206989831E+03  0.00000000000E+00 0. -1.
         21    1    1    2  506  505 -0.59952922431E+02 -0.93587937495E+02 -0.47988273253E+03  0.49258551738E+03  0.00000000000E+00 0. -1.
<scales pt_clust_3="54.59155" pt_clust_4="54.59155" pt_clust_5="30.40121" pt_clust_6="150.63454"></scales>
<clustering>
<clus scale="   30.401">  5  6 -1 -1</clus>
<clus scale="   54.592">  3  4 -1 -1</clus>
<clus scale="  150.635">  2  5  1 -1</clus>
<clus scale="  159.090">  1  3  2 -1</clus>
</clustering>
</event>
<event>
 6    0  0.2036847E+002  0.9338362E+02  0.7546771E-02  0.1294859E+00
         21   -1    0    0  504  501  0.00000000000E+00  0.00000000000E+00  0.18018304463E+04  0.18018304463E+04  0.00000000000E+00 0. -1.
         21   -1    0    0  506  502 -0.00000000000E+00 -0.00000000000E+00 -0.20376057858E+02  0.20376057858E+02  0.00000000000E+00 0. -1.
         21    1    1    2  503  501  0.34301065227E+02 -0.73426242264E+02  0.24051531185E+03  0.25380226824E+03  0.00000000000E+00 0. -1.
         21    1    1    2  504  505 -0.12234493506E+02  0.72121285815E+02  0.12342707220E+04  0.12364365644E+04  0.00000000000E+00 0. -1.
         21    1    1    2  505  502 -0.20031239865E+02  0.57697167007E+02  0.22177251838E+03  0.23002883201E+03  0.00000000000E+00 0. -1.
         21    1    1    2  506  503 -0.20353318547E+01 -0.56392210559E+02  0.84895836305E+02  0.10193883955E+03  0.00000000000E+00 0. -1.
<scales pt_clust_3="43.88064" pt_clust_4="77.16921" pt_clust_5="61.07548" pt_clust_6="43.88064"></scales>
<clustering>
<clus scale="   43.881">  3  6 -1 -1</clus>
<clus scale="   61.075">  2  5  1 -1</clus>
<clus scale="   77.169">  1  4  2 -1</clus>
<clus scale="   77.169">  1  3  2 -1</clus>
</clustering>
</event>
<event>
 6    0  0.2036847E+002  0.1089820E+03  0.7546771E-02  0.1262467E+00
         21   -1    0    0  505  501  0.00000000000E+00  0.00000000000E+00  0.47317867015E+02  0.47317867015E+02  0.00000000000E+00 0. -1.
         21   -1    0    0  504  502 -0.00000000000E+00 -0.00000000000E+00 -0.10441516966E+04  0.10441516966E+04  0.00000000000E+00 0.  1.
         21    1    1    2  503  501  0.19017296539E+02 -0.25660033840E+02 -0.78728516804E+01  0.32894934228E+02  0.00000000000E+00 0.  1.
         21    1    1    2  504  503 -0.90587298787E+02 -0.40320271324E+02 -0.76695042908E+03  0.77333352678E+03  0.00000000000E+00 0.  1.
         21    1    1    2  505  506  0.95489711054E+02  0.30932735286E+02 -0.58207003672E+02  0.11603091961E+03  0.00000000000E+00 0. -1.
         21    1    1    2  506  502 -0.23919708806E+02  0.35047569878E+02 -0.16380354515E+03  0.16921018299E+03  0.00000000000E+00 0. -1.
<scales pt_clust_3="31.93892" pt_clust_4="14000.00000" pt_clust_5="108.98196" pt_clust_6="39.95353"></scales>
<clustering>
<clus scale="   31.939">  1  3  2 -1</clus>
<clus scale="   39.954">  2  6  1 -1</clus>
<clus scale="  108.982">  1  5  2 -1</clus>
<clus scale="   31.939">  1  3  2 -1</clus>
</clustering>
</event>
<event>
 6    0  0.2036847E+002  0.1017235E+03  0.7546771E-02  0.1276713E+00
         21   -1    0    0  505  501  0.00000000000E+00  0.00000000000E+00  0.12280751911E+04  0.12280751911E+04  0.00000000000E+00 0. -1.
         21   -1    0    0  506  502 -0.00000000000E+00 -0.00000000000E+00 -0.64428292137E+02  0.64428292137E+02  0.00000000000E+00 0. -1.
         21    1    1    2  503  502  0.30850336614E+02  0.11119173239E+02 -0.27026580781E+02  0.42494886180E+02  0.00000000000E+00 0. -1.
         21    1    1    2  504  503  0.16955063479E+02  0.41537058973E+02  0.53925475169E+01  0.45187177545E+02  0.00000000000E+00 0. -1.
         21    1    1    2  505  504  0.66035124821E+02 -0.72193556309E+02  0.44906005987E+03  0.45959491365E+03  0.00000000000E+00 0. -1.
         21    1    1    2  506  501 -0.11384052492E+03  0.19537324097E+02  0.73622087234E+03  0.74522650584E+03  0.00000000000E+00 0. -1.
<scales pt_clust_3="32.79298" pt_clust_4="61.78711" pt_clust_5="14000.00000" pt_clust_6="101.72349"></scales>
<clustering>
<clus scale="   32.793">  2  3  1 -1</clus>
<clus scale="   61.787">  2  4  1 -1</clus>
<clus scale="  101.723">  1  6  2 -1</clus>
<clus scale="  101.723">  1  3  2 -1</clus>
</clustering>
</event>
<event>
 6    0  0.2036847E+002  0.9420792E+02  0.7546771E-02  0.1292970E+00
         21   -1    0    0  506  501  0.00000000000E+00  0.00000000000E+00  0.79470681101E+03  0.79470681101E+03  0.00000000000E+00 0. -1.
         21   -1    0    0  503  502 -0.00000000000E+00 -0.00000000000E+00 -0.16089549019E+03  0.16089549019E+03  0.00000000000E+00 0. -1.
         21    1    1    2  503  501  0.92827399629E+02  0.35896746856E+02  0.62878766791E+03  0.63661560919E+03  0.00000000000E+00 0. -1.
         21    1    1    2  504  502 -0.52481000633E+02 -0.30196495448E+02 -0.13228918458E+03  0.14548715449E+03  0.00000000000E+00 0. -1.
         21    1    1    2  505  504 -0.64619503761E+02  0.19489416971E+02  0.67729871132E+02  0.95618267521E+02  0.00000000000E+00 0. -1.
         21    1    1    2  506  505  0.24273104765E+02 -0.25189668380E+02  0.69582966365E+02  0.77881269996E+02  0.00000000000E+00 0. -1.
<scales pt_clust_3="94.20792" pt_clust_4="60.47141" pt_clust_5="14000.00000" pt_clust_6="34.98147"></scales>
<clustering>
<clus scale="   34.981">  1  6  2 -1</clus>
<clus scale="   60.471">  2  4  1 -1</clus>
<clus scale="   94.208">  1  3  2 -1</clus>
<clus scale="   34.981">  1  3  2 -1</clus>
</clustering>
</event>
<event>
 6    0  0.2036847E+002  0.8659011E+02  0.7546771E-02  0.1311326E+00
         21   -1    0    0  505  501  0.00000000000E+00  0.00000000000E+00  0.57966930073E+02  0.57966930073E+02  0.00000000000E+00 0.  1.
         21   -1    0    0  506  502 -0.00000000000E+00 -0.00000000000E+00 -0.23936170580E+04  0.23936170580E+04  0.00000000000E+00 0.  1.
         21    1    1    2  503  504  0.43732808802E+02 -0.22668999006E+02 -0.34405996728E+02  0.60085062141E+02  0.00000000000E+00 0.  1.
         21    1    1    2  504  501  0.13503973776E+02  0.27680632507E+02  0.23852253550E+02  0.38955162984E+02  0.00000000000E+00 0.  1.
         21    1    1    2  505  502  0.40808632162E+02 -0.74616935364E+02 -0.20565470340E+04  0.20583048206E+04  0.00000000000E+00 0.  1.
         21    1    1    2  506  503 -0.98045414740E+02  0.69605301863E+02 -0.26854935075E+03  0.29423894234E+03  0.00000000000E+00 0.  1.
<scales pt_clust_3="51.11130" pt_clust_4="30.79894" pt_clust_5="14000.00000" pt_clust_6="86.59011"></scales>
<clustering>
<clus scale="   30.799">  1  4  2 -1</clus>
<clus scale="   51.111">  1  3  2 -1</clus>
<clus scale="   86.590">  1  6  2 -1</clus>
<clus scale="   30.799">  1  3  2 -1</clus>
</clustering>
</event>
<event>
 6    0  0.2036847E+002  0.9259384E+02  0.7546771E-02  0.1296689E+00
         21   -1    0    0  504  501  0.00000000000E+00  0.00000000000E+00  0.74431654570E+03  0.74431654570E+03  0.00000000000E+00 0. -1.
         21   -1    0    0  505  502 -0.00000000000E+00 -0.00000000000E+00 -0.53378735599E+02  0.53378735599E+02  0.00000000000E+00 0. -1.
         21    1    1    2  503  501 -0.69386943405E+02 -0.32822570243E+02  0.51411032757E+03  0.51980890522E+03  0.00000000000E+00 0. -1.
         21    1    1    2  504  506 -0.39647510627E+02  0.82835894665E+01  0.11014335771E+03  0.11735460025E+03  0.00000000000E+00 0. -1.
         21    1    1    2  505  503  0.66143671813E+02 -0.32798005159E+02  0.26620297753E+02  0.78481429114E+02  0.00000000000E+00 0. -1.
         21    1    1    2  506  502  0.42890782219E+02  0.57336985935E+02  0.40063827065E+02  0.82050346706E+02  0.00000000000E+00 0. -1.
<scales pt_clust_3="14000.00000" pt_clust_4="40.50362" pt_clust_5="92.59384" pt_clust_6="70.03708"></scales>
<clustering>
<clus scale="   40.504">  1  4  2 -1</clus>
<clus scale="   70.037">  2  6  1 -1</clus>
<clus scale="   92.594">  2  5  1 -1</clus>
<clus scale="   40.504">  1  3  2 -1</clus>
</clustering>
</event>
<event>
 6    0  0.2036847E+002  0.1506904E+03  0.7546771E-02  0.1199627E+00
         21   -1    0    0  503  501  0.00000000000E+00  0.00000000000E+00  0.78420130549E+03  0.78420130549E+03  0.00000000000E+00 0.  1.
         21   -1    0    0  505  502 -0.00000000000E+00 -0.00000000000E+00 -0.87845893513E+02  0.87845893513E+02  0.00000000000E+00 0. -1.
         21    1    1    2  503  504 -0.16647803159E+02 -0.52132217568E+02  0.37894552875E+03  0.38287678334E+03  0.00000000000E+00 0.  1.
         21    1    1    2  504  506 -0.48699072566E+02 -0.77938780705E+02  0.31491239187E+03  0.32804857530E+03  0.00000000000E+00 0.  1.
         21    1    1    2  505  501  0.45015511196E+02  0.94981604223E+02 -0.29829591781E+02  0.10925980933E+03  0.00000000000E+00 0. -1.
         21    1    1    2  506  502  0.20331364529E+02  0.35089394051E+02  0.32327083136E+02  0.51862031030E+02  0.00000000000E+00 0.  1.
<scales pt_clust_3="41.13845" pt_clust_4="41.13845" pt_clust_5="141.13900" pt_clust_6="40.55404"></scales>
<clustering>
<clus scale="   40.554">  2  6  1 -1</clus>
<clus scale="   41.138">  3  4 -1 -1</clus>
<clus scale="  141.139">  2  5  1 -1</clus>
<clus scale="  150.690">  1  3  2 -1</clus>
</clustering>
</event>
<event>
 6    0  0.2036847E+002  0.1024487E+03  0.7546771E-02  0.1275229E+00
         21   -1    0    0  503  501  0.00000000000E+00  0.00000000000E+00  0.22438578308E+03  0.22438578308E+03  0.00000000000E+00 0.  1.
         21   -1    0    0  505  502 -0.00000000000E+00 -0.00000000000E+00 -0.19496621486E+04  0.19496621486E+04  0.00000000000E+00 0.  1.
         21    1    1    2  503  506 -0.35685017090E+02 -0.27041863144E+02  0.57287837475E+02  0.72708865550E+02  0.00000000000E+00 0.  1.
         21    1    1    2  504  501 -0.67089066784E+02  0.28743071597E+02  0.13121399451E+03  0.15014732566E+03  0.00000000000E+00 0.  1.
         21    1    1    2  505  504 -0.68237968605E+02 -0.64627905356E+02 -0.14478591240E+04  0.14509063476E+04  0.00000000000E+00 0.  1.
         21    1    1    2  506  502  0.17101205248E+03  0.62926696904E+02 -0.46591907358E+03  0.50028539295E+03  0.00000000000E+00 0.  1.
<scales pt_clust_3="44.77368" pt_clust_4="102.44875" pt_clust_5="94.41047" pt_clust_6="14000.00000"></scales>
<clustering>
<clus scale="   44.774">  1  3  2 -1</clus>
<clus scale="   94.410">  2  5  1 -1</clus>
<clus scale="  102.449">  1  4  2 -1</clus>
<clus scale="   44.774">  1  3  2 -1</clus>
</clustering>
</event>
<event>
 6    0  0.2036847E+002  0.1062490E+03  0.7546771E-02  0.1267678E+00
         21   -1    0    0  503  501  0.00000000000E+00  0.00000000000E+00  0.83729480043E+02  0.83729480043E+02  0.00000000000E+00 0.  1.
         21   -1    0    0  506  502 -0.00000000000E+00 -0.00000000000E+00 -0.26417499209E+03  0.26417499209E+03  0.00000000000E+00 0.  1.
         21    1    1    2  503  504 -0.16744416750E+02  0.42637110047E+02  0.10665230549E+02  0.47032390840E+02  0.00000000000E+00 0. -1.
         21    1    1    2  504  502 -0.89526944053E+02 -0.33258252497E+02 -0.15060868892E+03  0.17833721498E+03  0.00000000000E+00 0.  1.
         21    1    1    2  505  501  0.49235353298E+02  0.11734343466E+02 -0.34855317675E+02  0.61454926582E+02  0.00000000000E+00 0.  1.
         21    1    1    2  506  505  0.57036007504E+02 -0.21113201015E+02 -0.56467359982E+01  0.61079939723E+02  0.00000000000E+00 0.  1.
<scales pt_clust_3="45.80719" pt_clust_4="96.41599" pt_clust_5="40.72422" pt_clust_6="40.72422"></scales>
<clustering>
<clus scale="   40.724">  5  6 -1 -1</clus>
<clus scale="   45.807">  1  3  2 -1</clus>
<clus scale="   96.416">  2  4  1 -1</clus>
<clus scale="   45.807">  1  3  2 -1</clus>
</clustering>
</event>
<event>
 6    0  0.2036847E+002  0.1129733E+03  0.7546771E-02  0.1255161E+00
         21   -1    0    0  503  501  0.00000000000E+00  0.00000000000E+00  0.92395096766E+03  0.92395096766E+03  0.00000000000E+00 0. -1.
         21   -1    0    0  505  502 -0.00000000000E+00 -0.00000000000E+00 -0.23032711464E+03  0.23032711464E+03  0.00000000000E+00 0. -1.
         21    1    1    2  503  506  0.48453255731E+02  0.10300975842E+03  0.43107805614E+03  0.44585537880E+03  0.00000000000E+00 0. -1.
         21    1    1    2  504  502 -0.54160687805E+02 -0.23370763926E+02 -0.15364064313E+03  0.16457527133E+03  0.00000000000E+00 0. -1.
         21    1    1    2  505  501  0.48105254098E+02 -0.58765160203E+02  0.46776677555E+03  0.47389156548E+03  0.00000000000E+00 0. -1.
         21    1    1    2  506  504 -0.42397822024E+02 -0.20873834288E+02 -0.51580335534E+02  0.69955866688E+02  0.00000000000E+00 0.  1.
<scales pt_clust_3="105.61670" pt_clust_4="35.89285" pt_clust_5="75.94379" pt_clust_6="35.89285"></scales>
<clustering>
<clus scale="   35.893">  4  6 -1 -1</clus>
<clus scale="   75.944">  1  5  2 -1</clus>
<clus scale="  105.617">  1  3  2 -1</clus>
<clus scale="   75.944">  1  3  2 -1</clus>
</clustering>
</event>
<event>
 6    0  0.2036847E+002  0.2220458E+03  0.7546771E-02  0.1132367E+00
         21   -1    0    0  502  501  0.00000000000E+00  0.00000000000E+00  0.15270456987E+03  0.15270456987E+03  0.00000000000E+00 0. -1.
         21   -1    0    0  505  502 -0.00000000000E+00 -0.00000000000E+00 -0.99143389583E+03  0.99143389583E+03  0.00000000000E+00 0.  1.
         21    1    1    2  503  504 -0.20089387326E+02  0.57689515751E+02 -0.18696191291E+03  0.19668863869E+03  0.00000000000E+00 0.  1.
         21    1    1    2  504  506 -0.58501455533E+02  0.93591241682E+02 -0.16785636918E+03  0.20089176562E+03  0.00000000000E+00 0. -1.
         21    1    1    2  505  503  0.26822226404E+02  0.70834562455E+02 -0.51127402704E+03  0.51685403916E+03  0.00000000000E+00 0.  1.
         21    1    1    2  506  501  0.51768616455E+02 -0.22211531989E+03  0.27362983171E+02  0.22970402222E+03  0.00000000000E+00 0. -1.
<scales pt_clust_3="41.50042" pt_clust_4="41.50042" pt_clust_5="75.74277" pt_clust_6="214.92456"></scales>
<clustering>
<clus scale="   41.500">  3  4 -1 -1</clus>
<clus scale="   75.743">  2  5  1 -1</clus>
<clus scale="  214.925">  1  6  2 -1</clus>
<clus scale="  214.925">  1  3  2 -1</clus>
</clustering>
</event>
<event>
 6    0  0.2036847E+002  0.9137348E+02  0.7546771E-02  0.1299559E+00
         21   -1    0    0  504  501  0.00000000000E+00  0.00000000000E+00  0.12306433619E+04  0.12306433619E+04  0.00000000000E+00 0. -1.
         21   -1    0    0  505  502 -0.00000000000E+00 -0.00000000000E+00 -0.36355730793E+02  0.36355730793E+02  0.00000000000E+00 0. -1.
         21    1    1    2  503  502  0.39693096704E+02  0.22469406151E+02  0.47284293872E+02  0.65697949631E+02  0.00000000000E+00 0. -1.
         21    1    1    2  504  503  0.24129856483E+02 -0.10161376606E+03  0.15892014581E+03  0.19016629610E+03  0.00000000000E+00 0. -1.
         21    1    1    2  505  506  0.23477599610E+02  0.85418385533E+02  0.20694361269E+03  0.22510699035E+03  0.00000000000E+00 0.  1.
         21    1    1    2  506  501 -0.87300552798E+02 -0.62740256283E+01  0.78113957876E+03  0.78602785664E+03  0.00000000000E+00 0. -1.
<scales pt_clust_3="45.61158" pt_clust_4="91.37348" pt_clust_5="14000.00000" pt_clust_6="83.83495"></scales>
<clustering>
<clus scale="   45.612">  2  3  1 -1</clus>
<clus scale="   83.835">  1  6  2 -1</clus>
<clus scale="   91.373">  2  4  1 -1</clus>
<clus scale="   83.835">  1  3  2 -1</clus>
</clustering>
</event>
<event>
 6    0  0.2036847E+002  0.2521413E+03  0.7546771E-02  0.1111959E+00
         21   -1    0    0  502  501  0.00000000000E+00  0.00000000000E+00  0.14320148446E+04  0.14320148446E+04  0.00000000000E+00 0. -1.
         21   -1    0    0  505  502 -0.00000000000E+00 -0.00000000000E+00 -0.19891060605E+03  0.19891060605E+03  0.00000000000E+00 0. -1.
         21    1    1    2  503  504 -0.13004717885E+03  0.11485962548E+03 -0.66699116804E+02  0.18588645587E+03  0.00000000000E+00 0. -1.
         21    1    1    2  504  506  0.13179352625E+03 -0.15186068503E+03  0.68514240330E+03  0.71403873426E+03  0.00000000000E+00 0. -1.
         21    1    1    2  505  503 -0.30364986687E+02  0.78424057862E+02 -0.26262212998E+02  0.88102605521E+02  0.00000000000E+00 0. -1.
         21    1    1    2  506  501  0.28618639286E+02 -0.41422998316E+02  0.64092316503E+03  0.64289765498E+03  0.00000000000E+00 0. -1.
<scales pt_clust_3="40.22032" pt_clust_4="245.43363" pt_clust_5="40.22032" pt_clust_6="50.34770"></scales>
<clustering>
<clus scale="   40.220">  3  5 -1 -1</clus>
<clus scale="   50.348">  1  6  2 -1</clus>
<clus scale="  245.434">  1  4  2 -1</clus>
<clus scale="   50.348">  1  3  2 -1</clus>
</clustering>
</event>
<event>
 6    0  0.2036847E+002  0.2734367E+03  0.7546771E-02  0.1099329E+00
         21   -1    0    0  506  501  0.00000000000E+00  0.00000000000E+00  0.33116508451E+03  0.33116508451E+03  0.00000000000E+00 0. -1.
         21   -1    0    0  504  502 -0.00000000000E+00 -0.00000000000E+00 -0.11472280169E+04  0.11472280169E+04  0.00000000000E+00 0. -1.
         21    1    1    2  503  502 -0.28191608219E+02 -0.14836106050E+02 -0.49730581182E+03  0.49832514214E+03  0.00000000000E+00 0. -1.
         21    1    1    2  504  501  0.22016889204E+02  0.45220688829E+02 -0.37763995370E+03  0.38097452505E+03  0.00000000000E+00 0. -1.
         21    1    1    2  505  503  0.27380769237E+03  0.25034551562E+02 -0.88160584577E+02  0.28873806443E+03  0.00000000000E+00 0. -1.
         21    1    1    2  506  505 -0.26763297336E+03 -0.55419134341E+02  0.14704341770E+03  0.31035536981E+03  0.00000000000E+00 0. -1.
<scales pt_clust_3="31.85713" pt_clust_4="36.97429" pt_clust_5="273.43666" pt_clust_6="14000.00000"></scales>
<clustering>
<clus scale="   31.857">  2  3  1 -1</clus>
<clus scale="   36.974">  2  4  1 -1</clus>
<clus scale="  273.437">  2  5  1 -1</clus>
<clus scale="  273.437">  1  3  2 -1</clus>
</clustering>
</event>
<event>
 6    0  0.2036847E+002  0.1334543E+03  0.7546771E-02  0.1222418E+00
         21   -1    0    0  504  501  0.00000000000E+00  0.00000000000E+00  0.25456277915E+03  0.25456277915E+03  0.00000000000E+00 0. -1.
         21   -1    0    0  505  502 -0.00000000000E+00 -0.00000000000E+00 -0.34993594287E+03  0.34993594287E+03  0.00000000000E+00 0. -1.
         21    1    1    2  503  502  0.70182233254E+01  0.12578063407E+03 -0.25174614989E+03  0.28150692238E+03  0.00000000000E+00 0. -1.
         21    1    1    2  504  503 -0.55391689591E+02 -0.54780033433E+02  0.15949995322E+03  0.17750866575E+03  0.00000000000E+00 0. -1.
         21    1    1    2  505  506  0.85713513612E+01  0.31448564415E+02 -0.13084310656E+02  0.35123773334E+02  0.00000000000E+00 0.  1.
         21    1    1    2  506  501  0.39802114905E+02 -0.10244916505E+03  0.99573436019E+01  0.11035936055E+03  0.00000000000E+00 0. -1.
<scales pt_clust_3="14000.00000" pt_clust_4="77.12616" pt_clust_5="32.59571" pt_clust_6="133.45432"></scales>
<clustering>
<clus scale="   32.596">  2  5  1 -1</clus>
<clus scale="   77.126">  1  4  2 -1</clus>
<clus scale="  133.454">  1  6  2 -1</clus>
<clus scale="   77.126">  1  3  2 -1</clus>
</clustering>
</event>
<event>
 6    0  0.2036847E+002  0.2127394E+03  0.7546771E-02  0.1139415E+00
         21   -1    0    0  502  501  0.00000000000E+00  0.00000000000E+00  0.82251111205E+03  0.82251111205E+03  0.00000000000E+00 0.  1.
         21   -1    0    0  503  502 -0.00000000000E+00 -0.00000000000E+00 -0.88669729095E+03  0.88669729095E+03  0.00000000000E+00 0.  1.
         21    1    1    2  503  504 -0.92841049613E+02  0.76569372878E+02 -0.49168366054E+03  0.50619675166E+03  0.00000000000E+00 0.  1.
         21    1    1    2  504  506 -0.80614051718E+02  0.26568821358E+02 -0.36897757849E+03  0.37861455470E+03  0.00000000000E+00 0.  1.
         21    1    1    2  505  501  0.86245498362E+02 -0.35328978927E+02  0.48596173060E+03  0.49481837713E+03  0.00000000000E+00 0.  1.
         21    1    1    2  506  505  0.87209602969E+02 -0.67809215310E+02  0.31051332953E+03  0.32957871950E+03  0.00000000000E+00 0.  1.
<scales pt_clust_3="205.31264" pt_clust_4="31.74872" pt_clust_5="61.84774" pt_clust_6="61.84774"></scales>
<clustering>
<clus scale="   31.749">  3  4 -1 -1</clus>
<clus scale="   61.848">  5  6 -1 -1</clus>
<clus scale="  205.313">  2  3  1 -1</clus>
<clus scale="  212.739">  1  3  2 -1</clus>
</clustering>
</event>
<event>
 6    0  0.2036847E+002  0.1769837E+03  0.7546771E-02  0.1170755E+00
         21   -1    0    0  505  501  0.00000000000E+00  0.00000000000E+00  0.14641579826E+04  0.14641579826E+04  0.00000000000E+00 0.  1.
         21   -1    0    0  501  502 -0.00000000000E+00 -0.00000000000E+00 -0.11447711644E+03  0.11447711644E+03  0.00000000000E+00 0. -1.
         21    1    1    2  503  504  0.71889775120E+02 -0.42754019698E+02 -0.22973019531E+02  0.86739873147E+02  0.00000000000E+00 0. -1.
         21    1    1    2  504  502  0.90396692996E+02  0.47807819209E+01 -0.16070594451E+02  0.91938468479E+02  0.00000000000E+00 0. -1.
         21    1    1    2  505  506 -0.10058977046E+03 -0.26679562109E+01  0.68241704662E+03  0.68979594477E+03  0.00000000000E+00 0.  1.
         21    1    1    2  506  503 -0.61696697657E+02  0.40641193988E+02  0.70630743357E+03  0.71016081268E+03  0.00000000000E+00 0.  1.
<scales pt_clust_3="49.22734" pt_clust_4="174.36039" pt_clust_5="51.01276" pt_clust_6="51.01276"></scales>
<clustering>
<clus scale="   49.227">  3  4 -1 -1</clus>
<clus scale="   51.013">  5  6 -1 -1</clus>
<clus scale="  174.360">  2  3  1 -1</clus>
<clus scale="  176.984">  1  3  2 -1</clus>
</clustering>
</event>
<event>
 6    0  0.2036847E+002  0.1314665E+03  0.7546771E-02  0.1225296E+00
         21   -1    0    0  505  501  0.00000000000E+00  0.00000000000E+00  0.22351092736E+03  0.22351092736E+03  0.00000000000E+00 0. -1.
         21   -1    0    0  503  502 -0.00000000000E+00 -0.00000000000E+00 -0.45707388919E+03  0.45707388919E+03  0.00000000000E+00 0.  1.
         21    1    1    2  503  504  0.12236696632E+02 -0.37930420588E+02 -0.44626087732E+02  0.59832610312E+02  0.00000000000E+00 0. -1.
         21    1    1    2  504  506 -0.16080803239E+02  0.78986224623E+02  0.10544336542E+03  0.13272422245E+03  0.00000000000E+00 0. -1.
         21    1    1    2  505  502  0.46564477874E+02 -0.71150528083E+02 -0.37908284949E+03  0.38850283786E+03  0.00000000000E+00 0.  1.
         21    1    1    2  506  501 -0.42720371267E+02  0.30094724048E+02  0.84702609975E+02  0.99525145934E+02  0.00000000000E+00 0. -1.
<scales pt_clust_3="39.85541" pt_clust_4="39.67461" pt_clust_5="121.88274" pt_clust_6="39.67461"></scales>
<clustering>
<clus scale="   39.675">  4  6 -1 -1</clus>
<clus scale="   39.855">  2  3  1 -1</clus>
<clus scale="  121.883">  2  5  1 -1</clus>
<clus scale="  131.467">  1  3  2 -1</clus>
</clustering>
</event>
<event>
 6    0  0.2036847E+002  0.1740100E+03  0.7546771E-02  0.1173729E+00
         21   -1    0    0  503  501  0.00000000000E+00  0.00000000000E+00  0.49574085529E+02  0.49574085529E+02  0.00000000000E+00 0.  1.
         21   -1    0    0  505  502 -0.00000000000E+00 -0.00000000000E+00 -0.31235316941E+04  0.31235316941E+04  0.00000000000E+00 0. -1.
         21    1    1    2  503  502  0.64598636867E+02 -0.67400298585E+02 -0.68076789911E+03  0.68713951756E+03  0.00000000000E+00 0.  1.
         21    1    1    2  504  506 -0.70015383792E+02  0.95187624238E+01 -0.41840605238E+02  0.82118189534E+02  0.00000000000E+00 0.  1.
         21    1    1    2  505  504  0.95194131509E+02 -0.31707304128E+01 -0.22598719841E+04  0.22618782816E+04  0.00000000000E+00 0. -1.
         21    1    1    2  506  501 -0.89777384583E+02  0.61052266574E+02 -0.91477120136E+02  0.14196979096E+03  0.00000000000E+00 0.  1.
<scales pt_clust_3="93.35836" pt_clust_4="35.42118" pt_clust_5="168.37951" pt_clust_6="35.42118"></scales>
<clustering>
<clus scale="   35.421">  4  6 -1 -1</clus>
<clus scale="   93.358">  2  3  1 -1</clus>
<clus scale="  168.380">  2  5  1 -1</clus>
<clus scale="  174.010">  1  3  2 -1</clus>
</clustering>
</event>
<event>
 6    0  0.2036847E+002  0.1446233E+03  0.7546771E-02  0.1207240E+00
         21   -1    0    0  504  501  0.00000000000E+00  0.00000000000E+00  0.56102248624E+03  0.56102248624E+03  0.00000000000E+00 0. -1.
         21   -1    0    0  506  502 -0.00000000000E+00 -0.00000000000E+00 -0.15486643457E+03  0.15486643457E+03  0.00000000000E+00 0. -1.
         21    1    1    2  503  502 -0.21038813891E+02  0.17682684079E+03  0.42249056920E+03  0.45848516266E+03  0.00000000000E+00 0. -1.
         21    1    1    2  504  503  0.35014276386E+02 -0.90619300192E+01  0.33848218889E+02  0.49536047969E+02  0.00000000000E+00 0. -1.
         21    1    1    2  505  501 -0.20979407404E+02 -0.97220357520E+02  0.27011129854E+02  0.10306082955E+03  0.00000000000E+00 0. -1.
         21    1    1    2  506  505  0.70039449097E+01 -0.70544553246E+02 -0.77193866280E+02  0.10480688063E+03  0.00000000000E+00 0. -1.
<scales pt_clust_3="144.62331" pt_clust_4="36.16792" pt_clust_5="14000.00000" pt_clust_6="71.22881"></scales>
<clustering>
<clus scale="   36.168">  1  4  2 -1</clus>
<clus scale="   71.229">  2  6  1 -1</clus>
<clus scale="  144.623">  1  3  2 -1</clus>
<clus scale="   36.168">  1  3  2 -1</clus>
</clustering>
</event>
<event>
 6    0  0.2036847E+002  0.1589277E+03  0.7546771E-02  0.1189913E+00
         21   -1    0    0  506  501  0.00000000000E+00  0.00000000000E+00  0.23002248075E+03  0.23002248075E+03  0.00000000000E+00 0.  1.
         21   -1    0    0  505  502 -0.00000000000E+00 -0.00000000000E+00 -0.55035691865E+03  0.55035691865E+03  0.00000000000E+00 0.  1.
         21    1    1    2  503  502 -0.48097356565E+02 -0.42781922945E+02 -0.21500561117E+03  0.22443498273E+03  0.00000000000E+00 0.  1.
         21    1    1    2  504  503 -0.29840718042E+02 -0.95372531166E+02 -0.27478438352E+03  0.29239159629E+03  0.00000000000E+00 0.  1.
         21    1    1    2  505  501  0.98526510916E+01  0.43556041986E+02  0.13472896181E+03  0.14193694613E+03  0.00000000000E+00 0.  1.
         21    1    1    2  506  504  0.68085423515E+02  0.94598412126E+02  0.34726594978E+02  0.12161587425E+03  0.00000000000E+00 0.  1.
<scales pt_clust_3="36.37846" pt_clust_4="36.37846" pt_clust_5="44.65651" pt_clust_6="152.32708"></scales>
<clustering>
<clus scale="   36.378">  3  4 -1 -1</clus>
<clus scale="   44.657">  1  5  2 -1</clus>
<clus scale="  152.327">  1  6  2 -1</clus>
<clus scale="   44.657">  1  3  2 -1</clus>
</clustering>
</event>
<event>
 6    0  0.2036847E+002  0.1812968E+03  0.7546771E-02  0.1166554E+00
         21   -1    0    0  506  501  0.00000000000E+00  0.00000000000E+00  0.11175192751E+03  0.11175192751E+03  0.00000000000E+00 0.  1.
         21   -1    0    0  501  502 -0.00000000000E+00 -0.00000000000E+00 -0.15482917469E+04  0.15482917469E+04  0.00000000000E+00 0. -1.
         21    1    1    2  503  505  0.54898837197E+02  0.69068003724E+02 -0.63363064359E+03  0.63974374867E+03  0.00000000000E+00 0. -1.
         21    1    1    2  504  503 -0.70492039581E+02 -0.90877567641E+02  0.28952843459E+02  0.11860070442E+03  0.00000000000E+00 0.  1.
         21    1    1    2  505  502  0.73126517157E+02  0.52047469475E+02 -0.83187541812E+03  0.83670373363E+03  0.00000000000E+00 0. -1.
         21    1    1    2  506  504 -0.57533314773E+02 -0.30237905558E+02  0.13398858888E-01  0.64995487696E+02  0.00000000000E+00 0. -1.
<scales pt_clust_3="33.32351" pt_clust_4="31.97399" pt_clust_5="179.41335" pt_clust_6="31.97399"></scales>
<clustering>
<clus scale="   31.974">  4  6 -1 -1</clus>
<clus scale="   33.324">  3  5 -1 -1</clus>
<clus scale="  179.413">  2  3  1 -1</clus>
<clus scale="  181.297">  1  3  2 -1</clus>
</clustering>
</event>
<event>
 6    0  0.2036847E+002  0.1488051E+03  0.7546771E-02  0.1201949E+00
         21   -1    0    0  505  501  0.00000000000E+00  0.00000000000E+00  0.14848816914E+03  0.14848816914E+03  0.00000000000E+00 0.  1.
         21   -1    0    0  506  502 -0.00000000000E+00 -0.00000000000E+00 -0.50102762831E+03  0.50102762831E+03  0.00000000000E+00 0. -1.
         21    1    1    2  503  502 -0.15068735537E+03 -0.26060021724E+01  0.48169486358E+02  0.15822063624E+03  0.00000000000E+00 0.  1.
         21    1    1    2  504  501  0.10152049870E+03 -0.86467124048E+02 -0.16880550566E+03  0.21512385720E+03  0.00000000000E+00 0. -1.
         21    1    1    2  505  503 -0.15456236232E+02  0.44340641089E+02 -0.21649323942E+02  0.51707648543E+02  0.00000000000E+00 0.  1.
         21    1    1    2  506  504  0.64623092897E+02  0.44732485131E+02 -0.21025411593E+03  0.22446365547E+03  0.00000000000E+00 0. -1.
<scales pt_clust_3="148.80507" pt_clust_4="14000.00000" pt_clust_5="46.95730" pt_clust_6="79.29832"></scales>
<clustering>
<clus scale="   46.957">  1  5  2 -1</clus>
<clus scale="   79.298">  2  6  1 -1</clus>
<clus scale="  148.805">  1  3  2 -1</clus>
<clus scale="   46.957">  1  3  2 -1</clus>
</clustering>
</event>
<event>
 6    0  0.2036847E+002  0.1462480E+03  0.7546771E-02  0.1205161E+00
         21   -1    0    0  506  501  0.00000000000E+00  0.00000000000E+00  0.21523755148E+04  0.21523755148E+04  0.00000000000E+00 0. -1.
         21   -1    0    0  504  502 -0.00000000000E+00 -0.00000000000E+00 -0.59501410050E+02  0.59501410050E+02  0.00000000000E+00 0. -1.
         21    1    1    2  503  501 -0.10735424066E+03  0.18808284622E+03  0.16519335063E+04  0.16660685458E+04  0.00000000000E+00 0. -1.
         21    1    1    2  504  503  0.60378179768E+02 -0.14717884569E+02  0.49892758613E+02  0.79695847322E+02  0.00000000000E+00 0. -1.
         21    1    1    2  505  502  0.22187639166E+02 -0.10841536974E+03  0.56183137111E+02  0.12410772991E+03  0.00000000000E+00 0. -1.
         21    1    1    2  506  505  0.24788421730E+02 -0.64949591909E+02  0.33486470269E+03  0.34200480179E+03  0.00000000000E+00 0. -1.
<scales pt_clust_3="146.24802" pt_clust_4="62.14612" pt_clust_5="14000.00000" pt_clust_6="72.45898"></scales>
<clustering>
<clus scale="   62.146">  2  4  1 -1</clus>
<clus scale="   72.459">  1  6  2 -1</clus>
<clus scale="  146.248">  1  3  2 -1</clus>
<clus scale="   72.459">  1  3  2 -1</clus>
</clustering>
</event>
<event>
 6    0  0.2036847E+002  0.9695797E+02  0.7546771E-02  0.1286826E+00
         21   -1    0    0  503  501  0.00000000000E+00  0.00000000000E+00  0.33375747063E+03  0.33375747063E+03  0.00000000000E+00 0.  1.
         21   -1    0    0  501  502 -0.00000000000E+00 -0.00000000000E+00 -0.81427088671E+02  0.81427088671E+02  0.00000000000E+00 0.  1.
         21    1    1    2  503  506  0.25478889412E+02  0.31783713024E+02  0.94974815494E+02  0.10334212015E+03  0.00000000000E+00 0.  1.
         21    1    1    2  504  505  0.37633800217E+02 -0.56562442682E+01 -0.10797778628E+02  0.39558665818E+02  0.00000000000E+00 0.  1.
         21    1    1    2  505  502  0.35977629252E+02  0.40141219368E+02 -0.12978230718E+02  0.55444943606E+02  0.00000000000E+00 0.  1.
         21    1    1    2  506  504 -0.99090318881E+02 -0.66268688123E+02  0.18113157581E+03  0.21683882973E+03  0.00000000000E+00 0.  1.
<scales pt_clust_3="40.73547" pt_clust_4="36.16464" pt_clust_5="36.16464" pt_clust_6="86.88105"></scales>
<clustering>
<clus scale="   36.165">  4  5 -1 -1</clus>
<clus scale="   40.735">  1  3  2 -1</clus>
<clus scale="   86.881">  1  6  2 -1</clus>
<clus scale="   40.735">  1  3  2 -1</clus>
</clustering>
</event>
<event>
 6    0  0.2036847E+002  0.1807579E+03  0.7546771E-02  0.1167072E+00
         21   -1    0    0  504  501  0.00000000000E+00  0.00000000000E+00  0.13109014475E+04  0.13109014475E+04  0.00000000000E+00 0.  1.
         21   -1    0    0  506  502 -0.00000000000E+00 -0.00000000000E+00 -0.63373927752E+02  0.63373927752E+02  0.00000000000E+00 0.  1.
         21    1    1    2  503  505 -0.87702492438E+02 -0.96401391431E+02  0.11267299587E+03  0.17227930650E+03  0.00000000000E+00 0.  1.
         21    1    1    2  504  503  0.22213571027E+02  0.91327305677E+02  0.83938395002E+03  0.84462982131E+03  0.00000000000E+00 0.  1.
         21    1    1    2  505  502 -0.28860685293E+01 -0.57510665967E+02  0.11592770927E+02  0.58738389740E+02  0.00000000000E+00 0.  1.
         21    1    1    2  506  501  0.68374989941E+02  0.62584751721E+02  0.28387780295E+03  0.29862785771E+03  0.00000000000E+00 0. -1.
<scales pt_clust_3="51.62515" pt_clust_4="163.22206" pt_clust_5="51.62515" pt_clust_6="92.69299"></scales>
<clustering>
<clus scale="   51.625">  3  5 -1 -1</clus>
<clus scale="   92.693">  1  6  2 -1</clus>
<clus scale="  163.222">  1  4  2 -1</clus>
<clus scale="   92.693">  1  3  2 -1</clus>
</clustering>
</event>
<event>
 6    0  0.2036847E+002  0.2556028E+03  0.7546771E-02  0.1109814E+00
         21   -1    0    0  504  501  0.00000000000E+00  0.00000000000E+00  0.19776027944E+03  0.19776027944E+03  0.00000000000E+00 0.  1.
         21   -1    0    0  505  502 -0.00000000000E+00 -0.00000000000E+00 -0.16488862355E+04  0.16488862355E+04  0.00000000000E+00 0. -1.
         21    1    1    2  503  501 -0.21283346719E+03 -0.32698130310E+02 -0.11377968397E+04  0.11579934805E+04  0.00000000000E+00 0. -1.
         21    1    1    2  504  506  0.11661150819E+03 -0.71654387287E+01  0.80541745816E+02  0.14190334800E+03  0.00000000000E+00 0.  1.
         21    1    1    2  505  503 -0.86108659695E+02  0.74308825606E+02 -0.33233063026E+03  0.35125510764E+03  0.00000000000E+00 0.  1.
         21    1    1    2  506  502  0.18233061870E+03 -0.34445256568E+02 -0.61540232000E+02  0.19549457888E+03  0.00000000000E+00 0.  1.
<scales pt_clust_3="255.60275" pt_clust_4="114.71849" pt_clust_5="113.73875" pt_clust_6="14000.00000"></scales>
<clustering>
<clus scale="  113.739">  2  5  1 -1</clus>
<clus scale="  114.718">  1  4  2 -1</clus>
<clus scale="  255.603">  2  3  1 -1</clus>
<clus scale="  114.718">  1  3  2 -1</clus>
</clustering>
</event>
<event>
 6    0  0.2036847E+002  0.7967007E+02  0.7546771E-02  0.1329990E+00
         21   -1    0    0  503  501  0.00000000000E+00  0.00000000000E+00  0.33559633669E+03  0.33559633669E+03  0.00000000000E+00 0. -1.
         21   -1    0    0  504  502 -0.00000000000E+00 -0.00000000000E+00 -0.10562622476E+03  0.10562622476E+03  0.00000000000E+00 0. -1.
         21    1    1    2  503  505  0.48076802042E+02 -0.51097596765E+02  0.21582981568E+03  0.22694680571E+03  0.00000000000E+00 0. -1.
         21    1    1    2  504  501  0.64980598443E+01 -0.42044299235E+02  0.28064985351E+02  0.50966570246E+02  0.00000000000E+00 0. -1.
         21    1    1    2  505  506  0.75231648238E+01  0.75270089858E+02  0.33923875512E+02  0.82903641452E+02  0.00000000000E+00 0. -1.
         21    1    1    2  506  502 -0.62098026710E+02  0.17871806141E+02 -0.47848564605E+02  0.80405544030E+02  0.00000000000E+00 0. -1.
<scales pt_clust_3="79.67007" pt_clust_4="42.54348" pt_clust_5="14000.00000" pt_clust_6="63.67136"></scales>
<clustering>
<clus scale="   42.543">  1  4  2 -1</clus>
<clus scale="   63.671">  2  6  1 -1</clus>
<clus scale="   79.670">  1  3  2 -1</clus>
<clus scale="   42.543">  1  3  2 -1</clus>
</clustering>
</event>
<event>
 6    0  0.2036847E+002  0.4984452E+02  0.7546771E-02  0.1446182E+00
         21   -1    0    0  506  501  0.00000000000E+00  0.00000000000E+00  0.17701436082E+03  0.17701436082E+03  0.00000000000E+00 0.  1.
         21   -1    0    0  505  502 -0.00000000000E+00 -0.00000000000E+00 -0.20152489746E+04  0.20152489746E+04  0.00000000000E+00 0. -1.
         21    1    1    2  503  504 -0.28501820266E+02  0.53858420444E+02  0.42680417375E+02  0.74395572708E+02  0.00000000000E+00 0. -1.
         21    1    1    2  504  502 -0.65163789587E+02 -0.65300341943E+02 -0.17534609526E+04  0.17558860346E+04  0.00000000000E+00 0. -1.
         21    1    1    2  505  501  0.44832935921E+02  0.21782648292E+02 -0.23669006948E+03  0.24188151005E+03  0.00000000000E+00 0. -1.
         21    1    1    2  506  503  0.48832673932E+02 -0.10340726792E+02  0.10923599092E+03  0.12010021809E+03  0.00000000000E+00 0.  1.
<scales pt_clust_3="14000.00000" pt_clust_4="48.49815" pt_clust_5="49.84452" pt_clust_6="48.62885"></scales>
<clustering>
<clus scale="   49.845">  2  5  1 -1</clus>
<clus scale="   48.498">  2  4  1 -1</clus>
<clus scale="   48.629">  1  6  2 -1</clus>
<clus scale="   48.629">  1  3  2 -1</clus>
</clustering>
</event>
<event>
 6    0  0.2036847E+002  0.1205129E+03  0.7546771E-02  0.1242253E+00
         21   -1    0    0  504  501  0.00000000000E+00  0.00000000000E+00  0.40311971906E+03  0.40311971906E+03  0.00000000000E+00 0. -1.
         21   -1    0    0  505  502 -0.00000000000E+00 -0.00000000000E+00 -0.17065770890E+04  0.17065770890E+04  0.00000000000E+00 0.  1.
         21    1    1    2  503  501 -0.73733581634E+02 -0.71033691504E+02  0.37776035790E+03  0.39138895537E+03  0.00000000000E+00 0. -1.
         21    1    1    2  504  506 -0.67452156087E+02  0.10834188863E+03 -0.42038270147E+03  0.43932832129E+03  0.00000000000E+00 0.  1.
         21    1    1    2  505  503  0.24523108217E+02 -0.18347067390E+02 -0.31352530036E+02  0.43828972816E+02  0.00000000000E+00 0. -1.
         21    1    1    2  506  502  0.11666262950E+03 -0.18961129738E+02 -0.12294824963E+04  0.12351505586E+04  0.00000000000E+00 0.  1.
<scales pt_clust_3="102.36366" pt_clust_4="120.51289" pt_clust_5="30.62675" pt_clust_6="14000.00000"></scales>
<clustering>
<clus scale="   30.627">  2  5  1 -1</clus>
<clus scale="  102.364">  1  3  2 -1</clus>
<clus scale="  120.513">  1  4  2 -1</clus>
<clus scale="  102.364">  1  3  2 -1</clus>
</clustering>
</event>
<event>
 6    0  0.2036847E+002  0.7316726E+02  0.7546771E-02  0.1349642E+00
         21   -1    0    0  505  501  0.00000000000E+00  0.00000000000E+00  0.13439030316E+04  0.13439030316E+04  0.00000000000E+00 0. -1.
         21   -1    0    0  504  502 -0.00000000000E+00 -0.00000000000E+00 -0.11859784451E+03  0.11859784451E+03  0.00000000000E+00 0. -1.
         21    1    1    2  503  501  0.64832293429E+02  0.34485820543E+02  0.71192303458E+02  0.10227825850E+03  0.00000000000E+00 0. -1.
         21    1    1    2  504  503  0.76483966425E+01 -0.61246445942E+02 -0.38430467986E+02  0.72708500062E+02  0.00000000000E+00 0. -1.
         21    1    1    2  505  506  0.17716388471E+02  0.71174593337E+02  0.11843747718E+04  0.11866437095E+04  0.00000000000E+00 0. -1.
         21    1    1    2  506  502 -0.90197078543E+02 -0.44413967938E+02  0.81685798005E+01  0.10087040806E+03  0.00000000000E+00 0. -1.
<scales pt_clust_3="69.47675" pt_clust_4="61.72216" pt_clust_5="14000.00000" pt_clust_6="73.16726"></scales>
<clustering>
<clus scale="   61.722">  2  4  1 -1</clus>
<clus scale="   69.477">  2  3  1 -1</clus>
<clus scale="   73.167">  2  6  1 -1</clus>
<clus scale="   73.167">  1  3  2 -1</clus>
</clustering>
</event>
<event>
 6    0  0.2036847E+002  0.7854915E+02  0.7546771E-02  0.1333220E+00
         21   -1    0    0  503  501  0.00000000000E+00  0.00000000000E+00  0.81732043848E+03  0.81732043848E+03  0.00000000000E+00 0.  1.
         21   -1    0    0  505  502 -0.00000000000E+00 -0.00000000000E+00 -0.17379755005E+03  0.17379755005E+03  0.00000000000E+00 0.  1.
         21    1    1    2  503  502 -0.45633654627E+02  0.82792704459E+02  0.12499560980E+03  0.15671938239E+03  0.00000000000E+00 0.  1.
         21    1    1    2  504  506  0.61220958863E+02  0.24635266440E+02 -0.11916824484E+03  0.13622030956E+03  0.00000000000E+00 0.  1.
         21    1    1    2  505  504  0.96613509534E+00 -0.30039028287E+02 -0.19765366567E+02  0.35971465816E+02  0.00000000000E+00 0. -1.
         21    1    1    2  506  501 -0.16553439332E+02 -0.77388942613E+02  0.65746089004E+03  0.66220683077E+03  0.00000000000E+00 0.  1.
<scales pt_clust_3="78.54915" pt_clust_4="62.08830" pt_clust_5="30.05456" pt_clust_6="14000.00000"></scales>
<clustering>
<clus scale="   30.055">  2  5  1 -1</clus>
<clus scale="   62.088">  2  4  1 -1</clus>
<clus scale="   78.549">  2  3  1 -1</clus>
<clus scale="   78.549">  1  3  2 -1</clus>
</clustering>
</event>
<event>
 6    0  0.2036847E+002  0.1181355E+03  0.7546771E-02  0.1246205E+00
         21   -1    0    0  505  501  0.00000000000E+00  0.00000000000E+00  0.82368515959E+03  0.82368515959E+03  0.00000000000E+00 0.  1.
         21   -1    0    0  504  502 -0.00000000000E+00 -0.00000000000E+00 -0.53452013935E+02  0.53452013935E+02  0.00000000000E+00 0.  1.
         21    1    1    2  503  501  0.60387996179E+02 -0.11131785339E+02  0.17920959115E+02  0.63967081401E+02  0.00000000000E+00 0.  1.
         21    1    1    2  504  503  0.42706686563E+02 -0.46367765342E+02  0.24377919082E+02  0.67587821971E+02  0.00000000000E+00 0.  1.
         21    1    1    2  505  506 -0.58626527747E+02  0.78396453286E+01  0.11778298870E+03  0.13180046366E+03  0.00000000000E+00 0.  1.
         21    1    1    2  506  502 -0.44468154995E+02  0.49659905352E+02  0.61015127876E+03  0.61378180650E+03  0.00000000000E+00 0.  1.
<scales pt_clust_3="39.26559" pt_clust_4="39.26559" pt_clust_5="59.14837" pt_clust_6="111.23489"></scales>
<clustering>
<clus scale="   39.266">  3  4 -1 -1</clus>
<clus scale="   59.148">  1  5  2 -1</clus>
<clus scale="  111.235">  1  6  2 -1</clus>
<clus scale="   59.148">  1  3  2 -1</clus>
</clustering>
</event>
<event>
 6    0  0.2036847E+002  0.1517361E+03  0.7546771E-02  0.1198356E+00
         21   -1    0    0  505  501  0.00000000000E+00  0.00000000000E+00  0.53025577776E+03  0.53025577776E+03  0.00000000000E+00 0.  1.
         21   -1    0    0  506  502 -0.00000000000E+00 -0.00000000000E+00 -0.13425379461E+04  0.13425379461E+04  0.00000000000E+00 0.  1.
         21    1    1    2  503  504  0.14124118129E+03 -0.11570796820E+02 -0.15094163015E+02  0.14251592328E+03  0.00000000000E+00 0. -1.
         21    1    1    2  504  501 -0.43563176822E+02 -0.15036491654E+02  0.86823531313E+02  0.98296348079E+02  0.00000000000E+00 0. -1.
         21    1    1    2  505  502  0.40367240670E+02 -0.39630673668E+02  0.36715170849E+03  0.37148416044E+03  0.00000000000E+00 0.  1.
         21    1    1    2  506  503 -0.13804524514E+03  0.66237962142E+02 -0.12511632451E+04  0.12604972921E+04  0.00000000000E+00 0.  1.
<scales pt_clust_3="151.73614" pt_clust_4="46.08521" pt_clust_5="52.44250" pt_clust_6="14000.00000"></scales>
<clustering>
<clus scale="   46.085">  1  4  2 -1</clus>
<clus scale="   52.443">  1  5  2 -1</clus>
<clus scale="  151.736">  1  3  2 -1</clus>
<clus scale="   46.085">  1  3  2 -1</clus>
</clustering>
</event>
<event>
 6    0  0.2036847E+002  0.9183084E+02  0.7546771E-02  0.1298478E+00
         21   -1    0    0  504  501  0.00000000000E+00  0.00000000000E+00  0.50597063374E+02  0.50597063374E+02  0.00000000000E+00 0. -1.
         21   -1    0    0  506  502 -0.00000000000E+00 -0.00000000000E+00 -0.24422212889E+04  0.24422212889E+04  0.00000000000E+00 0.  1.
         21    1    1    2  503  502  0.48430024376E+02  0.19611457574E+02 -0.20468266050E+04  0.20474934011E+04  0.00000000000E+00 0.  1.
         21    1    1    2  504  505  0.21886041152E+02  0.45119057187E+02 -0.60323770191E+02  0.78445429241E+02  0.00000000000E+00 0. -1.
         21    1    1    2  505  503 -0.11148713434E+03 -0.68406349186E+02 -0.69794062970E+02  0.14825660511E+03  0.00000000000E+00 0. -1.
         21    1    1    2  506  501  0.41171068815E+02  0.36758344242E+01 -0.21467978739E+03  0.21862291687E+03  0.00000000000E+00 0.  1.
<scales pt_clust_3="14000.00000" pt_clust_4="50.82237" pt_clust_5="91.83084" pt_clust_6="41.33484"></scales>
<clustering>
<clus scale="   41.335">  2  6  1 -1</clus>
<clus scale="   50.822">  1  4  2 -1</clus>
<clus scale="   91.831">  1  5  2 -1</clus>
<clus scale="   50.822">  1  3  2 -1</clus>
</clustering>
</event>
<event>
 6    0  0.2036847E+002  0.1310455E+03  0.7546771E-02  0.1225913E+00
         21   -1    0    0  504  501  0.00000000000E+00  0.00000000000E+00  0.20393195281E+03  0.20393195281E+03  0.00000000000E+00 0.  1.
         21   -1    0    0  505  502 -0.00000000000E+00 -0.00000000000E+00 -0.26892372720E+03  0.26892372720E+03  0.00000000000E+00 0.  1.
         21    1    1    2  503  502 -0.14526295424E+03 -0.21340094969E+02 -0.16037789322E+03  0.21743457444E+03  0.00000000000E+00 0.  1.
         21    1    1    2  504  503 -0.25972275396E+02 -0.22002339950E+02  0.50241697985E+01  0.34407910932E+02  0.00000000000E+00 0.  1.
         21    1    1    2  505  506  0.78711921653E+02  0.68550601417E+02  0.33976087498E+02  0.10976851136E+03  0.00000000000E+00 0.  1.
         21    1    1    2  506  501  0.92523307985E+02 -0.25208166497E+02  0.56385861527E+02  0.11124468328E+03  0.00000000000E+00 0.  1.
<scales pt_clust_3="131.04550" pt_clust_4="34.03913" pt_clust_5="14000.00000" pt_clust_6="88.05613"></scales>
<clustering>
<clus scale="   34.039">  1  4  2 -1</clus>
<clus scale="   88.056">  1  6  2 -1</clus>
<clus scale="  131.046">  2  3  1 -1</clus>
<clus scale="   34.039">  1  3  2 -1</clus>
</clustering>
</event>
<event>
 6    0  0.2036847E+002  0.1013434E+03  0.7546771E-02  0.1277496E+00
         21   -1    0    0  505  501  0.00000000000E+00  0.00000000000E+00  0.10768520544E+03  0.10768520544E+03  0.00000000000E+00 0. -1.
         21   -1    0    0  504  502 -0.00000000000E+00 -0.00000000000E+00 -0.74529140406E+03  0.74529140406E+03  0.00000000000E+00 0. -1.
         21    1    1    2  503  506  0.46742191123E+02 -0.23571874340E+02 -0.31313330914E+03  0.31747903078E+03  0.00000000000E+00 0. -1.
         21    1    1    2  504  501 -0.37090021743E+02  0.60426641382E+02  0.19893270357E+02  0.73639601486E+02  0.00000000000E+00 0. -1.
         21    1    1    2  505  503 -0.58662856358E+02 -0.50693856027E+02  0.30671560422E+02  0.83378308773E+02  0.00000000000E+00 0. -1.
         21    1    1    2  506  502  0.49010686978E+02  0.13839088985E+02 -0.37503772025E+03  0.37847966846E+03  0.00000000000E+00 0. -1.
<scales pt_clust_3="38.40077" pt_clust_4="70.90168" pt_clust_5="93.56648" pt_clust_6="38.40077"></scales>
<clustering>
<clus scale="   38.401">  3  6 -1 -1</clus>
<clus scale="   70.902">  1  4  2 -1</clus>
<clus scale="   93.566">  1  5  2 -1</clus>
<clus scale="   70.902">  1  3  2 -1</clus>
</clustering>
</event>
<event>
 6    0  0.2036847E+002  0.1726296E+03  0.7546771E-02  0.1175133E+00
         21   -1    0    0  503  501  0.00000000000E+00  0.00000000000E+00  0.13147180005E+04  0.13147180005E+04  0.00000000000E+00 0.  1.
         21   -1    0    0  504  502 -0.00000000000E+00 -0.00000000000E+00 -0.25262964726E+03  0.25262964726E+03  0.00000000000E+00 0. -1.
         21    1    1    2  503  502  0.68764151714E+02  0.38866546832E+02 -0.35619313124E+02  0.86647864895E+02  0.00000000000E+00 0. -1.
         21    1    1    2  504  505 -0.18503723166E+02  0.11895744596E+03 -0.16597987895E+03  0.20504287828E+03  0.00000000000E+00 0. -1.
         21    1    1    2  505  506 -0.61466809719E+01 -0.60158955003E+02  0.63787056024E+03  0.64073062450E+03  0.00000000000E+00 0.  1.
         21    1    1    2  506  501 -0.44113747576E+02 -0.97665037785E+02  0.62581698509E+03  0.63492628010E+03  0.00000000000E+00 0.  1.
<scales pt_clust_3="78.98808" pt_clust_4="163.83280" pt_clust_5="40.86780" pt_clust_6="40.86780"></scales>
<clustering>
<clus scale="   40.868">  5  6 -1 -1</clus>
<clus scale="   78.988">  2  3  1 -1</clus>
<clus scale="  163.833">  2  4  1 -1</clus>
<clus scale="  172.630">  1  3  2 -1</clus>
</clustering>
</event>
<event>
 6    0  0.2036847E+002  0.7083042E+02  0.7546771E-02  0.1357292E+00
         21   -1    0    0  505  501  0.00000000000E+00  0.00000000000E+00  0.56941603391E+03  0.56941603391E+03  0.00000000000E+00 0.  1.
         21   -1    0    0  504  502 -0.00000000000E+00 -0.00000000000E+00 -0.62452388932E+03  0.62452388932E+03  0.00000000000E+00 0. -1.
         21    1    1    2  503  502  0.38918922560E+02  0.25579552975E+02 -0.36922087850E+03  0.37214654800E+03  0.00000000000E+00 0. -1.
         21    1    1    2  504  501  0.36184286756E+02  0.58107682646E+02 -0.21591839113E+03  0.22650950757E+03  0.00000000000E+00 0. -1.
         21    1    1    2  505  506 -0.10911581979E+02 -0.70069942884E+02  0.52467484728E+03  0.52944551645E+03  0.00000000000E+00 0.  1.
         21    1    1    2  506  503 -0.64191627337E+02 -0.13617292737E+02  0.53565669401E+01  0.65838351218E+02  0.00000000000E+00 0. -1.
<scales pt_clust_3="46.57248" pt_clust_4="14000.00000" pt_clust_5="70.83042" pt_clust_6="60.48578"></scales>
<clustering>
<clus scale="   46.572">  2  3  1 -1</clus>
<clus scale="   60.486">  2  6  1 -1</clus>
<clus scale="   70.830">  1  5  2 -1</clus>
<clus scale="   70.830">  1  3  2 -1</clus>
</clustering>
</event>
<event>
 6    0  0.2036847E+002  0.1124017E+03  0.7546771E-02  0.1256186E+00
         21   -1    0    0  504  501  0.00000000000E+00  0.00000000000E+00  0.92036573435E+03  0.92036573435E+03  0.00000000000E+00 0. -1.
         21   -1    0    0  503  502 -0.00000000000E+00 -0.00000000000E+00 -0.39365087487E+02  0.39365087487E+02  0.00000000000E+00 0. -1.
         21    1    1    2  503  506 -0.42181935420E+02  0.35051880211E+01  0.14797813838E+02  0.44839461563E+02  0.00000000000E+00 0. -1.
         21    1    1    2  504  505  0.31628941935E+02  0.24107450972E+02  0.32421091895E+03  0.32664090241E+03  0.00000000000E+00 0. -1.
         21    1    1    2  505  502  0.56767498820E+02  0.87368575909E+02  0.26785299479E+03  0.28740397317E+03  0.00000000000E+00 0. -1.
         21    1    1    2  506  501 -0.46214505335E+02 -0.11498121490E+03  0.27413891929E+03  0.30084648469E+03  0.00000000000E+00 0. -1.
<scales pt_clust_3="40.86939" pt_clust_4="39.76882" pt_clust_5="14000.00000" pt_clust_6="112.40167"></scales>
<clustering>
<clus scale="   39.769">  1  4  2 -1</clus>
<clus scale="   40.869">  2  3  1 -1</clus>
<clus scale="  112.402">  1  6  2 -1</clus>
<clus scale="   39.769">  1  3  2 -1</clus>
</clustering>
</event>
<event>
 6    0  0.2036847E+002  0.1698658E+03  0.7546771E-02  0.1177988E+00
         21   -1    0    0  505  501  0.00000000000E+00  0.00000000000E+00  0.19140981391E+03  0.19140981391E+03  0.00000000000E+00 0. -1.
         21   -1    0    0  506  502 -0.00000000000E+00 -0.00000000000E+00 -0.74569635014E+03  0.74569635014E+03  0.00000000000E+00 0. -1.
         21    1    1    2  503  501 -0.97494152807E+02  0.18727770749E+02 -0.22147929680E+02  0.10171710779E+03  0.00000000000E+00 0. -1.
         21    1    1    2  504  503  0.99434225701E+01  0.18884646189E+03  0.51433195360E+02  0.19597762986E+03  0.00000000000E+00 0. -1.
         21    1    1    2  505  502  0.29605988537E+02 -0.11589010939E+03 -0.14672630130E+03  0.18930303618E+03  0.00000000000E+00 0. -1.
         21    1    1    2  506  504  0.57944741700E+02 -0.91684123251E+02 -0.43684550060E+03  0.45010839021E+03  0.00000000000E+00 0. -1.
<scales pt_clust_3="99.27658" pt_clust_4="169.86580" pt_clust_5="14000.00000" pt_clust_6="105.53711"></scales>
<clustering>
<clus scale="   99.277">  1  3  2 -1</clus>
<clus scale="  105.537">  2  6  1 -1</clus>
<clus scale="  169.866">  1  4  2 -1</clus>
<clus scale="   99.277">  1  3  2 -1</clus>
</clustering>
</event>
<event>
 6    0  0.2036847E+002  0.1193254E+03  0.7546771E-02  0.1244214E+00
         21   -1    0    0  506  501  0.00000000000E+00  0.00000000000E+00  0.76529531872E+03  0.76529531872E+03  0.00000000000E+00 0. -1.
         21   -1    0    0  504  502 -0.00000000000E+00 -0.00000000000E+00 -0.61447736358E+02  0.61447736358E+02  0.00000000000E+00 0.  1.
         21    1    1    2  503  501 -0.41863431334E+02  0.81261906503E+02  0.53301454586E+03  0.54079621895E+03  0.00000000000E+00 0. -1.
         21    1    1    2  504  503  0.37520665239E+02  0.18381778756E+02  0.47992585558E+02  0.63631583186E+02  0.00000000000E+00 0.  1.
         21    1    1    2  505  502  0.40622476480E+02 -0.11969229339E+03  0.45078914811E+02  0.13419589880E+03  0.00000000000E+00 0.  1.
         21    1    1    2  506  505 -0.36279710385E+02  0.20048608134E+02  0.77761536136E+02  0.88119354151E+02  0.00000000000E+00 0. -1.
<scales pt_clust_3="119.32535" pt_clust_4="39.93483" pt_clust_5="14000.00000" pt_clust_6="41.45074"></scales>
<clustering>
<clus scale="   41.451">  1  6  2 -1</clus>
<clus scale="   39.935">  2  4  1 -1</clus>
<clus scale="  119.325">  1  3  2 -1</clus>
<clus scale="   41.451">  1  3  2 -1</clus>
</clustering>
</event>
<event>
 6    0  0.2036847E+002  0.2446473E+03  0.7546771E-02  0.1116735E+00
         21   -1    0    0  502  501  0.00000000000E+00  0.00000000000E+00  0.14848390693E+03  0.14848390693E+03  0.00000000000E+00 0. -1.
         21   -1    0    0  503  502 -0.00000000000E+00 -0.00000000000E+00 -0.50663401830E+03  0.50663401830E+03  0.00000000000E+00 0. -1.
         21    1    1    2  503  504  0.14084388824E+02  0.33462542364E+02 -0.15540751187E+02  0.39492109307E+02  0.00000000000E+00 0.  1.
         21    1    1    2  504  505 -0.81201016974E+02  0.19604840748E+03 -0.21586522140E+03  0.30269849197E+03  0.00000000000E+00 0. -1.
         21    1    1    2  505  506  0.11550813737E+03 -0.19349649896E+03 -0.10693621745E+03  0.24943612310E+03  0.00000000000E+00 0. -1.
         21    1    1    2  506  501 -0.48391509217E+02 -0.36014450890E+02 -0.19807921339E+02  0.63491200847E+02  0.00000000000E+00 0. -1.
<scales pt_clust_3="33.00208" pt_clust_4="33.00208" pt_clust_5="231.27156" pt_clust_6="60.32229"></scales>
<clustering>
<clus scale="   33.002">  3  4 -1 -1</clus>
<clus scale="   60.322">  1  6  2 -1</clus>
<clus scale="  231.272">  1  5  2 -1</clus>
<clus scale="   60.322">  1  3  2 -1</clus>
</clustering>
</event>
<event>
 6    0  0.2036847E+002  0.1000921E+03  0.7546771E-02  0.1280102E+00
         21   -1    0    0  504  501  0.00000000000E+00  0.00000000000E+00  0.85194005872E+02  0.85194005872E+02  0.00000000000E+00 0.  1.
         21   -1    0    0  505  502 -0.00000000000E+00 -0.00000000000E+00 -0.25171265438E+03  0.25171265438E+03  0.00000000000E+00 0.  1.
         21    1    1    2  503  502  0.90920633346E+00  0.41450428852E+02 -0.28341818108E+02  0.50221741923E+02  0.00000000000E+00 0.  1.
         21    1    1    2  504  503 -0.68320517073E+02  0.54166814333E+02  0.16365973716E+02  0.88710664092E+02  0.00000000000E+00 0.  1.
         21    1    1    2  505  506  0.42015327796E+02 -0.30079820352E+02 -0.82336158810E+02  0.97207645840E+02  0.00000000000E+00 0.  1.
         21    1    1    2  506  501  0.25395982943E+02 -0.65537422832E+02 -0.72206645303E+02  0.10076660839E+03  0.00000000000E+00 0.  1.
<scales pt_clust_3="41.46040" pt_clust_4="91.62452" pt_clust_5="34.54680" pt_clust_6="34.54680"></scales>
<clustering>
<clus scale="   34.547">  5  6 -1 -1</clus>
<clus scale="   41.460">  2  3  1 -1</clus>
<clus scale="   91.625">  1  4  2 -1</clus>
<clus scale="   91.625">  1  3  2 -1</clus>
</clustering>
</event>
<event>
 6    0  0.2036847E+002  0.2175905E+03  0.7546771E-02  0.1135692E+00
         21   -1    0    0  506  501  0.00000000000E+00  0.00000000000E+00  0.68440164357E+03  0.68440164357E+03  0.00000000000E+00 0.  1.
         21   -1    0    0  503  502 -0.00000000000E+00 -0.00000000000E+00 -0.73938488308E+02  0.73938488308E+02  0.00000000000E+00 0.  1.
         21    1    1    2  503  505 -0.12678634933E+03 -0.54335582144E+01  0.29986891509E+03  0.32561582911E+03  0.00000000000E+00 0.  1.
         21    1    1    2  504  502  0.14768454121E+03  0.42065512475E+02  0.11621896456E+03  0.19258005809E+03  0.00000000000E+00 0.  1.
         21    1    1    2  505  501 -0.77438961977E+02 -0.11299454805E+02  0.12110496186E+03  0.14419043761E+03  0.00000000000E+00 0. -1.
         21    1    1    2  506  504  0.56540770099E+02 -0.25332499456E+02  0.73270313762E+02  0.95953807068E+02  0.00000000000E+00 0.  1.
<scales pt_clust_3="208.56395" pt_clust_4="46.49353" pt_clust_5="30.52509" pt_clust_6="46.49353"></scales>
<clustering>
<clus scale="   30.525">  3  5 -1 -1</clus>
<clus scale="   46.494">  4  6 -1 -1</clus>
<clus scale="  208.564">  1  3  2 -1</clus>
<clus scale="  208.564">  1  3  2 -1</clus>
</clustering>
</event>
<event>
 6    0  0.2036847E+002  0.9837459E+02  0.7546771E-02  0.1283752E+00
         21   -1    0    0  504  501  0.00000000000E+00  0.00000000000E+00  0.19668116096E+04  0.19668116096E+04  0.00000000000E+00 0.  1.
         21   -1    0    0  506  502 -0.00000000000E+00 -0.00000000000E+00 -0.30143553433E+02  0.30143553433E+02  0.00000000000E+00 0. -1.
         21    1    1    2  503  501 -0.36770167836E+02  0.29029438119E+02  0.22142736520E+03  0.22632903388E+03  0.00000000000E+00 0.  1.
         21    1    1    2  504  505  0.14746395569E+02 -0.49354422660E+02  0.72796370845E+03  0.72978385570E+03  0.00000000000E+00 0. -1.
         21    1    1    2  505  502  0.96134440140E+02  0.31241393570E+02  0.75937585963E+02  0.12642931707E+03  0.00000000000E+00 0. -1.
         21    1    1    2  506  503 -0.74110667872E+02 -0.10916409029E+02  0.91133939660E+03  0.91441295642E+03  0.00000000000E+00 0.  1.
<scales pt_clust_3="46.84820" pt_clust_4="37.22000" pt_clust_5="14000.00000" pt_clust_6="98.37459"></scales>
<clustering>
<clus scale="   46.848">  1  3  2 -1</clus>
<clus scale="   37.220">  1  4  2 -1</clus>
<clus scale="   98.375">  1  6  2 -1</clus>
<clus scale="   46.848">  1  3  2 -1</clus>
</clustering>
</event>
<event>
 6    0  0.2036847E+002  0.1988530E+03  0.7546771E-02  0.1150710E+00
         21   -1    0    0  506  501  0.00000000000E+00  0.00000000000E+00  0.49831685857E+03  0.49831685857E+03  0.00000000000E+00 0. -1.
         21   -1    0    0  505  502 -0.00000000000E+00 -0.00000000000E+00 -0.51440858943E+03  0.51440858943E+03  0.00000000000E+00 0. -1.
         21    1    1    2  503  502  0.68758144505E+02 -0.15019811011E+03  0.35580080053E+03  0.39227715250E+03  0.00000000000E+00 0. -1.
         21    1    1    2  504  501  0.20652187446E+02  0.92885650907E+02 -0.18171422295E+03  0.20512024720E+03  0.00000000000E+00 0. -1.
         21    1    1    2  505  504 -0.57727819838E+02  0.83012408635E+02 -0.29019810167E+03  0.30730847594E+03  0.00000000000E+00 0. -1.
         21    1    1    2  506  503 -0.31682512113E+02 -0.25699949432E+02  0.10001979323E+03  0.10801957236E+03  0.00000000000E+00 0.  1.
<scales pt_clust_3="178.81641" pt_clust_4="83.99319" pt_clust_5="83.99319" pt_clust_6="40.79545"></scales>
<clustering>
<clus scale="   40.795">  1  6  2 -1</clus>
<clus scale="   83.993">  4  5 -1 -1</clus>
<clus scale="  178.816">  1  3  2 -1</clus>
<clus scale="   40.795">  1  3  2 -1</clus>
</clustering>
</event>
<event>
 6    0  0.2036847E+002  0.6557494E+02  0.7546771E-02  0.1375822E+00
         21   -1    0    0  504  501  0.00000000000E+00  0.00000000000E+00  0.30593834885E+03  0.30593834885E+03  0.00000000000E+00 0.  1.
         21   -1    0    0  505  502 -0.00000000000E+00 -0.00000000000E+00 -0.48258577635E+03  0.48258577635E+03  0.00000000000E+00 0. -1.
         21    1    1    2  503  501  0.16190640155E+02  0.71555519462E+02  0.24575361759E+03  0.25647060212E+03  0.00000000000E+00 0.  1.
         21    1    1    2  504  506  0.36289842703E+02 -0.38607976407E+02  0.11633611091E+01  0.52998886164E+02  0.00000000000E+00 0.  1.
         21    1    1    2  505  503 -0.22158731937E+02  0.59990953076E+02 -0.35234922989E+03  0.35810599501E+03  0.00000000000E+00 0. -1.
         21    1    1    2  506  502 -0.30321750920E+02 -0.92938496132E+02 -0.71215176311E+02  0.12094864191E+03  0.00000000000E+00 0.  1.
<scales pt_clust_3="61.16926" pt_clust_4="52.98612" pt_clust_5="65.57494" pt_clust_6="14000.00000"></scales>
<clustering>
<clus scale="   52.986">  1  4  2 -1</clus>
<clus scale="   61.169">  1  3  2 -1</clus>
<clus scale="   65.575">  2  5  1 -1</clus>
<clus scale="   52.986">  1  3  2 -1</clus>
</clustering>
</event>
<event>
 6    0  0.2036847E+002  0.1547313E+03  0.7546771E-02  0.1194777E+00
         21   -1    0    0  505  501  0.00000000000E+00  0.00000000000E+00  0.22489923754E+03  0.22489923754E+03  0.00000000000E+00 0. -1.
         21   -1    0    0  504  502 -0.00000000000E+00 -0.00000000000E+00 -0.42175004830E+03  0.42175004830E+03  0.00000000000E+00 0. -1.
         21    1    1    2  503  501 -0.43783872581E+02 -0.77977079215E+01 -0.54439135315E+02  0.70295456474E+02  0.00000000000E+00 0. -1.
         21    1    1    2  504  503 -0.10780482417E+03  0.41356783481E+02 -0.30847116588E+03  0.32937322877E+03  0.00000000000E+00 0. -1.
         21    1    1    2  505  506  0.61348806827E+02 -0.10402421667E+02  0.13521197392E+03  0.14884275047E+03  0.00000000000E+00 0. -1.
         21    1    1    2  506  502  0.90239889919E+02 -0.23156653892E+02  0.30847516513E+02  0.98137850125E+02  0.00000000000E+00 0. -1.
<scales pt_clust_3="38.88543" pt_clust_4="38.88543" pt_clust_5="62.22448" pt_clust_6="141.47777"></scales>
<clustering>
<clus scale="   38.885">  3  4 -1 -1</clus>
<clus scale="   62.224">  1  5  2 -1</clus>
<clus scale="  141.478">  1  6  2 -1</clus>
<clus scale="   62.224">  1  3  2 -1</clus>
</clustering>
</event>
<event>
 6    0  0.2036847E+002  0.1390029E+03  0.7546771E-02  0.1214677E+00
         21   -1    0    0  504  501  0.00000000000E+00  0.00000000000E+00  0.36151702953E+02  0.36151702953E+02  0.00000000000E+00 0.  1.
         21   -1    0    0  505  502 -0.00000000000E+00 -0.00000000000E+00 -0.35854125726E+04  0.35854125726E+04  0.00000000000E+00 0. -1.
         21    1    1    2  503  506  0.28572347874E+01 -0.49172198825E+02 -0.24275390237E+03  0.24770047647E+03  0.00000000000E+00 0.  1.
         21    1    1    2  504  502 -0.77611866668E+02 -0.73943713475E+02 -0.11335311146E+04  0.11385886273E+04  0.00000000000E+00 0.  1.
         21    1    1    2  505  503 -0.32831185314E+02  0.27875201744E+02 -0.20369820888E+04  0.20374373472E+04  0.00000000000E+00 0. -1.
         21    1    1    2  506  501  0.10758581720E+03  0.95240710557E+02 -0.13599376394E+03  0.19783782459E+03  0.00000000000E+00 0.  1.
<scales pt_clust_3="44.81820" pt_clust_4="14000.00000" pt_clust_5="43.06871" pt_clust_6="139.00289"></scales>
<clustering>
<clus scale="   43.069">  2  5  1 -1</clus>
<clus scale="   44.818">  2  3  1 -1</clus>
<clus scale="  139.003">  1  6  2 -1</clus>
<clus scale="  139.003">  1  3  2 -1</clus>
</clustering>
</event>
<event>
 6    0  0.2036847E+002  0.1078563E+03  0.7546771E-02  0.1264592E+00
         21   -1    0    0  506  501  0.00000000000E+00  0.00000000000E+00  0.32829768697E+03  0.32829768697E+03  0.00000000000E+00 0. -1.
         21   -1    0    0  505  502 -0.00000000000E+00 -0.00000000000E+00 -0.53016739756E+03  0.53016739756E+03  0.00000000000E+00 0.  1.
         21    1    1    2  503  501 -0.55767860694E+02  0.13284940327E+03  0.16626368155E+03  0.22000597728E+03  0.00000000000E+00 0. -1.
         21    1    1    2  504  502 -0.24401037659E+02 -0.16038073162E+03 -0.38740500695E+03  0.42000003467E+03  0.00000000000E+00 0.  1.
         21    1    1    2  505  503  0.22456916124E+02  0.60464943464E+02 -0.77651382363E+02  0.10094582534E+03  0.00000000000E+00 0.  1.
         21    1    1    2  506  504  0.57711982229E+02 -0.32933615115E+02  0.96922997170E+02  0.11751324724E+03  0.00000000000E+00 0. -1.
<scales pt_clust_3="107.85629" pt_clust_4="14000.00000" pt_clust_5="64.50056" pt_clust_6="66.22002"></scales>
<clustering>
<clus scale="   64.501">  2  5  1 -1</clus>
<clus scale="   66.220">  1  6  2 -1</clus>
<clus scale="  107.856">  1  3  2 -1</clus>
<clus scale="   66.220">  1  3  2 -1</clus>
</clustering>
</event>
<event>
 6    0  0.2036847E+002  0.1912974E+03  0.7546771E-02  0.1157296E+00
         21   -1    0    0  505  501  0.00000000000E+00  0.00000000000E+00  0.36962645942E+03  0.36962645942E+03  0.00000000000E+00 0. -1.
         21   -1    0    0  504  502 -0.00000000000E+00 -0.00000000000E+00 -0.11619481368E+03  0.11619481368E+03  0.00000000000E+00 0. -1.
         21    1    1    2  503  501  0.97000366555E+02  0.18198057118E+01  0.23077897731E+02  0.99724481289E+02  0.00000000000E+00 0. -1.
         21    1    1    2  504  503  0.85943148561E+02 -0.30734525789E+02  0.63047802103E+01  0.91490907273E+02  0.00000000000E+00 0. -1.
         21    1    1    2  505  506 -0.79327713055E+02 -0.59531642148E+01  0.11788723125E+03  0.14221717728E+03  0.00000000000E+00 0. -1.
         21    1    1    2  506  502 -0.10361580206E+03  0.34867884292E+02  0.10616173655E+03  0.15238870726E+03  0.00000000000E+00 0. -1.
<scales pt_clust_3="188.94439" pt_clust_4="36.23486" pt_clust_5="40.82328" pt_clust_6="40.82328"></scales>
<clustering>
<clus scale="   36.235">  3  4 -1 -1</clus>
<clus scale="   40.823">  5  6 -1 -1</clus>
<clus scale="  188.944">  2  3  1 -1</clus>
<clus scale="  191.297">  1  3  2 -1</clus>
</clustering>
</event>
<event>
 6    0  0.4499845E+002  0.1600447E+03  0.7546771E-02  0.1188646E+00
         21   -1    0    0  504  501  0.00000000000E+00  0.00000000000E+00  0.60218635678E+03  0.60218635678E+03  0.00000000000E+00 0.  1.
         21   -1    0    0  505  502 -0.00000000000E+00 -0.00000000000E+00 -0.12938267690E+04  0.12938267690E+04  0.00000000000E+00 0. -1.
         21    1    1    2  503  502 -0.77398964990E+02  0.52893559292E+02 -0.11824742925E+04  0.11861845476E+04  0.00000000000E+00 0. -1.
         21    1    1    2  504  503  0.17461000119E+03 -0.64580871143E+02  0.55053346234E+03  0.58115956035E+03  0.00000000000E+00 0.  1.
         21    1    1    2  505  506 -0.63725088232E+02  0.24481001940E+02 -0.62708716099E+02  0.92696221071E+02  0.00000000000E+00 0. -1.
         21    1    1    2  506  501 -0.33485947972E+02 -0.12793690090E+02  0.30091341104E+01  0.35972796747E+02  0.00000000000E+00 0. -1.
<scales pt_clust_3="160.04469" pt_clust_4="14000.00000" pt_clust_5="68.95474" pt_clust_6="35.84672"></scales>
<clustering>
<clus scale="   35.847">  1  6  2 -1</clus>
<clus scale="   68.955">  2  5  1 -1</clus>
<clus scale="  160.045">  2  3  1 -1</clus>
<clus scale="   35.847">  1  3  2 -1</clus>
</clustering>
</event>
<event>
 6    0  0.2036847E+002  0.2001607E+03  0.7546771E-02  0.1149604E+00
         21   -1    0    0  504  501  0.00000000000E+00  0.00000000000E+00  0.26745750344E+04  0.26745750344E+04  0.00000000000E+00 0.  1.
         21   -1    0    0  503  502 -0.00000000000E+00 -0.00000000000E+00 -0.84102165594E+02  0.84102165594E+02  0.00000000000E+00 0. -1.
         21    1    1    2  503  505 -0.74361039317E+02  0.44474947585E+02  0.35557951630E+02  0.93658705175E+02  0.00000000000E+00 0.  1.
         21    1    1    2  504  502  0.22111907763E+03  0.30582494157E+02  0.23593577400E+04  0.23698940653E+04  0.00000000000E+00 0.  1.
         21    1    1    2  505  506 -0.10303929860E+03 -0.39859911483E+02  0.21910122661E+02  0.11263198069E+03  0.00000000000E+00 0. -1.
         21    1    1    2  506  501 -0.43718739708E+02 -0.35197530259E+02  0.17364705457E+03  0.18249244888E+03  0.00000000000E+00 0. -1.
<scales pt_clust_3="77.74328" pt_clust_4="179.73093" pt_clust_5="77.74328" pt_clust_6="56.12659"></scales>
<clustering>
<clus scale="   56.127">  1  6  2 -1</clus>
<clus scale="   77.743">  3  5 -1 -1</clus>
<clus scale="  179.731">  1  4  2 -1</clus>
<clus scale="   56.127">  1  3  2 -1</clus>
</clustering>
</event>
<event>
 6    0  0.2036847E+002  0.1392786E+03  0.7546771E-02  0.1214303E+00
         21   -1    0    0  506  501  0.00000000000E+00  0.00000000000E+00  0.22643879949E+04  0.22643879949E+04  0.00000000000E+00 0.  1.
         21   -1    0    0  505  502 -0.00000000000E+00 -0.00000000000E+00 -0.34811055045E+03  0.34811055045E+03  0.00000000000E+00 0. -1.
         21    1    1    2  503  502  0.52842754517E+02  0.49096024082E+01 -0.17037760321E+03  0.17845164212E+03  0.00000000000E+00 0.  1.
         21    1    1    2  504  501 -0.27817604424E+02 -0.25548391296E+02  0.71057779356E+03  0.71158087391E+03  0.00000000000E+00 0. -1.
         21    1    1    2  505  504 -0.10463250548E+03  0.43765546946E+02  0.15371415158E+04  0.15413200264E+04  0.00000000000E+00 0.  1.
         21    1    1    2  506  503  0.79607355392E+02 -0.23126758058E+02 -0.16106426169E+03  0.18114600289E+03  0.00000000000E+00 0. -1.
<scales pt_clust_3="31.82265" pt_clust_4="37.76956" pt_clust_5="133.47908" pt_clust_6="31.82265"></scales>
<clustering>
<clus scale="   31.823">  3  6 -1 -1</clus>
<clus scale="   37.770">  1  4  2 -1</clus>
<clus scale="  133.479">  1  5  2 -1</clus>
<clus scale="   37.770">  1  3  2 -1</clus>
</clustering>
</event>
<event>
 6    0  0.2036847E+002  0.7828332E+02  0.7546771E-02  0.1333995E+00
         21   -1    0    0  506  501  0.00000000000E+00  0.00000000000E+00  0.28836294847E+03  0.28836294847E+03  0.00000000000E+00 0. -1.
         21   -1    0    0  503  502 -0.00000000000E+00 -0.00000000000E+00 -0.16942576669E+03  0.16942576669E+03  0.00000000000E+00 0.  1.
         21    1    1    2  503  504  0.98746653566E+01 -0.40802887336E+02 -0.23277864031E+02  0.48002537274E+02  0.00000000000E+00 0. -1.
         21    1    1    2  504  505  0.21467332059E+02 -0.44991430961E+02  0.83656417229E+02  0.97383116345E+02  0.00000000000E+00 0. -1.
         21    1    1    2  505  501  0.35496318116E+02 -0.16283441048E+02  0.15312922988E+03  0.15803069353E+03  0.00000000000E+00 0. -1.
         21    1    1    2  506  502 -0.66838315532E+02  0.10207775935E+03 -0.94570601295E+02  0.15437236801E+03  0.00000000000E+00 0.  1.
<scales pt_clust_3="44.32367" pt_clust_4="14000.00000" pt_clust_5="39.05303" pt_clust_6="78.28332"></scales>
<clustering>
<clus scale="   39.053">  1  5  2 -1</clus>
<clus scale="   44.324">  2  3  1 -1</clus>
<clus scale="   78.283">  2  6  1 -1</clus>
<clus scale="   39.053">  1  3  2 -1</clus>
</clustering>
</event>
<event>
 6    0  0.2036847E+002  0.8694941E+02  0.7546771E-02  0.1310412E+00
         21   -1    0    0  503  501  0.00000000000E+00  0.00000000000E+00  0.64537280507E+03  0.64537280507E+03  0.00000000000E+00 0.  1.
         21   -1    0    0  506  502 -0.00000000000E+00 -0.00000000000E+00 -0.50307661942E+02  0.50307661942E+02  0.00000000000E+00 0.  1.
         21    1    1    2  503  505 -0.40226081491E+02  0.24905751390E+02  0.13725229925E+03  0.14517791752E+03  0.00000000000E+00 0.  1.
         21    1    1    2  504  502 -0.64602128786E+01 -0.40348161333E+02  0.40726523588E+02  0.57691924885E+02  0.00000000000E+00 0.  1.
         21    1    1    2  505  504 -0.39995940026E+02 -0.60701650939E+02  0.35385246579E+03  0.36124220849E+03  0.00000000000E+00 0.  1.
         21    1    1    2  506  501  0.86682234396E+02  0.76144060881E+02  0.63233854498E+02  0.13156841613E+03  0.00000000000E+00 0.  1.
<scales pt_clust_3="45.95915" pt_clust_4="40.86207" pt_clust_5="14000.00000" pt_clust_6="86.94941"></scales>
<clustering>
<clus scale="   40.862">  2  4  1 -1</clus>
<clus scale="   45.959">  1  3  2 -1</clus>
<clus scale="   86.949">  2  6  1 -1</clus>
<clus scale="   45.959">  1  3  2 -1</clus>
</clustering>
</event>
<event>
 6    0  0.2036847E+002  0.1702241E+03  0.7546771E-02  0.1177614E+00
         21   -1    0    0  504  501  0.00000000000E+00  0.00000000000E+00  0.28421026333E+03  0.28421026333E+03  0.00000000000E+00 0. -1.
         21   -1    0    0  506  502 -0.00000000000E+00 -0.00000000000E+00 -0.10340214954E+04  0.10340214954E+04  0.00000000000E+00 0.  1.
         21    1    1    2  503  501  0.15024638245E+02 -0.42151651353E+02  0.16617463205E+03  0.17209447929E+03  0.00000000000E+00 0. -1.
         21    1    1    2  504  502 -0.17471927604E+03 -0.26979044048E+02 -0.58626539022E+03  0.61234124637E+03  0.00000000000E+00 0.  1.
         21    1    1    2  505  503  0.23325094128E+02 -0.40725729711E+02  0.77453264467E+02  0.90562979485E+02  0.00000000000E+00 0.  1.
         21    1    1    2  506  505  0.13636954367E+03  0.10985642511E+03 -0.40717373839E+03  0.44323305361E+03  0.00000000000E+00 0. -1.
<scales pt_clust_3="35.13957" pt_clust_4="14000.00000" pt_clust_5="98.15492" pt_clust_6="170.22408"></scales>
<clustering>
<clus scale="   35.140">  3  5 -1 -1</clus>
<clus scale="   98.155">  1  3  2 -1</clus>
<clus scale="  170.224">  1  6  2 -1</clus>
<clus scale="   98.155">  1  3  2 -1</clus>
</clustering>
</event>
<event>
 6    0  0.2036847E+002  0.1199329E+03  0.7546771E-02  0.1243208E+00
         21   -1    0    0  506  501  0.00000000000E+00  0.00000000000E+00  0.31589822002E+03  0.31589822002E+03  0.00000000000E+00 0.  1.
         21   -1    0    0  504  502 -0.00000000000E+00 -0.00000000000E+00 -0.84545930951E+03  0.84545930951E+03  0.00000000000E+00 0. -1.
         21    1    1    2  503  501 -0.97015674756E+02  0.12746828106E+02  0.18747053444E+03  0.21147038577E+03  0.00000000000E+00 0.  1.
         21    1    1    2  504  503  0.12347606276E+03 -0.21770020666E+02 -0.78125103414E+03  0.79124803331E+03  0.00000000000E+00 0. -1.
         21    1    1    2  505  502 -0.16235468316E+02 -0.36418953621E+02 -0.32400350109E+02  0.51378140308E+02  0.00000000000E+00 0. -1.
         21    1    1    2  506  505 -0.10224919684E+02  0.45442146181E+02  0.96619760319E+02  0.10726097014E+03  0.00000000000E+00 0.  1.
<scales pt_clust_3="14000.00000" pt_clust_4="119.93289" pt_clust_5="39.87393" pt_clust_6="46.36691"></scales>
<clustering>
<clus scale="   39.874">  2  5  1 -1</clus>
<clus scale="   46.367">  1  6  2 -1</clus>
<clus scale="  119.933">  2  4  1 -1</clus>
<clus scale="   46.367">  1  3  2 -1</clus>
</clustering>
</event>
<event>
 6    0  0.2036847E+002  0.1656104E+03  0.7546771E-02  0.1182504E+00
         21   -1    0    0  505  501  0.00000000000E+00  0.00000000000E+00  0.17349905086E+04  0.17349905086E+04  0.00000000000E+00 0.  1.
         21   -1    0    0  503  502 -0.00000000000E+00 -0.00000000000E+00 -0.31539106669E+03  0.31539106669E+03  0.00000000000E+00 0.  1.
         21    1    1    2  503  501 -0.81867555941E+02 -0.10763613412E+03 -0.24920975360E+03  0.28353718517E+03  0.00000000000E+00 0.  1.
         21    1    1    2  504  502  0.25144167460E+02 -0.49724355187E+02 -0.23468901726E+02  0.60460979187E+02  0.00000000000E+00 0.  1.
         21    1    1    2  505  506 -0.47215948120E+02  0.37997587996E+02  0.44966862101E+03  0.45373453822E+03  0.00000000000E+00 0.  1.
         21    1    1    2  506  504  0.10393933660E+03  0.11936290131E+03  0.12426094763E+04  0.12526488728E+04  0.00000000000E+00 0.  1.
<scales pt_clust_3="14000.00000" pt_clust_4="55.72020" pt_clust_5="60.22943" pt_clust_6="165.61037"></scales>
<clustering>
<clus scale="   55.720">  2  4  1 -1</clus>
<clus scale="   60.229">  1  5  2 -1</clus>
<clus scale="  165.610">  1  6  2 -1</clus>
<clus scale="   60.229">  1  3  2 -1</clus>
</clustering>
</event>
<event>
 6    0  0.2036847E+002  0.2746031E+03  0.7546771E-02  0.1098674E+00
         21   -1    0    0  503  501  0.00000000000E+00  0.00000000000E+00  0.32822288439E+04  0.32822288439E+04  0.00000000000E+00 0. -1.
         21   -1    0    0  501  502 -0.00000000000E+00 -0.00000000000E+00 -0.22832389710E+02  0.22832389710E+02  0.00000000000E+00 0. -1.
         21    1    1    2  503  505 -0.63398527904E+02  0.70852821678E+02  0.66522445474E+03  0.67198442755E+03  0.00000000000E+00 0. -1.
         21    1    1    2  504  506  0.47912965557E+02 -0.45819398059E+02  0.30107145440E+03  0.30828410624E+03  0.00000000000E+00 0. -1.
         21    1    1    2  505  504 -0.77703899717E+02  0.15820891578E+03  0.98777457782E+03  0.10033775828E+04  0.00000000000E+00 0. -1.
         21    1    1    2  506  502  0.93189462064E+02 -0.18324233940E+03  0.13053259673E+04  0.13214151171E+04  0.00000000000E+00 0. -1.
<scales pt_clust_3="33.27673" pt_clust_4="31.24718" pt_clust_5="272.82240" pt_clust_6="31.24718"></scales>
<clustering>
<clus scale="   31.247">  4  6 -1 -1</clus>
<clus scale="   33.277">  3  5 -1 -1</clus>
<clus scale="  272.822">  1  3  2 -1</clus>
<clus scale="  272.822">  1  3  2 -1</clus>
</clustering>
</event>
<event>
 6    0  0.2036847E+002  0.1644928E+03  0.7546771E-02  0.1183716E+00
         21   -1    0    0  503  501  0.00000000000E+00  0.00000000000E+00  0.41185709187E+02  0.41185709187E+02  0.00000000000E+00 0. -1.
         21   -1    0    0  505  502 -0.00000000000E+00 -0.00000000000E+00 -0.15290158708E+04  0.15290158708E+04  0.00000000000E+00 0. -1.
         21    1    1    2  503  504  0.13616267510E+03 -0.10839746962E+03 -0.27000072235E+03  0.32123305493E+03  0.00000000000E+00 0. -1.
         21    1    1    2  504  502  0.37844641506E+02 -0.11989230709E+02 -0.16677254304E+03  0.17143231800E+03  0.00000000000E+00 0.  1.
         21    1    1    2  505  506 -0.76519281476E+02  0.75893868134E+01 -0.53073790898E+03  0.53627933697E+03  0.00000000000E+00 0. -1.
         21    1    1    2  506  501 -0.97488035133E+02  0.11279731351E+03 -0.52031898724E+03  0.54125687008E+03  0.00000000000E+00 0. -1.
<scales pt_clust_3="164.49282" pt_clust_4="39.69834" pt_clust_5="61.73991" pt_clust_6="14000.00000"></scales>
<clustering>
<clus scale="   39.698">  2  4  1 -1</clus>
<clus scale="   61.740">  2  5  1 -1</clus>
<clus scale="  164.493">  1  3  2 -1</clus>
<clus scale="  164.493">  1  3  2 -1</clus>
</clustering>
</event>
<event>
 6    0  0.2036847E+002  0.2112519E+03  0.7546771E-02  0.1140578E+00
         21   -1    0    0  502  501  0.00000000000E+00  0.00000000000E+00  0.93114916708E+03  0.93114916708E+03  0.00000000000E+00 0.  1.
         21   -1    0    0  504  502 -0.00000000000E+00 -0.00000000000E+00 -0.89852197698E+02  0.89852197698E+02  0.00000000000E+00 0.  1.
         21    1    1    2  503  505  0.89990456558E+02 -0.72396796902E+02  0.26677552498E+03  0.29070390297E+03  0.00000000000E+00 0.  1.
         21    1    1    2  504  506  0.50401922160E+02 -0.10898913469E+02  0.34589016753E+02  0.62092995999E+02  0.00000000000E+00 0.  1.
         21    1    1    2  505  501  0.45691745020E+02 -0.59230261927E+02  0.37303595501E+03  0.38046259109E+03  0.00000000000E+00 0.  1.
         21    1    1    2  506  503 -0.18608412374E+03  0.14252597230E+03  0.16689647264E+03  0.28774187472E+03  0.00000000000E+00 0.  1.
<scales pt_clust_3="57.93422" pt_clust_4="51.56685" pt_clust_5="57.93422" pt_clust_6="198.13369"></scales>
<clustering>
<clus scale="   51.567">  2  4  1 -1</clus>
<clus scale="   57.934">  3  5 -1 -1</clus>
<clus scale="  198.134">  2  6  1 -1</clus>
<clus scale="  211.252">  1  3  2 -1</clus>
</clustering>
</event>
<event>
 6    0  0.2036847E+002  0.2284895E+03  0.7546771E-02  0.1127707E+00
         21   -1    0    0  502  501  0.00000000000E+00  0.00000000000E+00  0.30904436572E+03  0.30904436572E+03  0.00000000000E+00 0. -1.
         21   -1    0    0  503  502 -0.00000000000E+00 -0.00000000000E+00 -0.26763916601E+03  0.26763916601E+03  0.00000000000E+00 0.  1.
         21    1    1    2  503  505 -0.68196300069E+02  0.43457297518E+01 -0.61193649792E+02  0.91729403602E+02  0.00000000000E+00 0.  1.
         21    1    1    2  504  501 -0.12890003852E+03 -0.16600053051E+03  0.84940666686E+02  0.22668549340E+03  0.00000000000E+00 0. -1.
         21    1    1    2  505  506  0.11477316341E+03  0.92738520405E+02 -0.83760933840E+01  0.14779536916E+03  0.00000000000E+00 0.  1.
         21    1    1    2  506  504  0.82323175185E+02  0.68916280349E+02  0.26034276199E+02  0.11047326557E+03  0.00000000000E+00 0.  1.
<scales pt_clust_3="68.33462" pt_clust_4="225.37928" pt_clust_5="32.04830" pt_clust_6="32.04830"></scales>
<clustering>
<clus scale="   32.048">  5  6 -1 -1</clus>
<clus scale="   68.335">  2  3  1 -1</clus>
<clus scale="  225.379">  1  4  2 -1</clus>
<clus scale="  225.379">  1  3  2 -1</clus>
</clustering>
</event>
<event>
 6    0  0.2036847E+002  0.1178245E+03  0.7546771E-02  0.1246730E+00
         21   -1    0    0  504  501  0.00000000000E+00  0.00000000000E+00  0.55880560151E+03  0.55880560151E+03  0.00000000000E+00 0. -1.
         21   -1    0    0  505  502 -0.00000000000E+00 -0.00000000000E+00 -0.17540057189E+03  0.17540057189E+03  0.00000000000E+00 0.  1.
         21    1    1    2  503  506  0.96597008580E+02  0.44973486711E+02 -0.12264513352E+03  0.16246668997E+03  0.00000000000E+00 0.  1.
         21    1    1    2  504  502 -0.96846662772E+02 -0.56894996425E+02  0.39593890310E+03  0.41156279192E+03  0.00000000000E+00 0. -1.
         21    1    1    2  505  503  0.21716418381E+02 -0.23760174408E+02 -0.94692903740E+01  0.33553184281E+02  0.00000000000E+00 0.  1.
         21    1    1    2  506  501 -0.21466764189E+02  0.35681684123E+02  0.11958055041E+03  0.12662350723E+03  0.00000000000E+00 0.  1.
<scales pt_clust_3="14000.00000" pt_clust_4="117.82454" pt_clust_5="32.18926" pt_clust_6="40.91957"></scales>
<clustering>
<clus scale="   32.189">  2  5  1 -1</clus>
<clus scale="   40.920">  1  6  2 -1</clus>
<clus scale="  117.825">  1  4  2 -1</clus>
<clus scale="   40.920">  1  3  2 -1</clus>
</clustering>
</event>
<event>
 6    0  0.2036847E+002  0.8197615E+02  0.7546771E-02  0.1323535E+00
         21   -1    0    0  504  501  0.00000000000E+00  0.00000000000E+00  0.12752530672E+03  0.12752530672E+03  0.00000000000E+00 0.  1.
         21   -1    0    0  506  502 -0.00000000000E+00 -0.00000000000E+00 -0.31862683583E+03  0.31862683583E+03  0.00000000000E+00 0. -1.
         21    1    1    2  503  501 -0.78528415022E+02  0.49475002791E+02  0.15730333164E+01  0.92827594501E+02  0.00000000000E+00 0.  1.
         21    1    1    2  504  505  0.32296185904E+02  0.16864363563E+02  0.58079745525E+02  0.68561703760E+02  0.00000000000E+00 0.  1.
         21    1    1    2  505  502 -0.30442986018E+02 -0.33619481542E+02 -0.13273485828E+03  0.14026969573E+03  0.00000000000E+00 0.  1.
         21    1    1    2  506  503  0.76675215136E+02 -0.32719884812E+02 -0.11801944968E+03  0.14449314856E+03  0.00000000000E+00 0. -1.
<scales pt_clust_3="81.97615" pt_clust_4="36.43419" pt_clust_5="43.35543" pt_clust_6="14000.00000"></scales>
<clustering>
<clus scale="   36.434">  1  4  2 -1</clus>
<clus scale="   43.355">  2  5  1 -1</clus>
<clus scale="   81.976">  1  3  2 -1</clus>
<clus scale="   36.434">  1  3  2 -1</clus>
</clustering>
</event>
<event>
 6    0  0.2036847E+002  0.8508384E+02  0.7546771E-02  0.1315213E+00
         21   -1    0    0  504  501  0.00000000000E+00  0.00000000000E+00  0.47971156354E+03  0.47971156354E+03  0.00000000000E+00 0. -1.
         21   -1    0    0  505  502 -0.00000000000E+00 -0.00000000000E+00 -0.20664169889E+03  0.20664169889E+03  0.00000000000E+00 0.  1.
         21    1    1    2  503  501  0.98340580951E+02 -0.45175800368E+02  0.38299532746E+03  0.39799138641E+03  0.00000000000E+00 0. -1.
         21    1    1    2  504  506 -0.29955254487E+02 -0.33674457454E+01  0.40069755132E+02  0.50142220120E+02  0.00000000000E+00 0. -1.
         21    1    1    2  505  503  0.31062136475E+02  0.70215560431E+02 -0.96240692220E+02  0.12311519844E+03  0.00000000000E+00 0.  1.
         21    1    1    2  506  502 -0.99447462939E+02 -0.21672314317E+02 -0.53754525712E+02  0.11510445746E+03  0.00000000000E+00 0.  1.
<scales pt_clust_3="85.08384" pt_clust_4="30.14394" pt_clust_5="76.31377" pt_clust_6="14000.00000"></scales>
<clustering>
<clus scale="   30.144">  1  4  2 -1</clus>
<clus scale="   76.314">  2  5  1 -1</clus>
<clus scale="   85.084">  1  3  2 -1</clus>
<clus scale="   30.144">  1  3  2 -1</clus>
</clustering>
</event>
<event>
 6    0  0.2036847E+002  0.2547873E+03  0.7546771E-02  0.1110316E+00
         21   -1    0    0  505  501  0.00000000000E+00  0.00000000000E+00  0.55165134684E+02  0.55165134684E+02  0.00000000000E+00 0.  1.
         21   -1    0    0  503  502 -0.00000000000E+00 -0.00000000000E+00 -0.16363612215E+04  0.16363612215E+04  0.00000000000E+00 0.  1.
         21    1    1    2  503  506  0.84737289173E+02 -0.33408411465E+02 -0.35041624025E+03  0.36206086721E+03  0.00000000000E+00 0.  1.
         21    1    1    2  504  502  0.11467213462E+02  0.38080597007E+02 -0.20421638381E+03  0.20805278242E+03  0.00000000000E+00 0.  1.
         21    1    1    2  505  504  0.13666543088E+02  0.20840595138E+03 -0.41640925872E+03  0.46585028251E+03  0.00000000000E+00 0.  1.
         21    1    1    2  506  501 -0.10987104572E+03 -0.21307813692E+03 -0.61015420404E+03  0.65556242405E+03  0.00000000000E+00 0.  1.
<scales pt_clust_3="91.08529" pt_clust_4="37.99638" pt_clust_5="37.99638" pt_clust_6="239.44674"></scales>
<clustering>
<clus scale="   37.996">  4  5 -1 -1</clus>
<clus scale="   91.085">  2  3  1 -1</clus>
<clus scale="  239.447">  2  6  1 -1</clus>
<clus scale="  254.787">  1  3  2 -1</clus>
</clustering>
</event>
<event>
 6    0  0.2036847E+002  0.8846012E+02  0.7546771E-02  0.1306624E+00
         21   -1    0    0  506  501  0.00000000000E+00  0.00000000000E+00  0.10101172173E+03  0.10101172173E+03  0.00000000000E+00 0. -1.
         21   -1    0    0  503  502 -0.00000000000E+00 -0.00000000000E+00 -0.12482409014E+04  0.12482409014E+04  0.00000000000E+00 0.  1.
         21    1    1    2  503  501  0.10079926876E+03  0.58142873931E+02  0.29383549065E+02  0.12001866241E+03  0.00000000000E+00 0. -1.
         21    1    1    2  504  505  0.10373535933E+01 -0.71015444218E+02 -0.63773790725E+03  0.64168053404E+03  0.00000000000E+00 0.  1.
         21    1    1    2  505  502 -0.39745675018E+02 -0.12085475564E+02 -0.51474203315E+03  0.51641566407E+03  0.00000000000E+00 0.  1.
         21    1    1    2  506  504 -0.62090947338E+02  0.24958045851E+02 -0.24132788302E+02  0.71137762582E+02  0.00000000000E+00 0. -1.
<scales pt_clust_3="88.46012" pt_clust_4="14000.00000" pt_clust_5="41.54248" pt_clust_6="69.04466"></scales>
<clustering>
<clus scale="   41.542">  2  5  1 -1</clus>
<clus scale="   69.045">  1  6  2 -1</clus>
<clus scale="   88.460">  1  3  2 -1</clus>
<clus scale="   69.045">  1  3  2 -1</clus>
</clustering>
</event>
<event>
 6    0  0.2036847E+002  0.1264975E+03  0.7546771E-02  0.1232747E+00
         21   -1    0    0  505  501  0.00000000000E+00  0.00000000000E+00  0.29585046061E+04  0.29585046061E+04  0.00000000000E+00 0. -1.
         21   -1    0    0  506  502 -0.00000000000E+00 -0.00000000000E+00 -0.63580480826E+02  0.63580480826E+02  0.00000000000E+00 0.  1.
         21    1    1    2  503  504  0.77696776142E+02  0.95393565185E+02  0.41730974160E+02  0.12991610949E+03  0.00000000000E+00 0.  1.
         21    1    1    2  504  501 -0.59465883933E+02 -0.11186769326E+03  0.26924293884E+04  0.26954084262E+04  0.00000000000E+00 0. -1.
         21    1    1    2  505  502 -0.51516438611E+02  0.36880900785E+02  0.54574983922E+02  0.83621607016E+02  0.00000000000E+00 0.  1.
         21    1    1    2  506  503  0.33285546402E+02 -0.20406772714E+02  0.10618877877E+03  0.11313894426E+03  0.00000000000E+00 0. -1.
<scales pt_clust_3="14000.00000" pt_clust_4="126.49753" pt_clust_5="53.95145" pt_clust_6="39.04310"></scales>
<clustering>
<clus scale="   39.043">  2  6  1 -1</clus>
<clus scale="   53.951">  2  5  1 -1</clus>
<clus scale="  126.498">  1  4  2 -1</clus>
<clus scale="  126.498">  1  3  2 -1</clus>
</clustering>
</event>
<event>
 6    0  0.2036847E+002  0.1226771E+03  0.7546771E-02  0.1238745E+00
         21   -1    0    0  504  501  0.00000000000E+00  0.00000000000E+00  0.50117557593E+03  0.50117557593E+03  0.00000000000E+00 0.  1.
         21   -1    0    0  506  502 -0.00000000000E+00 -0.00000000000E+00 -0.21748889699E+03  0.21748889699E+03  0.00000000000E+00 0.  1.
         21    1    1    2  503  505  0.30298819593E+02 -0.39026790616E+01  0.52657033749E+02  0.60877028310E+02  0.00000000000E+00 0.  1.
         21    1    1    2  504  502  0.42213961427E+02 -0.11141854424E+03 -0.56927153494E+02  0.13204851891E+03  0.00000000000E+00 0.  1.
         21    1    1    2  505  501  0.20367661685E+02  0.22127548790E+02  0.36964647307E+03  0.37086788094E+03  0.00000000000E+00 0.  1.
         21    1    1    2  506  503 -0.92880442705E+02  0.93193674515E+02 -0.81689674380E+02  0.15487104477E+03  0.00000000000E+00 0.  1.
<scales pt_clust_3="39.54218" pt_clust_4="122.67709" pt_clust_5="30.07441" pt_clust_6="14000.00000"></scales>
<clustering>
<clus scale="   30.074">  1  5  2 -1</clus>
<clus scale="   39.542">  1  3  2 -1</clus>
<clus scale="  122.677">  1  4  2 -1</clus>
<clus scale="   30.074">  1  3  2 -1</clus>
</clustering>
</event>
<event>
 6    0  0.2036847E+002  0.2192280E+03  0.7546771E-02  0.1134460E+00
         21   -1    0    0  503  501  0.00000000000E+00  0.00000000000E+00  0.14583659300E+04  0.14583659300E+04  0.00000000000E+00 0. -1.
         21   -1    0    0  504  502 -0.00000000000E+00 -0.00000000000E+00 -0.51478404987E+02  0.51478404987E+02  0.00000000000E+00 0. -1.
         21    1    1    2  503  502  0.18963174147E+03  0.16049859416E+03  0.68461600207E+03  0.72829874803E+03  0.00000000000E+00 0. -1.
         21    1    1    2  504  505 -0.10292218887E+03 -0.12294608619E+02  0.22095218426E+03  0.24405737459E+03  0.00000000000E+00 0. -1.
         21    1    1    2  505  506 -0.67538045263E+02 -0.67376710116E+02  0.16068173214E+03  0.18686794178E+03  0.00000000000E+00 0. -1.
         21    1    1    2  506  501 -0.19171507342E+02 -0.80827275420E+02  0.34063760653E+03  0.35062027056E+03  0.00000000000E+00 0. -1.
<scales pt_clust_3="208.35776" pt_clust_4="65.40505" pt_clust_5="65.40505" pt_clust_6="83.06982"></scales>
<clustering>
<clus scale="   65.405">  4  5 -1 -1</clus>
<clus scale="   83.070">  1  6  2 -1</clus>
<clus scale="  208.358">  1  3  2 -1</clus>
<clus scale="   83.070">  1  3  2 -1</clus>
</clustering>
</event>
<event>
 6    0  0.2036847E+002  0.2103958E+03  0.7546771E-02  0.1141253E+00
         21   -1    0    0  505  501  0.00000000000E+00  0.00000000000E+00  0.23560565291E+03  0.23560565291E+03  0.00000000000E+00 0. -1.
         21   -1    0    0  506  502 -0.00000000000E+00 -0.00000000000E+00 -0.43578757338E+03  0.43578757338E+03  0.00000000000E+00 0. -1.
         21    1    1    2  503  502 -0.16836316046E+01  0.60373378792E+02  0.29254574563E+02  0.67108938413E+02  0.00000000000E+00 0. -1.
         21    1    1    2  504  501  0.12854275122E+02 -0.12350747278E+03 -0.22117256525E+03  0.25364666732E+03  0.00000000000E+00 0. -1.
         21    1    1    2  505  503 -0.87577537239E+02  0.10267003689E+03  0.13026880761E+03  0.18756578510E+03  0.00000000000E+00 0. -1.
         21    1    1    2  506  504  0.76406893722E+02 -0.39535942893E+02 -0.13853273739E+03  0.16307183546E+03  0.00000000000E+00 0. -1.
<scales pt_clust_3="46.64204" pt_clust_4="82.04360" pt_clust_5="198.52331" pt_clust_6="82.04360"></scales>
<clustering>
<clus scale="   46.642">  3  5 -1 -1</clus>
<clus scale="   82.044">  4  6 -1 -1</clus>
<clus scale="  198.523">  1  3  2 -1</clus>
<clus scale="  198.523">  1  3  2 -1</clus>
</clustering>
</event>
<event>
 6    0  0.2036847E+002  0.1502444E+03  0.7546771E-02  0.1200173E+00
         21   -1    0    0  504  501  0.00000000000E+00  0.00000000000E+00  0.29580834852E+02  0.29580834852E+02  0.00000000000E+00 0.  1.
         21   -1    0    0  506  502 -0.00000000000E+00 -0.00000000000E+00 -0.20306555993E+04  0.20306555993E+04  0.00000000000E+00 0. -1.
         21    1    1    2  503  501  0.79764275325E+02  0.31997435625E+01 -0.71730723396E+03  0.72173557891E+03  0.00000000000E+00 0. -1.
         21    1    1    2  504  505 -0.44487989129E+02  0.88134055727E+01 -0.17625045041E+03  0.18199197390E+03  0.00000000000E+00 0. -1.
         21    1    1    2  505  502 -0.10779611830E+03 -0.15198412396E+02 -0.10460804119E+03  0.15097628006E+03  0.00000000000E+00 0.  1.
         21    1    1    2  506  503  0.72519832102E+02  0.31852632610E+01 -0.10029090389E+04  0.10055326013E+04  0.00000000000E+00 0. -1.
<scales pt_clust_3="31.33975" pt_clust_4="45.35259" pt_clust_5="146.60578" pt_clust_6="31.33975"></scales>
<clustering>
<clus scale="   31.340">  3  6 -1 -1</clus>
<clus scale="   45.353">  1  4  2 -1</clus>
<clus scale="  146.606">  1  5  2 -1</clus>
<clus scale="   45.353">  1  3  2 -1</clus>
</clustering>
</event>
<event>
 6    0  0.2036847E+002  0.1045669E+03  0.7546771E-02  0.1270975E+00
         21   -1    0    0  506  501  0.00000000000E+00  0.00000000000E+00  0.22650379916E+03  0.22650379916E+03  0.00000000000E+00 0. -1.
         21   -1    0    0  504  502 -0.00000000000E+00 -0.00000000000E+00 -0.22064252714E+03  0.22064252714E+03  0.00000000000E+00 0.  1.
         21    1    1    2  503  501 -0.16735937916E+01  0.81951024869E+02  0.11522994909E+03  0.14140973291E+03  0.00000000000E+00 0. -1.
         21    1    1    2  504  503  0.27283952601E+02 -0.40303649638E+02 -0.25657292472E+02  0.55019041256E+02  0.00000000000E+00 0. -1.
         21    1    1    2  505  502  0.27402737787E+02 -0.67112921871E+02 -0.14725677910E+03  0.16413291355E+03  0.00000000000E+00 0.  1.
         21    1    1    2  506  505 -0.53013096597E+02  0.25465546640E+02  0.63545394506E+02  0.86584638588E+02  0.00000000000E+00 0. -1.
<scales pt_clust_3="104.56686" pt_clust_4="48.67030" pt_clust_5="14000.00000" pt_clust_6="56.14787"></scales>
<clustering>
<clus scale="   48.670">  2  4  1 -1</clus>
<clus scale="   56.148">  1  6  2 -1</clus>
<clus scale="  104.567">  1  3  2 -1</clus>
<clus scale="   56.148">  1  3  2 -1</clus>
</clustering>
</event>
<event>
 6    0  0.2036847E+002  0.1018283E+03  0.7546771E-02  0.1276498E+00
         21   -1    0    0  504  501  0.00000000000E+00  0.00000000000E+00  0.97749032524E+03  0.97749032524E+03  0.00000000000E+00 0. -1.
         21   -1    0    0  505  502 -0.00000000000E+00 -0.00000000000E+00 -0.66071114918E+02  0.66071114918E+02  0.00000000000E+00 0. -1.
         21    1    1    2  503  501 -0.26953294090E+02  0.47390210506E+02  0.18947563412E+03  0.19716320153E+03  0.00000000000E+00 0. -1.
         21    1    1    2  504  506  0.32022038044E+02  0.44276306874E+02  0.57656193412E+03  0.57914546200E+03  0.00000000000E+00 0. -1.
         21    1    1    2  505  503 -0.73038320238E+02  0.31793999072E+02  0.76275141001E+02  0.11028758650E+03  0.00000000000E+00 0. -1.
         21    1    1    2  506  502  0.67969576284E+02 -0.12346051645E+03  0.69106501083E+02  0.15696519014E+03  0.00000000000E+00 0. -1.
<scales pt_clust_3="54.51892" pt_clust_4="80.12616" pt_clust_5="101.82832" pt_clust_6="14000.00000"></scales>
<clustering>
<clus scale="   54.519">  1  3  2 -1</clus>
<clus scale="   80.126">  1  4  2 -1</clus>
<clus scale="  101.828">  2  5  1 -1</clus>
<clus scale="   54.519">  1  3  2 -1</clus>
</clustering>
</event>
<event>
 6    0  0.2036847E+002  0.2122356E+03  0.7546771E-02  0.1139808E+00
         21   -1    0    0  503  501  0.00000000000E+00  0.00000000000E+00  0.76368626000E+03  0.76368626000E+03  0.00000000000E+00 0.  1.
         21   -1    0    0  506  502 -0.00000000000E+00 -0.00000000000E+00 -0.15035280312E+04  0.15035280312E+04  0.00000000000E+00 0.  1.
         21    1    1    2  503  504  0.86320134876E+02  0.32826428004E+02  0.41720636458E+03  0.42730538342E+03  0.00000000000E+00 0.  1.
         21    1    1    2  504  502  0.74774799220E+02 -0.14704621135E+03  0.31334926925E+03  0.35412091637E+03  0.00000000000E+00 0.  1.
         21    1    1    2  505  501 -0.72953551536E+02  0.18740307203E+02 -0.35876845547E+03  0.36658999501E+03  0.00000000000E+00 0.  1.
         21    1    1    2  506  505 -0.88141382560E+02  0.95479476147E+02 -0.11116289495E+04  0.11191979964E+04  0.00000000000E+00 0.  1.
<scales pt_clust_3="92.35118" pt_clust_4="196.32691" pt_clust_5="61.38055" pt_clust_6="61.38055"></scales>
<clustering>
<clus scale="   61.381">  5  6 -1 -1</clus>
<clus scale="   92.351">  1  3  2 -1</clus>
<clus scale="  196.327">  1  4  2 -1</clus>
<clus scale="   92.351">  1  3  2 -1</clus>
</clustering>
</event>
<event>
 6    0  0.2036847E+002  0.2428545E+03  0.7546771E-02  0.1117906E+00
         21   -1    0    0  505  501  0.00000000000E+00  0.00000000000E+00  0.46468712629E+03  0.46468712629E+03  0.00000000000E+00 0. -1.
         21   -1    0    0  506  502 -0.00000000000E+00 -0.00000000000E+00 -0.18494778011E+03  0.18494778011E+03  0.00000000000E+00 0. -1.
         21    1    1    2  503  501  0.51990954307E+02 -0.17507082544E+03  0.27857775353E+03  0.33310421494E+03  0.00000000000E+00 0. -1.
         21    1    1    2  504  503  0.29273737029E+02 -0.46653099391E+02  0.24991515125E+02  0.60481726089E+02  0.00000000000E+00 0. -1.
         21    1    1    2  505  502 -0.36290827198E+02  0.20151044096E+02  0.18136462291E+02  0.45299227160E+02  0.00000000000E+00 0.  1.
         21    1    1    2  506  504 -0.44973864138E+02  0.20157288074E+03 -0.41966384768E+02  0.21074973821E+03  0.00000000000E+00 0. -1.
<scales pt_clust_3="44.91128" pt_clust_4="44.91128" pt_clust_5="41.51010" pt_clust_6="228.00917"></scales>
<clustering>
<clus scale="   41.510">  2  5  1 -1</clus>
<clus scale="   44.911">  3  4 -1 -1</clus>
<clus scale="  228.009">  2  6  1 -1</clus>
<clus scale="  242.855">  1  3  2 -1</clus>
</clustering>
</event>
<event>
 6    0  0.2036847E+002  0.1383200E+03  0.7546771E-02  0.1215608E+00
         21   -1    0    0  502  501  0.00000000000E+00  0.00000000000E+00  0.96660201603E+03  0.96660201603E+03  0.00000000000E+00 0. -1.
         21   -1    0    0  504  502 -0.00000000000E+00 -0.00000000000E+00 -0.14086520700E+03  0.14086520700E+03  0.00000000000E+00 0. -1.
         21    1    1    2  503  505  0.54089125929E+02  0.42546049389E+02 -0.56994513098E+02  0.89354207431E+02  0.00000000000E+00 0. -1.
         21    1    1    2  504  503  0.63657729169E+02  0.11518550573E+02 -0.45846393522E+02  0.79289818320E+02  0.00000000000E+00 0. -1.
         21    1    1    2  505  506 -0.59155207160E+02 -0.52718887616E+02  0.49486012939E+03  0.50116381285E+03  0.00000000000E+00 0. -1.
         21    1    1    2  506  501 -0.58591647938E+02 -0.13457123460E+01  0.43371758626E+03  0.43765938443E+03  0.00000000000E+00 0. -1.
<scales pt_clust_3="133.65835" pt_clust_4="31.82247" pt_clust_5="41.64775" pt_clust_6="41.64775"></scales>
<clustering>
<clus scale="   31.822">  3  4 -1 -1</clus>
<clus scale="   41.648">  5  6 -1 -1</clus>
<clus scale="  133.658">  2  3  1 -1</clus>
<clus scale="  138.320">  1  3  2 -1</clus>
</clustering>
</event>
<event>
 6    0  0.2036847E+002  0.9093157E+02  0.7546771E-02  0.1300611E+00
         21   -1    0    0  504  501  0.00000000000E+00  0.00000000000E+00  0.14212152677E+03  0.14212152677E+03  0.00000000000E+00 0. -1.
         21   -1    0    0  505  502 -0.00000000000E+00 -0.00000000000E+00 -0.65094049091E+03  0.65094049091E+03  0.00000000000E+00 0. -1.
         21    1    1    2  503  502  0.15894170973E+01  0.88370553515E+02 -0.34080698500E+03  0.35208135707E+03  0.00000000000E+00 0. -1.
         21    1    1    2  504  506 -0.30489769691E+02 -0.84332280953E+02  0.45063111751E+02  0.10036056849E+03  0.00000000000E+00 0. -1.
         21    1    1    2  505  501 -0.62811536063E+02  0.39768312605E+02  0.27650264501E+02  0.79317998443E+02  0.00000000000E+00 0. -1.
         21    1    1    2  506  503  0.91711888657E+02 -0.43806585167E+02 -0.24072535540E+03  0.26130209367E+03  0.00000000000E+00 0. -1.
<scales pt_clust_3="90.93157" pt_clust_4="14000.00000" pt_clust_5="74.34250" pt_clust_6="88.19801"></scales>
<clustering>
<clus scale="   74.343">  1  5  2 -1</clus>
<clus scale="   90.932">  2  3  1 -1</clus>
<clus scale="   88.198">  2  6  1 -1</clus>
<clus scale="   74.343">  1  3  2 -1</clus>
</clustering>
</event>
<event>
 6    0  0.2036847E+002  0.1483042E+03  0.7546771E-02  0.1202572E+00
         21   -1    0    0  503  501  0.00000000000E+00  0.00000000000E+00  0.10301781613E+04  0.10301781613E+04  0.00000000000E+00 0. -1.
         21   -1    0    0  506  502 -0.00000000000E+00 -0.00000000000E+00 -0.36653190014E+02  0.36653190014E+02  0.00000000000E+00 0. -1.
         21    1    1    2  503  505  0.46659448112E+02 -0.44880312471E+02  0.21312106215E+03  0.22273736480E+03  0.00000000000E+00 0. -1.
         21    1    1    2  504  501 -0.10420884397E+03  0.21886840017E+02  0.19284748178E+03  0.22029223354E+03  0.00000000000E+00 0. -1.
         21    1    1    2  505  502  0.10120186569E+03  0.26284476155E+02  0.56492819738E+03  0.57452289728E+03  0.00000000000E+00 0. -1.
         21    1    1    2  506  504 -0.43652469830E+02 -0.32910037007E+01  0.22628229983E+02  0.49278855707E+02  0.00000000000E+00 0. -1.
<scales pt_clust_3="64.74061" pt_clust_4="40.70372" pt_clust_5="134.03035" pt_clust_6="40.70372"></scales>
<clustering>
<clus scale="   40.704">  4  6 -1 -1</clus>
<clus scale="   64.741">  1  3  2 -1</clus>
<clus scale="  134.030">  1  5  2 -1</clus>
<clus scale="   64.741">  1  3  2 -1</clus>
</clustering>
</event>
<event>
 6    0  0.2036847E+002  0.1778458E+03  0.7546771E-02  0.1169904E+00
         21   -1    0    0  505  501  0.00000000000E+00  0.00000000000E+00  0.36259689638E+03  0.36259689638E+03  0.00000000000E+00 0. -1.
         21   -1    0    0  504  502 -0.00000000000E+00 -0.00000000000E+00 -0.16715021312E+03  0.16715021312E+03  0.00000000000E+00 0. -1.
         21    1    1    2  503  502  0.47076255905E+02  0.78360296897E+02  0.71285894713E+02  0.11592320210E+03  0.00000000000E+00 0. -1.
         21    1    1    2  504  506  0.45393528166E+01 -0.84857762365E+02 -0.27872193185E+02  0.89433241642E+02  0.00000000000E+00 0. -1.
         21    1    1    2  505  503  0.60396248483E+02  0.81120462550E+02  0.16030769617E+03  0.18954364597E+03  0.00000000000E+00 0. -1.
         21    1    1    2  506  501 -0.11201185720E+03 -0.74622997083E+02 -0.82747144449E+01  0.13484701979E+03  0.00000000000E+00 0. -1.
<scales pt_clust_3="49.30924" pt_clust_4="84.97909" pt_clust_5="49.30924" pt_clust_6="170.11515"></scales>
<clustering>
<clus scale="   49.309">  3  5 -1 -1</clus>
<clus scale="   84.979">  2  4  1 -1</clus>
<clus scale="  170.115">  2  6  1 -1</clus>
<clus scale="  177.846">  1  3  2 -1</clus>
</clustering>
</event>
<event>
 6    0  0.2036847E+002  0.1008128E+03  0.7546771E-02  0.1278596E+00
         21   -1    0    0  506  501  0.00000000000E+00  0.00000000000E+00  0.27299390058E+03  0.27299390058E+03  0.00000000000E+00 0.  1.
         21   -1    0    0  505  502 -0.00000000000E+00 -0.00000000000E+00 -0.86861927011E+03  0.86861927011E+03  0.00000000000E+00 0. -1.
         21    1    1    2  503  502 -0.26647344969E+02 -0.22507151739E+02 -0.18919239985E+03  0.19238091650E+03  0.00000000000E+00 0.  1.
         21    1    1    2  504  501  0.15185191675E+02  0.32886079557E+02  0.72712230521E+01  0.36945296852E+02  0.00000000000E+00 0.  1.
         21    1    1    2  505  504 -0.47455336594E+02  0.90711243254E+02 -0.64500323975E+03  0.65307711483E+03  0.00000000000E+00 0. -1.
         21    1    1    2  506  503  0.58917489888E+02 -0.10109017107E+03  0.23129904702E+03  0.25920984251E+03  0.00000000000E+00 0.  1.
<scales pt_clust_3="34.88055" pt_clust_4="35.53237" pt_clust_5="100.81280" pt_clust_6="14000.00000"></scales>
<clustering>
<clus scale="   34.881">  2  3  1 -1</clus>
<clus scale="   35.532">  1  4  2 -1</clus>
<clus scale="  100.813">  2  5  1 -1</clus>
<clus scale="   35.532">  1  3  2 -1</clus>
</clustering>
</event>
<event>
 6    0  0.2036847E+002  0.7714026E+02  0.7546771E-02  0.1337369E+00
         21   -1    0    0  505  501  0.00000000000E+00  0.00000000000E+00  0.20750437125E+03  0.20750437125E+03  0.00000000000E+00 0.  1.
         21   -1    0    0  506  502 -0.00000000000E+00 -0.00000000000E+00 -0.11548585163E+03  0.11548585163E+03  0.00000000000E+00 0.  1.
         21    1    1    2  503  502 -0.69609670938E+02 -0.15990975358E+02 -0.38651585113E+02  0.81210606529E+02  0.00000000000E+00 0.  1.
         21    1    1    2  504  501 -0.35191210114E+02  0.40214217813E+00  0.15464562463E+02  0.38441327757E+02  0.00000000000E+00 0.  1.
         21    1    1    2  505  503  0.11437701553E+03 -0.32190762994E+02  0.82248081007E+02  0.14450983958E+03  0.00000000000E+00 0.  1.
         21    1    1    2  506  504 -0.95761344821E+01  0.47779596174E+02  0.32957461261E+02  0.58828449027E+02  0.00000000000E+00 0. -1.
<scales pt_clust_3="77.14026" pt_clust_4="35.19351" pt_clust_5="14000.00000" pt_clust_6="51.33907"></scales>
<clustering>
<clus scale="   35.194">  1  4  2 -1</clus>
<clus scale="   51.339">  1  6  2 -1</clus>
<clus scale="   77.140">  2  3  1 -1</clus>
<clus scale="   35.194">  1  3  2 -1</clus>
</clustering>
</event>
<event>
 6    0  0.2036847E+002  0.1238133E+03  0.7546771E-02  0.1236936E+00
         21   -1    0    0  503  501  0.00000000000E+00  0.00000000000E+00  0.48977548104E+03  0.48977548104E+03  0.00000000000E+00 0. -1.
         21   -1    0    0  504  502 -0.00000000000E+00 -0.00000000000E+00 -0.46756057815E+03  0.46756057815E+03  0.00000000000E+00 0. -1.
         21    1    1    2  503  505  0.23451949534E+02  0.16211634677E+03 -0.26214026027E+03  0.30911036845E+03  0.00000000000E+00 0. -1.
         21    1    1    2  504  506  0.89161101772E+01 -0.54738564568E+02  0.15677563710E+03  0.16629614505E+03  0.00000000000E+00 0. -1.
         21    1    1    2  505  502 -0.30645287424E+01 -0.50998076184E+02 -0.17006759171E+03  0.17757584538E+03  0.00000000000E+00 0.  1.
         21    1    1    2  506  501 -0.29303530969E+02 -0.56379706016E+02  0.29764711777E+03  0.30435370031E+03  0.00000000000E+00 0. -1.
<scales pt_clust_3="114.37401" pt_clust_4="44.29903" pt_clust_5="51.09007" pt_clust_6="44.29903"></scales>
<clustering>
<clus scale="   44.299">  4  6 -1 -1</clus>
<clus scale="   51.090">  2  5  1 -1</clus>
<clus scale="  114.374">  2  3  1 -1</clus>
<clus scale="  123.813">  1  3  2 -1</clus>
</clustering>
</event>
<event>
 6    0  0.2512266E+002  0.1132780E+03  0.7546771E-02  0.1254617E+00
         21   -1    0    0  504  501  0.00000000000E+00  0.00000000000E+00  0.11920754033E+04  0.11920754033E+04  0.00000000000E+00 0. -1.
         21   -1    0    0  505  502 -0.00000000000E+00 -0.00000000000E+00 -0.52018511545E+03  0.52018511545E+03  0.00000000000E+00 0.  1.
         21    1    1    2  503  502 -0.72847437503E+02  0.22793165716E+01 -0.44210603649E+03  0.44807331089E+03  0.00000000000E+00 0.  1.
         21    1    1    2  504  503  0.55823103070E+02 -0.34730575965E+02  0.10592832477E+04  0.10613215491E+04  0.00000000000E+00 0. -1.
         21    1    1    2  505  506 -0.28724796239E+02  0.68109406242E+02 -0.45698700440E+02  0.86904409321E+02  0.00000000000E+00 0.  1.
         21    1    1    2  506  501  0.45749130671E+02 -0.35658146848E+02  0.10041177702E+03  0.11596124938E+03  0.00000000000E+00 0. -1.
<scales pt_clust_3="72.75421" pt_clust_4="14000.00000" pt_clust_5="113.27797" pt_clust_6="58.00419"></scales>
<clustering>
<clus scale="   58.004">  1  6  2 -1</clus>
<clus scale="   72.754">  2  3  1 -1</clus>
<clus scale="  113.278">  2  5  1 -1</clus>
<clus scale="   58.004">  1  3  2 -1</clus>
</clustering>
</event>
<event>
 6    0  0.2036847E+002  0.8771615E+02  0.7546771E-02  0.1308479E+00
         21   -1    0    0  506  501  0.00000000000E+00  0.00000000000E+00  0.25556609030E+03  0.25556609030E+03  0.00000000000E+00 0.  1.
         21   -1    0    0  503  502 -0.00000000000E+00 -0.00000000000E+00 -0.99517578729E+03  0.99517578729E+03  0.00000000000E+00 0.  1.
         21    1    1    2  503  501  0.87833234109E+00  0.11362140990E+03  0.75484890639E+00  0.11362731208E+03  0.00000000000E+00 0.  1.
         21    1    1    2  504  505  0.45729205374E+01 -0.63295638444E+02 -0.14911027441E+03  0.16205284133E+03  0.00000000000E+00 0.  1.
         21    1    1    2  505  502 -0.12153699473E+02  0.32992263044E+02 -0.77363776727E+03  0.77443630905E+03  0.00000000000E+00 0. -1.
         21    1    1    2  506  504  0.67024465940E+01 -0.83318034494E+02  0.18238349578E+03  0.20062541513E+03  0.00000000000E+00 0.  1.
<scales pt_clust_3="14000.00000" pt_clust_4="40.28091" pt_clust_5="35.15966" pt_clust_6="87.71615"></scales>
<clustering>
<clus scale="   35.160">  2  5  1 -1</clus>
<clus scale="   40.281">  2  4  1 -1</clus>
<clus scale="   87.716">  1  6  2 -1</clus>
<clus scale="   87.716">  1  3  2 -1</clus>
</clustering>
</event>
<event>
 6    0  0.2036847E+002  0.7891072E+02  0.7546771E-02  0.1332171E+00
         21   -1    0    0  506  501  0.00000000000E+00  0.00000000000E+00  0.26593020383E+04  0.26593020383E+04  0.00000000000E+00 0. -1.
         21   -1    0    0  503  502 -0.00000000000E+00 -0.00000000000E+00 -0.78951764623E+01  0.78951764623E+01  0.00000000000E+00 0. -1.
         21    1    1    2  503  505 -0.62304294485E+02 -0.32355609235E+02  0.51866527190E+03  0.52339504663E+03  0.00000000000E+00 0. -1.
         21    1    1    2  504  502  0.56936886386E+02  0.71300694472E+02  0.52569616876E+03  0.53355605134E+03  0.00000000000E+00 0. -1.
         21    1    1    2  505  501 -0.40386847363E+02 -0.35827228791E+01  0.86561183593E+03  0.86656089448E+03  0.00000000000E+00 0. -1.
         21    1    1    2  506  504  0.45754255461E+02 -0.35362362358E+02  0.74143358525E+03  0.74368522233E+03  0.00000000000E+00 0. -1.
<scales pt_clust_3="78.91072" pt_clust_4="14000.00000" pt_clust_5="40.54545" pt_clust_6="46.90824"></scales>
<clustering>
<clus scale="   40.545">  1  5  2 -1</clus>
<clus scale="   46.908">  1  6  2 -1</clus>
<clus scale="   78.911">  2  3  1 -1</clus>
<clus scale="   40.545">  1  3  2 -1</clus>
</clustering>
</event>
<event>
 6    0  0.2036847E+002  0.8739877E+02  0.7546771E-02  0.1309276E+00
         21   -1    0    0  506  501  0.00000000000E+00  0.00000000000E+00  0.20347090105E+04  0.20347090105E+04  0.00000000000E+00 0. -1.
         21   -1    0    0  503  502 -0.00000000000E+00 -0.00000000000E+00 -0.43903625245E+03  0.43903625245E+03  0.00000000000E+00 0. -1.
         21    1    1    2  503  504 -0.39243614218E+01 -0.50068162176E+02 -0.36389515436E+03  0.36734439541E+03  0.00000000000E+00 0. -1.
         21    1    1    2  504  501  0.93215030685E+02  0.10196526823E+03  0.16718140672E+04  0.16775125135E+04  0.00000000000E+00 0. -1.
         21    1    1    2  505  502 -0.17885292182E+02 -0.35021960454E+02 -0.60957601867E+02  0.72541371753E+02  0.00000000000E+00 0. -1.
         21    1    1    2  506  505 -0.71405377082E+02 -0.16875145598E+02  0.34871144715E+03  0.35634698229E+03  0.00000000000E+00 0.  1.
<scales pt_clust_3="87.39877" pt_clust_4="14000.00000" pt_clust_5="39.32456" pt_clust_6="73.63407"></scales>
<clustering>
<clus scale="   39.325">  2  5  1 -1</clus>
<clus scale="   73.634">  1  6  2 -1</clus>
<clus scale="   87.399">  2  3  1 -1</clus>
<clus scale="   73.634">  1  3  2 -1</clus>
</clustering>
</event>
<event>
 6    0  0.2036847E+002  0.1196884E+03  0.7546771E-02  0.1243612E+00
         21   -1    0    0  504  501  0.00000000000E+00  0.00000000000E+00  0.67882076507E+02  0.67882076507E+02  0.00000000000E+00 0.  1.
         21   -1    0    0  503  502 -0.00000000000E+00 -0.00000000000E+00 -0.30229484004E+04  0.30229484004E+04  0.00000000000E+00 0.  1.
         21    1    1    2  503  506 -0.65959481349E+02  0.72254708036E+02 -0.60649003442E+03  0.61433017008E+03  0.00000000000E+00 0.  1.
         21    1    1    2  504  502  0.97710331198E+02  0.44651584067E+02 -0.23057128403E+04  0.23082141961E+04  0.00000000000E+00 0.  1.
         21    1    1    2  505  501 -0.27032697038E+02  0.14354125917E+02 -0.17527803130E+01  0.30657460410E+02  0.00000000000E+00 0.  1.
         21    1    1    2  506  505 -0.47181528104E+01 -0.13126041802E+03 -0.41110668796E+02  0.13762865034E+03  0.00000000000E+00 0.  1.
<scales pt_clust_3="99.95134" pt_clust_4="14000.00000" pt_clust_5="30.60731" pt_clust_6="119.68839"></scales>
<clustering>
<clus scale="   30.607">  1  5  2 -1</clus>
<clus scale="   99.951">  2  3  1 -1</clus>
<clus scale="  119.688">  1  6  2 -1</clus>
<clus scale="   30.607">  1  3  2 -1</clus>
</clustering>
</event>
<event>
 6    0  0.2036847E+002  0.9166869E+02  0.7546771E-02  0.1298860E+00
         21   -1    0    0  506  501  0.00000000000E+00  0.00000000000E+00  0.25685231963E+03  0.25685231963E+03  0.00000000000E+00 0. -1.
         21   -1    0    0  503  502 -0.00000000000E+00 -0.00000000000E+00 -0.10043886242E+03  0.10043886242E+03  0.00000000000E+00 0. -1.
         21    1    1    2  503  505 -0.79456865881E+01  0.82808051006E+02  0.55876170202E+02  0.10021204340E+03  0.00000000000E+00 0. -1.
         21    1    1    2  504  502  0.43626947399E+02  0.49509955209E+01 -0.20001350547E+02  0.48248076849E+02  0.00000000000E+00 0.  1.
         21    1    1    2  505  501 -0.60205724215E+02  0.93589596918E+01  0.80501015802E+02  0.10095906547E+03  0.00000000000E+00 0. -1.
         21    1    1    2  506  504  0.24524463404E+02 -0.97118006219E+02  0.40037621748E+02  0.10787199633E+03  0.00000000000E+00 0. -1.
<scales pt_clust_3="91.66869" pt_clust_4="43.90698" pt_clust_5="54.42586" pt_clust_6="14000.00000"></scales>
<clustering>
<clus scale="   43.907">  2  4  1 -1</clus>
<clus scale="   54.426">  1  5  2 -1</clus>
<clus scale="   91.669">  1  3  2 -1</clus>
<clus scale="   54.426">  1  3  2 -1</clus>
</clustering>
</event>
<event>
 6    0  0.2036847E+002  0.1615209E+03  0.7546771E-02  0.1186990E+00
         21   -1    0    0  505  501  0.00000000000E+00  0.00000000000E+00  0.38663349660E+03  0.38663349660E+03  0.00000000000E+00 0. -1.
         21   -1    0    0  504  502 -0.00000000000E+00 -0.00000000000E+00 -0.52586643082E+03  0.52586643082E+03  0.00000000000E+00 0. -1.
         21    1    1    2  503  501  0.10629672930E+02  0.19124610615E+03  0.31463504100E+03  0.36835210342E+03  0.00000000000E+00 0. -1.
         21    1    1    2  504  503 -0.27749414527E+02 -0.17858552372E+02 -0.10032051514E+03  0.10560853970E+03  0.00000000000E+00 0. -1.
         21    1    1    2  505  506 -0.22388121710E+02 -0.30289430811E+02  0.15517584891E+02  0.40736630364E+02  0.00000000000E+00 0. -1.
         21    1    1    2  506  502  0.39507863307E+02 -0.14309812297E+03 -0.36906504498E+03  0.39780265394E+03  0.00000000000E+00 0. -1.
<scales pt_clust_3="161.52094" pt_clust_4="32.99936" pt_clust_5="38.58692" pt_clust_6="14000.00000"></scales>
<clustering>
<clus scale="   32.999">  2  4  1 -1</clus>
<clus scale="   38.587">  1  5  2 -1</clus>
<clus scale="  161.521">  1  3  2 -1</clus>
<clus scale="   38.587">  1  3  2 -1</clus>
</clustering>
</event>
<event>
 6    0  0.2036847E+002  0.2237803E+03  0.7546771E-02  0.1131096E+00
         21   -1    0    0  504  501  0.00000000000E+00  0.00000000000E+00  0.75648997758E+03  0.75648997758E+03  0.00000000000E+00 0. -1.
         21   -1    0    0  506  502 -0.00000000000E+00 -0.00000000000E+00 -0.14821439153E+04  0.14821439153E+04  0.00000000000E+00 0.  1.
         21    1    1    2  503  501  0.89871629209E+02  0.21161496345E+03  0.56098944198E+03  0.60627300493E+03  0.00000000000E+00 0. -1.
         21    1    1    2  504  502 -0.39325053993E+02 -0.10205118858E+02 -0.81402720579E+03  0.81504042605E+03  0.00000000000E+00 0.  1.
         21    1    1    2  505  503 -0.11019111724E+03 -0.17693895171E+03  0.10687981201E+03  0.23424937388E+03  0.00000000000E+00 0. -1.
         21    1    1    2  506  505  0.59644542024E+02 -0.24470892887E+02 -0.57949598595E+03  0.58307108805E+03  0.00000000000E+00 0.  1.
<scales pt_clust_3="223.78033" pt_clust_4="40.62763" pt_clust_5="14000.00000" pt_clust_6="41.92897"></scales>
<clustering>
<clus scale="   40.628">  2  4  1 -1</clus>
<clus scale="   41.929">  2  6  1 -1</clus>
<clus scale="  223.780">  1  3  2 -1</clus>
<clus scale="  223.780">  1  3  2 -1</clus>
</clustering>
</event>
<event>
 6    0  0.2036847E+002  0.1972563E+03  0.7546771E-02  0.1152075E+00
         21   -1    0    0  504  501  0.00000000000E+00  0.00000000000E+00  0.49627308851E+03  0.49627308851E+03  0.00000000000E+00 0.  1.
         21   -1    0    0  506  502 -0.00000000000E+00 -0.00000000000E+00 -0.10300206123E+03  0.10300206123E+03  0.00000000000E+00 0.  1.
         21    1    1    2  503  501  0.99700900541E+02 -0.88387566229E+02  0.15964161126E+03  0.20793767210E+03  0.00000000000E+00 0.  1.
         21    1    1    2  504  502 -0.16974917370E+03  0.45089707361E+02  0.16849072951E+03  0.24338650253E+03  0.00000000000E+00 0.  1.
         21    1    1    2  505  503  0.74784262404E+02 -0.84991489288E+01  0.58884791369E+02  0.95563277939E+02  0.00000000000E+00 0.  1.
         21    1    1    2  506  505 -0.47359892418E+01  0.51797007797E+02  0.62538951327E+01  0.52387697173E+02  0.00000000000E+00 0.  1.
<scales pt_clust_3="50.56904" pt_clust_4="185.42690" pt_clust_5="50.56904" pt_clust_6="52.01307"></scales>
<clustering>
<clus scale="   50.569">  3  5 -1 -1</clus>
<clus scale="   52.013">  2  6  1 -1</clus>
<clus scale="  185.427">  1  4  2 -1</clus>
<clus scale="  185.427">  1  3  2 -1</clus>
</clustering>
</event>
<event>
 6    0  0.2036847E+002  0.1819527E+03  0.7546771E-02  0.1165927E+00
         21   -1    0    0  506  501  0.00000000000E+00  0.00000000000E+00  0.43481522884E+03  0.43481522884E+03  0.00000000000E+00 0. -1.
         21   -1    0    0  503  502 -0.00000000000E+00 -0.00000000000E+00 -0.37586746284E+03  0.37586746284E+03  0.00000000000E+00 0. -1.
         21    1    1    2  503  504  0.12826588451E+03  0.97262989622E+02 -0.18043525572E+03  0.24180386222E+03  0.00000000000E+00 0. -1.
         21    1    1    2  504  505  0.66117755729E+02  0.40326079956E+02  0.16482158733E+03  0.18210959886E+03  0.00000000000E+00 0.  1.
         21    1    1    2  505  501 -0.12321064094E+02  0.54538235918E+02  0.10637697446E+03  0.12017607288E+03  0.00000000000E+00 0. -1.
         21    1    1    2  506  502 -0.18206257614E+03 -0.19212730550E+03 -0.31815540065E+02  0.26659315771E+03  0.00000000000E+00 0. -1.
<scales pt_clust_3="181.95268" pt_clust_4="91.66049" pt_clust_5="55.91268" pt_clust_6="14000.00000"></scales>
<clustering>
<clus scale="   55.913">  1  5  2 -1</clus>
<clus scale="   91.660">  1  4  2 -1</clus>
<clus scale="  181.953">  2  3  1 -1</clus>
<clus scale="   55.913">  1  3  2 -1</clus>
</clustering>
</event>
<event>
 6    0  0.2036847E+002  0.2098033E+03  0.7546771E-02  0.1141722E+00
         21   -1    0    0  506  501  0.00000000000E+00  0.00000000000E+00  0.14831121605E+04  0.14831121605E+04  0.00000000000E+00 0. -1.
         21   -1    0    0  505  502 -0.00000000000E+00 -0.00000000000E+00 -0.52809878296E+03  0.52809878296E+03  0.00000000000E+00 0. -1.
         21    1    1    2  503  502  0.13715429801E+03 -0.22620848385E+02 -0.43539877588E+03  0.45705043297E+03  0.00000000000E+00 0. -1.
         21    1    1    2  504  501 -0.16524569360E+02 -0.43324637397E+02  0.55503223417E+02  0.72323532877E+02  0.00000000000E+00 0. -1.
         21    1    1    2  505  504  0.74171779749E+02 -0.15590661521E+01 -0.44895643332E+02  0.86715064370E+02  0.00000000000E+00 0. -1.
         21    1    1    2  506  503 -0.19480150840E+03  0.67504551935E+02  0.13798045733E+04  0.13951219132E+04  0.00000000000E+00 0. -1.
<scales pt_clust_3="209.80327" pt_clust_4="46.36902" pt_clust_5="73.96097" pt_clust_6="14000.00000"></scales>
<clustering>
<clus scale="   46.369">  1  4  2 -1</clus>
<clus scale="   73.961">  2  5  1 -1</clus>
<clus scale="  209.803">  2  3  1 -1</clus>
<clus scale="   46.369">  1  3  2 -1</clus>
</clustering>
</event>
<event>
 6    0  0.2036847E+002  0.6103850E+02  0.7546771E-02  0.1393525E+00
         21   -1    0    0  506  501  0.00000000000E+00  0.00000000000E+00  0.88553273458E+02  0.88553273458E+02  0.00000000000E+00 0.  1.
         21   -1    0    0  503  502 -0.00000000000E+00 -0.00000000000E+00 -0.10337076292E+04  0.10337076292E+04  0.00000000000E+00 0.  1.
         21    1    1    2  503  505  0.51464663903E+02  0.46334441764E+01 -0.51659788534E+03  0.51917574633E+03  0.00000000000E+00 0.  1.
         21    1    1    2  504  502 -0.10374469186E+02 -0.53211253438E+02 -0.44758055108E+03  0.45085187901E+03  0.00000000000E+00 0.  1.
         21    1    1    2  505  501 -0.91639444166E+02  0.25135194999E+02  0.16575959285E+02  0.96458945572E+02  0.00000000000E+00 0.  1.
         21    1    1    2  506  504  0.50549249448E+02  0.23442614262E+02  0.24481213962E+01  0.55774331745E+02  0.00000000000E+00 0.  1.
<scales pt_clust_3="51.67282" pt_clust_4="61.03850" pt_clust_5="14000.00000" pt_clust_6="58.24167"></scales>
<clustering>
<clus scale="   51.673">  2  3  1 -1</clus>
<clus scale="   58.242">  1  6  2 -1</clus>
<clus scale="   61.039">  2  4  1 -1</clus>
<clus scale="   58.242">  1  3  2 -1</clus>
</clustering>
</event>
<event>
 6    0  0.2036847E+002  0.8454129E+02  0.7546771E-02  0.1316636E+00
         21   -1    0    0  503  501  0.00000000000E+00  0.00000000000E+00  0.14181085126E+02  0.14181085126E+02  0.00000000000E+00 0. -1.
         21   -1    0    0  505  502 -0.00000000000E+00 -0.00000000000E+00 -0.21311979589E+04  0.21311979589E+04  0.00000000000E+00 0. -1.
         21    1    1    2  503  504 -0.44027357365E+02 -0.29257634852E+02 -0.96463163256E+02  0.10999799661E+03  0.00000000000E+00 0. -1.
         21    1    1    2  504  506  0.11620114630E+03  0.57585346406E+02 -0.13782237791E+04  0.13843119460E+04  0.00000000000E+00 0. -1.
         21    1    1    2  505  501 -0.46929706088E+02  0.18795526650E+02 -0.24519874166E+03  0.25035593072E+03  0.00000000000E+00 0. -1.
         21    1    1    2  506  502 -0.25244082847E+02 -0.47123238205E+02 -0.39713118974E+03  0.40071317069E+03  0.00000000000E+00 0. -1.
<scales pt_clust_3="14000.00000" pt_clust_4="84.54129" pt_clust_5="50.55363" pt_clust_6="54.87318"></scales>
<clustering>
<clus scale="   50.554">  1  5  2 -1</clus>
<clus scale="   54.873">  2  6  1 -1</clus>
<clus scale="   84.541">  2  4  1 -1</clus>
<clus scale="   50.554">  1  3  2 -1</clus>
</clustering>
</event>
<event>
 6    0  0.2036847E+002  0.1224203E+03  0.7546771E-02  0.1239157E+00
         21   -1    0    0  505  501  0.00000000000E+00  0.00000000000E+00  0.52496661450E+03  0.52496661450E+03  0.00000000000E+00 0. -1.
         21   -1    0    0  504  502 -0.00000000000E+00 -0.00000000000E+00 -0.59803805178E+03  0.59803805178E+03  0.00000000000E+00 0. -1.
         21    1    1    2  503  506  0.53852367840E+02 -0.34518742706E+02 -0.30461719512E+03  0.31126075352E+03  0.00000000000E+00 0.  1.
         21    1    1    2  504  501 -0.12428958795E+03  0.91244104941E+02  0.46797106582E+03  0.49271726862E+03  0.00000000000E+00 0. -1.
         21    1    1    2  505  503  0.12863021587E+02 -0.63015491585E+02  0.10705610083E+02  0.65199843491E+02  0.00000000000E+00 0. -1.
         21    1    1    2  506  502  0.57574198520E+02  0.62901293492E+01 -0.24713091806E+03  0.25382680064E+03  0.00000000000E+00 0. -1.
<scales pt_clust_3="39.06230" pt_clust_4="115.33209" pt_clust_5="64.31492" pt_clust_6="39.06230"></scales>
<clustering>
<clus scale="   39.062">  3  6 -1 -1</clus>
<clus scale="   64.315">  1  5  2 -1</clus>
<clus scale="  115.332">  1  4  2 -1</clus>
<clus scale="   64.315">  1  3  2 -1</clus>
</clustering>
</event>
<event>
 6    0  0.2036847E+002  0.1567130E+03  0.7546771E-02  0.1192458E+00
         21   -1    0    0  504  501  0.00000000000E+00  0.00000000000E+00  0.13348500629E+04  0.13348500629E+04  0.00000000000E+00 0.  1.
         21   -1    0    0  506  502 -0.00000000000E+00 -0.00000000000E+00 -0.32271682290E+03  0.32271682290E+03  0.00000000000E+00 0. -1.
         21    1    1    2  503  502  0.77546967674E+02 -0.35779090437E+02 -0.53391479784E+02  0.10071904299E+03  0.00000000000E+00 0. -1.
         21    1    1    2  504  503 -0.13193696304E+03 -0.23112964567E+02  0.78826814865E+03  0.79956753656E+03  0.00000000000E+00 0.  1.
         21    1    1    2  505  501 -0.28066834400E+02  0.12007337456E+02  0.50742002928E+03  0.50833749563E+03  0.00000000000E+00 0.  1.
         21    1    1    2  506  505  0.82456829763E+02  0.46884717547E+02 -0.23016345812E+03  0.24894281064E+03  0.00000000000E+00 0. -1.
<scales pt_clust_3="84.52982" pt_clust_4="156.71302" pt_clust_5="30.52742" pt_clust_6="14000.00000"></scales>
<clustering>
<clus scale="   30.527">  1  5  2 -1</clus>
<clus scale="   84.530">  2  3  1 -1</clus>
<clus scale="  156.713">  1  4  2 -1</clus>
<clus scale="   30.527">  1  3  2 -1</clus>
</clustering>
</event>
<event>
 6    0  0.2036847E+002  0.1027231E+03  0.7546771E-02  0.1274672E+00
         21   -1    0    0  503  501  0.00000000000E+00  0.00000000000E+00  0.44923258229E+03  0.44923258229E+03  0.00000000000E+00 0. -1.
         21   -1    0    0  506  502 -0.00000000000E+00 -0.00000000000E+00 -0.64702878316E+03  0.64702878316E+03  0.00000000000E+00 0.  1.
         21    1    1    2  503  504 -0.71364979250E+02 -0.64393315503E+02  0.36471674150E+03  0.37717073174E+03  0.00000000000E+00 0. -1.
         21    1    1    2  504  502 -0.51004389252E+02  0.23026634611E+02 -0.19764015768E+02  0.59348883256E+02  0.00000000000E+00 0.  1.
         21    1    1    2  505  501  0.30751547962E+02 -0.31041530413E+02  0.43689236522E+02  0.61789834927E+02  0.00000000000E+00 0.  1.
         21    1    1    2  506  505  0.91617820540E+02  0.72408211306E+02 -0.58643816313E+03  0.59795191553E+03  0.00000000000E+00 0.  1.
<scales pt_clust_3="14000.00000" pt_clust_4="53.93030" pt_clust_5="43.69479" pt_clust_6="102.72313"></scales>
<clustering>
<clus scale="   43.695">  1  5  2 -1</clus>
<clus scale="   53.930">  2  4  1 -1</clus>
<clus scale="  102.723">  2  6  1 -1</clus>
<clus scale="   43.695">  1  3  2 -1</clus>
</clustering>
</event>
<event>
 6    0  0.2036847E+002  0.1111448E+03  0.7546771E-02  0.1258464E+00
         21   -1    0    0  503  501  0.00000000000E+00  0.00000000000E+00  0.82485253232E+03  0.82485253232E+03  0.00000000000E+00 0. -1.
         21   -1    0    0  506  502 -0.00000000000E+00 -0.00000000000E+00 -0.35024605378E+02  0.35024605378E+02  0.00000000000E+00 0. -1.
         21    1    1    2  503  504 -0.36822055697E+01 -0.59942846447E+02  0.34213041378E+03  0.34736137308E+03  0.00000000000E+00 0.  1.
         21    1    1    2  504  502 -0.69284507406E+02 -0.19657050351E+02  0.34759045819E+03  0.35497305421E+03  0.00000000000E+00 0. -1.
         21    1    1    2  505  501  0.71582397483E+02  0.40119735137E+02  0.70309784582E+02  0.10806062458E+03  0.00000000000E+00 0. -1.
         21    1    1    2  506  505  0.13843154928E+01  0.39480161662E+02  0.29797270396E+02  0.49482085822E+02  0.00000000000E+00 0. -1.
<scales pt_clust_3="60.05584" pt_clust_4="95.99570" pt_clust_5="38.86752" pt_clust_6="38.86752"></scales>
<clustering>
<clus scale="   38.868">  5  6 -1 -1</clus>
<clus scale="   60.056">  1  3  2 -1</clus>
<clus scale="   95.996">  1  4  2 -1</clus>
<clus scale="   60.056">  1  3  2 -1</clus>
</clustering>
</event>
<event>
 6    0  0.2036847E+002  0.1183910E+03  0.7546771E-02  0.1245775E+00
         21   -1    0    0  503  501  0.00000000000E+00  0.00000000000E+00  0.29428429801E+03  0.29428429801E+03  0.00000000000E+00 0.  1.
         21   -1    0    0  504  502 -0.00000000000E+00 -0.00000000000E+00 -0.12962359778E+04  0.12962359778E+04  0.00000000000E+00 0.  1.
         21    1    1    2  503  505 -0.13165425429E+02  0.73463135936E+02  0.77663092932E+02  0.10771126576E+03  0.00000000000E+00 0.  1.
         21    1    1    2  504  506 -0.32074095510E+02 -0.51131157251E+02 -0.23518887543E+03  0.24281052278E+03  0.00000000000E+00 0.  1.
         21    1    1    2  505  502 -0.42424671665E+02 -0.45169059955E+02 -0.10308597264E+04  0.10327206168E+04  0.00000000000E+00 0.  1.
         21    1    1    2  506  501  0.87664192605E+02  0.22837081271E+02  0.18643382915E+03  0.20727787049E+03  0.00000000000E+00 0.  1.
<scales pt_clust_3="74.00094" pt_clust_4="60.35845" pt_clust_5="118.39101" pt_clust_6="14000.00000"></scales>
<clustering>
<clus scale="   60.358">  2  4  1 -1</clus>
<clus scale="   74.001">  1  3  2 -1</clus>
<clus scale="  118.391">  2  5  1 -1</clus>
<clus scale="   74.001">  1  3  2 -1</clus>
</clustering>
</event>
<event>
 6    0  0.2036847E+002  0.6096830E+02  0.7546771E-02  0.1393813E+00
         21   -1    0    0  505  501  0.00000000000E+00  0.00000000000E+00  0.55054638510E+03  0.55054638510E+03  0.00000000000E+00 0.  1.
         21   -1    0    0  504  502 -0.00000000000E+00 -0.00000000000E+00 -0.10156178171E+03  0.10156178171E+03  0.00000000000E+00 0. -1.
         21    1    1    2  503  501 -0.20382805262E+02 -0.57862670235E+02  0.28072115383E+03  0.28734633035E+03  0.00000000000E+00 0.  1.
         21    1    1    2  504  503 -0.14308077504E+02 -0.59265614518E+02 -0.29316763498E+02  0.67650622821E+02  0.00000000000E+00 0. -1.
         21    1    1    2  505  506  0.51437568388E+02  0.38940290775E+02  0.20679106374E+03  0.21662112946E+03  0.00000000000E+00 0. -1.
         21    1    1    2  506  502 -0.16746685622E+02  0.78187993978E+02 -0.92108506766E+01  0.80490084183E+02  0.00000000000E+00 0. -1.
<scales pt_clust_3="60.04971" pt_clust_4="60.96830" pt_clust_5="14000.00000" pt_clust_6="40.27019"></scales>
<clustering>
<clus scale="   60.968">  2  4  1 -1</clus>
<clus scale="   40.270">  2  6  1 -1</clus>
<clus scale="   60.050">  1  3  2 -1</clus>
<clus scale="   60.050">  1  3  2 -1</clus>
</clustering>
</event>
<event>
 6    0  0.2036847E+002  0.9219590E+02  0.7546771E-02  0.1297619E+00
         21   -1    0    0  506  501  0.00000000000E+00  0.00000000000E+00  0.56485030673E+03  0.56485030673E+03  0.00000000000E+00 0.  1.
         21   -1    0    0  505  502 -0.00000000000E+00 -0.00000000000E+00 -0.31345079286E+03  0.31345079286E+03  0.00000000000E+00 0.  1.
         21    1    1    2  503  501 -0.28094987130E+02 -0.39712612939E+02  0.17962281787E+03  0.18609346207E+03  0.00000000000E+00 0.  1.
         21    1    1    2  504  502 -0.12847184898E+02  0.15748376020E+03 -0.14015754285E+03  0.21121155675E+03  0.00000000000E+00 0.  1.
         21    1    1    2  505  503  0.13818903199E+02 -0.64530651985E+02 -0.12363667825E+03  0.14014704899E+03  0.00000000000E+00 0.  1.
         21    1    1    2  506  504  0.27123268829E+02 -0.53240495277E+02  0.33557091711E+03  0.34084903177E+03  0.00000000000E+00 0.  1.
<scales pt_clust_3="48.64586" pt_clust_4="92.19590" pt_clust_5="66.71023" pt_clust_6="14000.00000"></scales>
<clustering>
<clus scale="   48.646">  1  3  2 -1</clus>
<clus scale="   66.710">  2  5  1 -1</clus>
<clus scale="   92.196">  2  4  1 -1</clus>
<clus scale="   48.646">  1  3  2 -1</clus>
</clustering>
</event>
<event>
 6    0  0.2036847E+002  0.9953274E+02  0.7546771E-02  0.1281282E+00
         21   -1    0    0  505  501  0.00000000000E+00  0.00000000000E+00  0.10176335387E+04  0.10176335387E+04  0.00000000000E+00 0.  1.
         21   -1    0    0  504  502 -0.00000000000E+00 -0.00000000000E+00 -0.34510999322E+03  0.34510999322E+03  0.00000000000E+00 0.  1.
         21    1    1    2  503  502  0.19810499311E+02 -0.62433120145E+02 -0.14201592617E+03  0.15639332998E+03  0.00000000000E+00 0.  1.
         21    1    1    2  504  506  0.40365591436E+02 -0.18352399401E+02 -0.18522830006E+03  0.19046184573E+03  0.00000000000E+00 0.  1.
         21    1    1    2  505  503 -0.84370905975E+02  0.10330871754E+03  0.91882528645E+03  0.92845627140E+03  0.00000000000E+00 0.  1.
         21    1    1    2  506  501  0.24194815228E+02 -0.22523197990E+02  0.80942485287E+02  0.87432084820E+02  0.00000000000E+00 0.  1.
<scales pt_clust_3="14000.00000" pt_clust_4="44.42965" pt_clust_5="99.53274" pt_clust_6="33.05576"></scales>
<clustering>
<clus scale="   33.056">  1  6  2 -1</clus>
<clus scale="   44.430">  2  4  1 -1</clus>
<clus scale="   99.533">  1  5  2 -1</clus>
<clus scale="   33.056">  1  3  2 -1</clus>
</clustering>
</event>
<event>
 6    0  0.2036847E+002  0.1467742E+03  0.7546771E-02  0.1204494E+00
         21   -1    0    0  506  501  0.00000000000E+00  0.00000000000E+00  0.70353692794E+02  0.70353692794E+02  0.00000000000E+00 0. -1.
         21   -1    0    0  504  502 -0.00000000000E+00 -0.00000000000E+00 -0.16693033563E+04  0.16693033563E+04  0.00000000000E+00 0. -1.
         21    1    1    2  503  505  0.92171596166E+02 -0.11711082188E+03 -0.57496751660E+03  0.59396817498E+03  0.00000000000E+00 0. -1.
         21    1    1    2  504  501 -0.38939231037E+02  0.11945390563E+03 -0.10910519425E+03  0.16640145040E+03  0.00000000000E+00 0. -1.
         21    1    1    2  505  502  0.96376054962E+02  0.41259034242E+02 -0.73002717792E+03  0.73751632685E+03  0.00000000000E+00 0. -1.
         21    1    1    2  506  503 -0.14960842009E+03 -0.43602117989E+02 -0.18484977472E+03  0.24177109684E+03  0.00000000000E+00 0. -1.
<scales pt_clust_3="14000.00000" pt_clust_4="127.94545" pt_clust_5="104.83631" pt_clust_6="146.77415"></scales>
<clustering>
<clus scale="  104.836">  2  5  1 -1</clus>
<clus scale="  127.945">  1  4  2 -1</clus>
<clus scale="  146.774">  1  6  2 -1</clus>
<clus scale="  127.945">  1  3  2 -1</clus>
</clustering>
</event>
<event>
 6    0  0.2036847E+002  0.1058950E+03  0.7546771E-02  0.1268366E+00
         21   -1    0    0  505  501  0.00000000000E+00  0.00000000000E+00  0.36078522680E+03  0.36078522680E+03  0.00000000000E+00 0.  1.
         21   -1    0    0  503  502 -0.00000000000E+00 -0.00000000000E+00 -0.16608588060E+03  0.16608588060E+03  0.00000000000E+00 0. -1.
         21    1    1    2  503  504 -0.22877822640E+02  0.74652012777E+02 -0.11902581336E+03  0.14234978758E+03  0.00000000000E+00 0. -1.
         21    1    1    2  504  501  0.72775187007E+02 -0.74672426807E+02  0.21499101450E+03  0.23894211744E+03  0.00000000000E+00 0.  1.
         21    1    1    2  505  506 -0.28986094314E+02 -0.27726936508E+02  0.10303662829E+03  0.11056908899E+03  0.00000000000E+00 0.  1.
         21    1    1    2  506  502 -0.20911270054E+02  0.27747350539E+02 -0.43024832319E+01  0.35010113384E+02  0.00000000000E+00 0.  1.
<scales pt_clust_3="14000.00000" pt_clust_4="105.89498" pt_clust_5="40.01724" pt_clust_6="34.74474"></scales>
<clustering>
<clus scale="   34.745">  2  6  1 -1</clus>
<clus scale="   40.017">  1  5  2 -1</clus>
<clus scale="  105.895">  1  4  2 -1</clus>
<clus scale="   40.017">  1  3  2 -1</clus>
</clustering>
</event>
<event>
 6    0  0.2036847E+002  0.9669908E+02  0.7546771E-02  0.1287395E+00
         21   -1    0    0  505  501  0.00000000000E+00  0.00000000000E+00  0.67459189479E+02  0.67459189479E+02  0.00000000000E+00 0. -1.
         21   -1    0    0  504  502 -0.00000000000E+00 -0.00000000000E+00 -0.30604328073E+03  0.30604328073E+03  0.00000000000E+00 0. -1.
         21    1    1    2  503  506  0.10119479125E+02 -0.45114061327E+02 -0.10478837613E+03  0.11453508703E+03  0.00000000000E+00 0. -1.
         21    1    1    2  504  501  0.58109143630E+01 -0.42645851587E+02 -0.83320398603E+01  0.43839003999E+02  0.00000000000E+00 0. -1.
         21    1    1    2  505  503  0.56731741584E+01  0.12293692656E+03 -0.58031643145E+02  0.13606375132E+03  0.00000000000E+00 0. -1.
         21    1    1    2  506  502 -0.21603567646E+02 -0.35177013648E+02 -0.67432032109E+02  0.79064627860E+02  0.00000000000E+00 0. -1.
<scales pt_clust_3="33.30642" pt_clust_4="43.03993" pt_clust_5="90.04594" pt_clust_6="33.30642"></scales>
<clustering>
<clus scale="   33.306">  3  6 -1 -1</clus>
<clus scale="   43.040">  1  4  2 -1</clus>
<clus scale="   90.046">  1  5  2 -1</clus>
<clus scale="   43.040">  1  3  2 -1</clus>
</clustering>
</event>
<event>
 6    0  0.2036847E+002  0.8396702E+02  0.7546771E-02  0.1318156E+00
         21   -1    0    0  504  501  0.00000000000E+00  0.00000000000E+00  0.70490079852E+03  0.70490079852E+03  0.00000000000E+00 0.  1.
         21   -1    0    0  505  502 -0.00000000000E+00 -0.00000000000E+00 -0.11133115461E+04  0.11133115461E+04  0.00000000000E+00 0.  1.
         21    1    1    2  503  501 -0.60685610361E+02  0.12530526180E+02  0.49480115131E+03  0.49866615759E+03  0.00000000000E+00 0.  1.
         21    1    1    2  504  502  0.84910900399E+02  0.24221367856E+00 -0.10189643697E+04  0.10224961156E+04  0.00000000000E+00 0.  1.
         21    1    1    2  505  506 -0.73554450007E+02  0.30744527302E+02 -0.66167011012E+02  0.10360287844E+03  0.00000000000E+00 0. -1.
         21    1    1    2  506  503  0.49329159968E+02 -0.43517267161E+02  0.18191948189E+03  0.19344719294E+03  0.00000000000E+00 0.  1.
<scales pt_clust_3="61.96578" pt_clust_4="14000.00000" pt_clust_5="83.96702" pt_clust_6="32.66665"></scales>
<clustering>
<clus scale="   61.966">  1  3  2 -1</clus>
<clus scale="   32.667">  1  6  2 -1</clus>
<clus scale="   83.967">  1  5  2 -1</clus>
<clus scale="   61.966">  1  3  2 -1</clus>
</clustering>
</event>
<event>
 6    0  0.2036847E+002  0.7978515E+02  0.7546771E-02  0.1329662E+00
         21   -1    0    0  506  501  0.00000000000E+00  0.00000000000E+00  0.16464323554E+04  0.16464323554E+04  0.00000000000E+00 0.  1.
         21   -1    0    0  503  502 -0.00000000000E+00 -0.00000000000E+00 -0.30012549013E+03  0.30012549013E+03  0.00000000000E+00 0.  1.
         21    1    1    2  503  501  0.66853769500E+02 -0.22130436432E+02 -0.19780219643E+03  0.20996402459E+03  0.00000000000E+00 0.  1.
         21    1    1    2  504  505  0.48219355987E+02  0.51960448827E+02  0.34306634027E+03  0.35031344302E+03  0.00000000000E+00 0.  1.
         21    1    1    2  505  502 -0.26722064728E+02 -0.19169562940E+02 -0.88116356738E+02  0.94053353005E+02  0.00000000000E+00 0.  1.
         21    1    1    2  506  504 -0.88351060759E+02 -0.10660449455E+02  0.12891590781E+04  0.12922270249E+04  0.00000000000E+00 0.  1.
<scales pt_clust_3="57.71268" pt_clust_4="79.78515" pt_clust_5="32.88679" pt_clust_6="14000.00000"></scales>
<clustering>
<clus scale="   32.887">  2  5  1 -1</clus>
<clus scale="   57.713">  2  3  1 -1</clus>
<clus scale="   79.785">  2  4  1 -1</clus>
<clus scale="   79.785">  1  3  2 -1</clus>
</clustering>
</event>
<event>
 6    0  0.2036847E+002  0.9398752E+02  0.7546771E-02  0.1293473E+00
         21   -1    0    0  503  501  0.00000000000E+00  0.00000000000E+00  0.19129164957E+03  0.19129164957E+03  0.00000000000E+00 0.  1.
         21   -1    0    0  505  502 -0.00000000000E+00 -0.00000000000E+00 -0.88925356751E+03  0.88925356751E+03  0.00000000000E+00 0. -1.
         21    1    1    2  503  502 -0.57633497851E+01  0.96226573957E+02  0.67268571100E+02  0.11754926794E+03  0.00000000000E+00 0.  1.
         21    1    1    2  504  506  0.45107839354E+02 -0.38408683121E+02 -0.15919713053E+03  0.16986368205E+03  0.00000000000E+00 0. -1.
         21    1    1    2  505  504  0.95200861266E+01 -0.51278144320E+02 -0.69203745029E+03  0.69399993712E+03  0.00000000000E+00 0. -1.
         21    1    1    2  506  501 -0.48864575696E+02 -0.65397465156E+01  0.86004091777E+02  0.99132329968E+02  0.00000000000E+00 0.  1.
<scales pt_clust_3="14000.00000" pt_clust_4="93.98752" pt_clust_5="52.13194" pt_clust_6="49.30025"></scales>
<clustering>
<clus scale="   49.300">  1  6  2 -1</clus>
<clus scale="   52.132">  2  5  1 -1</clus>
<clus scale="   93.988">  2  4  1 -1</clus>
<clus scale="   49.300">  1  3  2 -1</clus>
</clustering>
</event>
<event>
 6    0  0.2036847E+002  0.3099445E+03  0.7546771E-02  0.1080372E+00
         21   -1    0    0  503  501  0.00000000000E+00  0.00000000000E+00  0.89961845229E+03  0.89961845229E+03  0.00000000000E+00 0. -1.
         21   -1    0    0  505  502 -0.00000000000E+00 -0.00000000000E+00 -0.13454232282E+03  0.13454232282E+03  0.00000000000E+00 0. -1.
         21    1    1    2  503  506  0.22434499446E+03 -0.61269688797E+02  0.56255737779E+03  0.60873266268E+03  0.00000000000E+00 0. -1.
         21    1    1    2  504  501 -0.47763369099E+02  0.36969028231E+02  0.53778308556E+02  0.80871224469E+02  0.00000000000E+00 0. -1.
         21    1    1    2  505  504 -0.21910988954E+03  0.75823669749E+02  0.71934943074E+02  0.24276121730E+03  0.00000000000E+00 0. -1.
         21    1    1    2  506  502  0.42528264177E+02 -0.51523009183E+02  0.76805500051E+02  0.10179567067E+03  0.00000000000E+00 0. -1.
<scales pt_clust_3="59.01110" pt_clust_4="36.05623" pt_clust_5="298.21827" pt_clust_6="59.01110"></scales>
<clustering>
<clus scale="   36.056">  4  5 -1 -1</clus>
<clus scale="   59.011">  3  6 -1 -1</clus>
<clus scale="  298.218">  2  4  1 -1</clus>
<clus scale="  309.945">  1  3  2 -1</clus>
</clustering>
</event>
<event>
 6    0  0.2036847E+002  0.1393515E+03  0.7546771E-02  0.1214204E+00
         21   -1    0    0  504  501  0.00000000000E+00  0.00000000000E+00  0.77701137507E+03  0.77701137507E+03  0.00000000000E+00 0. -1.
         21   -1    0    0  505  502 -0.00000000000E+00 -0.00000000000E+00 -0.47220164939E+02  0.47220164939E+02  0.00000000000E+00 0. -1.
         21    1    1    2  503  506  0.41460922848E+02 -0.13230579606E+03  0.23151143209E+03  0.26985435884E+03  0.00000000000E+00 0. -1.
         21    1    1    2  504  502  0.35550402329E+02  0.14341894554E+03  0.34254243742E+03  0.37305247148E+03  0.00000000000E+00 0. -1.
         21    1    1    2  505  503 -0.34217688995E+02 -0.27946032324E+02  0.54686054561E+02  0.70302172983E+02  0.00000000000E+00 0.  1.
         21    1    1    2  506  501 -0.42793636183E+02  0.16832882842E+02  0.10105128606E+03  0.11102253671E+03  0.00000000000E+00 0. -1.
<scales pt_clust_3="139.35154" pt_clust_4="14000.00000" pt_clust_5="44.17953" pt_clust_6="48.96252"></scales>
<clustering>
<clus scale="   44.180">  2  5  1 -1</clus>
<clus scale="   48.963">  1  6  2 -1</clus>
<clus scale="  139.352">  2  3  1 -1</clus>
<clus scale="   48.963">  1  3  2 -1</clus>
</clustering>
</event>
<event>
 6    0  0.2036847E+002  0.9243812E+02  0.7546771E-02  0.1297053E+00
         21   -1    0    0  506  501  0.00000000000E+00  0.00000000000E+00  0.22324562663E+04  0.22324562663E+04  0.00000000000E+00 0. -1.
         21   -1    0    0  505  502 -0.00000000000E+00 -0.00000000000E+00 -0.41083700409E+02  0.41083700409E+02  0.00000000000E+00 0. -1.
         21    1    1    2  503  502  0.57023966033E+01 -0.37587951304E+02  0.96104772784E+02  0.10335133653E+03  0.00000000000E+00 0. -1.
         21    1    1    2  504  501  0.14326459513E+02  0.73412682183E+02  0.28376395909E+03  0.29345639169E+03  0.00000000000E+00 0.  1.
         21    1    1    2  505  504 -0.18143277140E+02  0.61619369709E+02  0.16500266277E+01  0.64256111123E+02  0.00000000000E+00 0. -1.
         21    1    1    2  506  503 -0.18855789763E+01 -0.97444100589E+02  0.18098538074E+04  0.18124761274E+04  0.00000000000E+00 0. -1.
<scales pt_clust_3="38.01804" pt_clust_4="14000.00000" pt_clust_5="33.03945" pt_clust_6="92.43812"></scales>
<clustering>
<clus scale="   38.018">  2  3  1 -1</clus>
<clus scale="   33.039">  2  5  1 -1</clus>
<clus scale="   92.438">  1  6  2 -1</clus>
<clus scale="   92.438">  1  3  2 -1</clus>
</clustering>
</event>
<event>
 6    0  0.2036847E+002  0.1511368E+03  0.7546771E-02  0.1199083E+00
         21   -1    0    0  504  501  0.00000000000E+00  0.00000000000E+00  0.11849244058E+03  0.11849244058E+03  0.00000000000E+00 0.  1.
         21   -1    0    0  505  502 -0.00000000000E+00 -0.00000000000E+00 -0.15343985903E+04  0.15343985903E+04  0.00000000000E+00 0.  1.
         21    1    1    2  503  502  0.34958504815E+01 -0.37885900666E+02 -0.18525604324E+03  0.18912261631E+03  0.00000000000E+00 0. -1.
         21    1    1    2  504  503  0.10315328804E+01 -0.46430958012E+02 -0.18156114976E+01  0.46477891165E+02  0.00000000000E+00 0.  1.
         21    1    1    2  505  506  0.13657677489E+03  0.95979996308E+02 -0.12610795489E+04  0.12720797946E+04  0.00000000000E+00 0.  1.
         21    1    1    2  506  501 -0.14110415825E+03 -0.11663137630E+02  0.32245053953E+02  0.14521072880E+03  0.00000000000E+00 0.  1.
<scales pt_clust_3="38.04685" pt_clust_4="47.12271" pt_clust_5="14000.00000" pt_clust_6="151.13681"></scales>
<clustering>
<clus scale="   38.047">  2  3  1 -1</clus>
<clus scale="   47.123">  1  4  2 -1</clus>
<clus scale="  151.137">  1  6  2 -1</clus>
<clus scale="   47.123">  1  3  2 -1</clus>
</clustering>
</event>
<event>
 6    0  0.3599727E+002  0.1072655E+03  0.7546771E-02  0.1265719E+00
         21   -1    0    0  503  501  0.00000000000E+00  0.00000000000E+00  0.57881494659E+03  0.57881494659E+03  0.00000000000E+00 0.  1.
         21   -1    0    0  506  502 -0.00000000000E+00 -0.00000000000E+00 -0.13417012895E+04  0.13417012895E+04  0.00000000000E+00 0.  1.
         21    1    1    2  503  502  0.25470368043E+02  0.44541429619E+02 -0.36357893589E+02  0.62885411877E+02  0.00000000000E+00 0.  1.
         21    1    1    2  504  501  0.62506986580E+02 -0.87476596311E+02  0.55813043982E+03  0.56839147260E+03  0.00000000000E+00 0.  1.
         21    1    1    2  505  504 -0.61885351689E+02  0.23353437178E+02 -0.10774229978E+04  0.10794514792E+04  0.00000000000E+00 0.  1.
         21    1    1    2  506  505 -0.26092002935E+02  0.19581729514E+02 -0.20723589135E+03  0.20978787242E+03  0.00000000000E+00 0.  1.
<scales pt_clust_3="51.50634" pt_clust_4="107.26549" pt_clust_5="14000.00000" pt_clust_6="32.62264"></scales>
<clustering>
<clus scale="   32.623">  2  6  1 -1</clus>
<clus scale="   51.506">  2  3  1 -1</clus>
<clus scale="  107.265">  1  4  2 -1</clus>
<clus scale="  107.265">  1  3  2 -1</clus>
</clustering>
</event>
<event>
 6    0  0.2036847E+002  0.1083540E+03  0.7546771E-02  0.1263649E+00
         21   -1    0    0  505  501  0.00000000000E+00  0.00000000000E+00  0.83540883494E+03  0.83540883494E+03  0.00000000000E+00 0. -1.
         21   -1    0    0  503  502 -0.00000000000E+00 -0.00000000000E+00 -0.35027405861E+02  0.35027405861E+02  0.00000000000E+00 0. -1.
         21    1    1    2  503  501 -0.39533257462E+02 -0.22225443740E+02  0.44592354131E+02  0.63602883912E+02  0.00000000000E+00 0.  1.
         21    1    1    2  504  502  0.68956936152E+02 -0.75757812778E+02  0.10439169977E+03  0.14625981068E+03  0.00000000000E+00 0. -1.
         21    1    1    2  505  506  0.33995762604E+00  0.64991129251E+02  0.41037671079E+03  0.41549128416E+03  0.00000000000E+00 0. -1.
         21    1    1    2  506  504 -0.29763636315E+02  0.32992127266E+02  0.24102066438E+03  0.24508226204E+03  0.00000000000E+00 0.  1.
<scales pt_clust_3="45.35249" pt_clust_4="100.83744" pt_clust_5="32.78744" pt_clust_6="32.78744"></scales>
<clustering>
<clus scale="   32.787">  5  6 -1 -1</clus>
<clus scale="   45.352">  2  3  1 -1</clus>
<clus scale="  100.837">  2  4  1 -1</clus>
<clus scale="  108.354">  1  3  2 -1</clus>
</clustering>
</event>
<event>
 6    0  0.2036847E+002  0.5840909E+02  0.7546771E-02  0.1404632E+00
         21   -1    0    0  503  501  0.00000000000E+00  0.00000000000E+00  0.78438377855E+03  0.78438377855E+03  0.00000000000E+00 0. -1.
         21   -1    0    0  504  502 -0.00000000000E+00 -0.00000000000E+00 -0.22321099859E+03  0.22321099859E+03  0.00000000000E+00 0.  1.
         21    1    1    2  503  505  0.42274447875E+02  0.14424037415E+02  0.42528559215E+03  0.42762485509E+03  0.00000000000E+00 0. -1.
         21    1    1    2  504  506  0.35855163069E+02  0.74553621879E+02 -0.14300821230E+03  0.16521254202E+03  0.00000000000E+00 0.  1.
         21    1    1    2  505  502  0.27664680127E+01 -0.34029190457E+02 -0.56159198652E+02  0.65722863158E+02  0.00000000000E+00 0.  1.
         21    1    1    2  506  501 -0.80896078957E+02 -0.54948468836E+02  0.33505459876E+03  0.34903451688E+03  0.00000000000E+00 0. -1.
<scales pt_clust_3="44.60776" pt_clust_4="58.40909" pt_clust_5="34.14146" pt_clust_6="14000.00000"></scales>
<clustering>
<clus scale="   34.141">  2  5  1 -1</clus>
<clus scale="   44.608">  1  3  2 -1</clus>
<clus scale="   58.409">  2  4  1 -1</clus>
<clus scale="   44.608">  1  3  2 -1</clus>
</clustering>
</event>
<event>
 6    0  0.2036847E+002  0.1480135E+03  0.7546771E-02  0.1202935E+00
         21   -1    0    0  502  501  0.00000000000E+00  0.00000000000E+00  0.46299033698E+03  0.46299033698E+03  0.00000000000E+00 0.  1.
         21   -1    0    0  504  502 -0.00000000000E+00 -0.00000000000E+00 -0.60759120379E+02  0.60759120379E+02  0.00000000000E+00 0.  1.
         21    1    1    2  503  505 -0.93821372207E+02 -0.35189292707E-01  0.25861033884E+02  0.97320317481E+02  0.00000000000E+00 0.  1.
         21    1    1    2  504  503 -0.43908786186E+02  0.18888561251E+02  0.49358790197E+02  0.68709893175E+02  0.00000000000E+00 0.  1.
         21    1    1    2  505  506  0.78928884947E+02  0.51302132330E+01  0.14853698793E+03  0.16828346547E+03  0.00000000000E+00 0.  1.
         21    1    1    2  506  501  0.58801273446E+02 -0.23983585191E+02  0.17847440459E+03  0.18943578124E+03  0.00000000000E+00 0.  1.
<scales pt_clust_3="36.27591" pt_clust_4="36.27591" pt_clust_5="145.00555" pt_clust_6="36.96153"></scales>
<clustering>
<clus scale="   36.276">  3  4 -1 -1</clus>
<clus scale="   36.962">  5  6 -1 -1</clus>
<clus scale="  145.006">  1  5  2 -1</clus>
<clus scale="  145.006">  1  3  2 -1</clus>
</clustering>
</event>
<event>
 6    0  0.2036847E+002  0.1121579E+03  0.7546771E-02  0.1256625E+00
         21   -1    0    0  504  501  0.00000000000E+00  0.00000000000E+00  0.52116389522E+02  0.52116389522E+02  0.00000000000E+00 0. -1.
         21   -1    0    0  505  502 -0.00000000000E+00 -0.00000000000E+00 -0.10815064219E+04  0.10815064219E+04  0.00000000000E+00 0. -1.
         21    1    1    2  503  502  0.29569931389E+02 -0.37777742390E+02 -0.58164171085E+03  0.58361684217E+03  0.00000000000E+00 0. -1.
         21    1    1    2  504  506  0.58539198391E+02 -0.22313263906E+02 -0.69823141674E+02  0.93808265135E+02  0.00000000000E+00 0. -1.
         21    1    1    2  505  501 -0.13052840409E+03  0.86318306795E+02 -0.13039785320E+03  0.20369613271E+03  0.00000000000E+00 0. -1.
         21    1    1    2  506  503  0.42419274306E+02 -0.26227300499E+02 -0.24752732663E+03  0.25250157138E+03  0.00000000000E+00 0. -1.
<scales pt_clust_3="46.97151" pt_clust_4="62.64758" pt_clust_5="101.41878" pt_clust_6="46.97151"></scales>
<clustering>
<clus scale="   46.972">  3  6 -1 -1</clus>
<clus scale="   62.648">  1  4  2 -1</clus>
<clus scale="  101.419">  1  5  2 -1</clus>
<clus scale="   62.648">  1  3  2 -1</clus>
</clustering>
</event>
<event>
 6    0  0.2036847E+002  0.9047707E+02  0.7546771E-02  0.1301701E+00
         21   -1    0    0  503  501  0.00000000000E+00  0.00000000000E+00  0.12737719213E+04  0.12737719213E+04  0.00000000000E+00 0. -1.
         21   -1    0    0  505  502 -0.00000000000E+00 -0.00000000000E+00 -0.21732926229E+03  0.21732926229E+03  0.00000000000E+00 0. -1.
         21    1    1    2  503  504  0.36534441071E+02  0.29772841748E+02  0.10223917915E+04  0.10234774853E+04  0.00000000000E+00 0. -1.
         21    1    1    2  504  502 -0.10066974658E+03  0.45730985362E+02  0.48312126395E+02  0.12066392359E+03  0.00000000000E+00 0. -1.
         21    1    1    2  505  506  0.84324154518E+02 -0.25086957004E+02 -0.16486124366E+03  0.18686665863E+03  0.00000000000E+00 0. -1.
         21    1    1    2  506  501 -0.20188849009E+02 -0.50416870106E+02  0.15059998479E+03  0.16009311613E+03  0.00000000000E+00 0. -1.
<scales pt_clust_3="47.12948" pt_clust_4="90.47707" pt_clust_5="14000.00000" pt_clust_6="32.07094"></scales>
<clustering>
<clus scale="   47.129">  1  3  2 -1</clus>
<clus scale="   32.071">  1  6  2 -1</clus>
<clus scale="   90.477">  1  4  2 -1</clus>
<clus scale="   47.129">  1  3  2 -1</clus>
</clustering>
</event>
<event>
 6    0  0.2036847E+002  0.2123533E+03  0.7546771E-02  0.1139716E+00
         21   -1    0    0  504  501  0.00000000000E+00  0.00000000000E+00  0.55322483233E+03  0.55322483233E+03  0.00000000000E+00 0.  1.
         21   -1    0    0  501  502 -0.00000000000E+00 -0.00000000000E+00 -0.17168357905E+03  0.17168357905E+03  0.00000000000E+00 0.  1.
         21    1    1    2  503  505 -0.75522854188E+02 -0.12894690772E+03 -0.33685016960E+02  0.15318513923E+03  0.00000000000E+00 0.  1.
         21    1    1    2  504  506  0.28134042415E+02  0.13152937528E+03  0.33798878164E+03  0.36376904406E+03  0.00000000000E+00 0.  1.
         21    1    1    2  505  502  0.10215640305E+02 -0.58146655409E+02 -0.41172209398E+02  0.71975993698E+02  0.00000000000E+00 0.  1.
         21    1    1    2  506  503  0.37173171468E+02  0.55564187849E+02  0.11840969799E+03  0.13597823438E+03  0.00000000000E+00 0.  1.
<scales pt_clust_3="47.97114" pt_clust_4="203.58725" pt_clust_5="47.97114" pt_clust_6="32.90726"></scales>
<clustering>
<clus scale="   32.907">  4  6 -1 -1</clus>
<clus scale="   47.971">  3  5 -1 -1</clus>
<clus scale="  203.587">  1  4  2 -1</clus>
<clus scale="  203.587">  1  3  2 -1</clus>
</clustering>
</event>
<event>
 6    0  0.2036847E+002  0.1278134E+03  0.7546771E-02  0.1230737E+00
         21   -1    0    0  506  501  0.00000000000E+00  0.00000000000E+00  0.15898973547E+03  0.15898973547E+03  0.00000000000E+00 0. -1.
         21   -1    0    0  504  502 -0.00000000000E+00 -0.00000000000E+00 -0.44121504588E+03  0.44121504588E+03  0.00000000000E+00 0. -1.
         21    1    1    2  503  501 -0.29051068096E+02 -0.19852130201E+02 -0.46553973922E+01  0.35492877538E+02  0.00000000000E+00 0. -1.
         21    1    1    2  504  503  0.65598203845E+02  0.11925368134E+03 -0.35170120338E+03  0.37711841816E+03  0.00000000000E+00 0. -1.
         21    1    1    2  505  502  0.30035961080E+02 -0.26169004853E+02 -0.25385051604E+02  0.47237449317E+02  0.00000000000E+00 0.  1.
         21    1    1    2  506  505 -0.66583096829E+02 -0.73232546288E+02  0.99516341964E+02  0.14035603634E+03  0.00000000000E+00 0. -1.
<scales pt_clust_3="35.18624" pt_clust_4="14000.00000" pt_clust_5="39.24802" pt_clust_6="127.81340"></scales>
<clustering>
<clus scale="   35.186">  1  3  2 -1</clus>
<clus scale="   39.248">  2  5  1 -1</clus>
<clus scale="  127.813">  1  6  2 -1</clus>
<clus scale="   35.186">  1  3  2 -1</clus>
</clustering>
</event>
<event>
 6    0  0.2036847E+002  0.1308068E+03  0.7546771E-02  0.1226263E+00
         21   -1    0    0  504  501  0.00000000000E+00  0.00000000000E+00  0.22043649755E+03  0.22043649755E+03  0.00000000000E+00 0.  1.
         21   -1    0    0  506  502 -0.00000000000E+00 -0.00000000000E+00 -0.29130013106E+03  0.29130013106E+03  0.00000000000E+00 0.  1.
         21    1    1    2  503  501  0.83729293741E+01  0.12892799634E+03  0.16037406133E+03  0.20594264671E+03  0.00000000000E+00 0.  1.
         21    1    1    2  504  502 -0.53056290654E+02 -0.29100730157E+02 -0.15403272651E+03  0.16549291015E+03  0.00000000000E+00 0.  1.
         21    1    1    2  505  503  0.10828030048E+02 -0.54533476377E+02 -0.18023284639E+02  0.58446429058E+02  0.00000000000E+00 0.  1.
         21    1    1    2  506  505  0.33855331233E+02 -0.45293789807E+02 -0.59181683684E+02  0.81854642701E+02  0.00000000000E+00 0.  1.
<scales pt_clust_3="123.89000" pt_clust_4="60.51299" pt_clust_5="41.61844" pt_clust_6="41.61844"></scales>
<clustering>
<clus scale="   41.618">  5  6 -1 -1</clus>
<clus scale="   60.513">  2  4  1 -1</clus>
<clus scale="  123.890">  1  3  2 -1</clus>
<clus scale="  123.890">  1  3  2 -1</clus>
</clustering>
</event>
<event>
 6    0  0.2036847E+002  0.2706973E+03  0.7546771E-02  0.1100881E+00
         21   -1    0    0  506  501  0.00000000000E+00  0.00000000000E+00  0.50098013725E+03  0.50098013725E+03  0.00000000000E+00 0.  1.
         21   -1    0    0  503  502 -0.00000000000E+00 -0.00000000000E+00 -0.23071987445E+03  0.23071987445E+03  0.00000000000E+00 0. -1.
         21    1    1    2  503  505  0.14834713627E+03 -0.60623517236E+02  0.20751786488E+03  0.26219410353E+03  0.00000000000E+00 0.  1.
         21    1    1    2  504  502 -0.16907424937E+03  0.27484939733E+02 -0.61405081546E+02  0.18196732606E+03  0.00000000000E+00 0. -1.
         21    1    1    2  505  501  0.10992139811E+03 -0.99792025504E+01  0.14897331370E+03  0.18540589645E+03  0.00000000000E+00 0.  1.
         21    1    1    2  506  504 -0.89194285009E+02  0.43117780054E+02 -0.24825834226E+02  0.10213268566E+03  0.00000000000E+00 0. -1.
<scales pt_clust_3="270.66548" pt_clust_4="30.32161" pt_clust_5="32.90857" pt_clust_6="30.32161"></scales>
<clustering>
<clus scale="   30.322">  4  6 -1 -1</clus>
<clus scale="   32.909">  3  5 -1 -1</clus>
<clus scale="  270.665">  1  3  2 -1</clus>
<clus scale="  270.665">  1  3  2 -1</clus>
</clustering>
</event>
<event>
 6    0  0.2036847E+002  0.1458287E+03  0.7546771E-02  0.1205694E+00
         21   -1    0    0  504  501  0.00000000000E+00  0.00000000000E+00  0.26574697131E+03  0.26574697131E+03  0.00000000000E+00 0.  1.
         21   -1    0    0  505  502 -0.00000000000E+00 -0.00000000000E+00 -0.42808099299E+03  0.42808099299E+03  0.00000000000E+00 0.  1.
         21    1    1    2  503  506 -0.48103429929E+02  0.49836370173E+01 -0.16056158164E+03  0.16768660682E+03  0.00000000000E+00 0.  1.
         21    1    1    2  504  502 -0.65704760902E+02 -0.14145457988E+02 -0.28163874854E+02  0.72872583552E+02  0.00000000000E+00 0.  1.
         21    1    1    2  505  503 -0.27140221636E+02 -0.23435359357E+02 -0.18978947566E+03  0.19314723081E+03  0.00000000000E+00 0.  1.
         21    1    1    2  506  501  0.14094841247E+03  0.32597180327E+02  0.21618091048E+03  0.26012154312E+03  0.00000000000E+00 0.  1.
<scales pt_clust_3="32.82448" pt_clust_4="67.21019" pt_clust_5="32.82448" pt_clust_6="140.75821"></scales>
<clustering>
<clus scale="   32.824">  3  5 -1 -1</clus>
<clus scale="   67.210">  2  4  1 -1</clus>
<clus scale="  140.758">  1  6  2 -1</clus>
<clus scale="  140.758">  1  3  2 -1</clus>
</clustering>
</event>
<event>
 6    0  0.2036847E+002  0.1464239E+03  0.7546771E-02  0.1204937E+00
         21   -1    0    0  504  501  0.00000000000E+00  0.00000000000E+00  0.16636867300E+04  0.16636867300E+04  0.00000000000E+00 0.  1.
         21   -1    0    0  503  502 -0.00000000000E+00 -0.00000000000E+00 -0.80640193872E+02  0.80640193872E+02  0.00000000000E+00 0.  1.
         21    1    1    2  503  501 -0.76495398799E+02  0.34696652250E+01 -0.31756003315E+02  0.82897698163E+02  0.00000000000E+00 0.  1.
         21    1    1    2  504  506  0.80196379655E+02 -0.88577580839E+02  0.11910336571E+04  0.11970123724E+04  0.00000000000E+00 0.  1.
         21    1    1    2  505  502 -0.40148147794E+02  0.80938575885E+02  0.86242539651E+02  0.12490277212E+03  0.00000000000E+00 0.  1.
         21    1    1    2  506  505  0.36447166938E+02  0.41693397292E+01  0.33752634264E+03  0.33951408122E+03  0.00000000000E+00 0.  1.
<scales pt_clust_3="76.57405" pt_clust_4="33.64659" pt_clust_5="133.23876" pt_clust_6="33.64659"></scales>
<clustering>
<clus scale="   33.647">  4  6 -1 -1</clus>
<clus scale="   76.574">  2  3  1 -1</clus>
<clus scale="  133.239">  2  5  1 -1</clus>
<clus scale="  146.424">  1  3  2 -1</clus>
</clustering>
</event>
<event>
 6    0  0.2036847E+002  0.1076749E+03  0.7546771E-02  0.1264937E+00
         21   -1    0    0  503  501  0.00000000000E+00  0.00000000000E+00  0.44841680494E+03  0.44841680494E+03  0.00000000000E+00 0. -1.
         21   -1    0    0  506  502 -0.00000000000E+00 -0.00000000000E+00 -0.16209443858E+03  0.16209443858E+03  0.00000000000E+00 0.  1.
         21    1    1    2  503  502  0.26127204376E+02 -0.86833860776E+02  0.26493661651E+03  0.28002528627E+03  0.00000000000E+00 0. -1.
         21    1    1    2  504  501  0.44247011332E+02 -0.32651329694E-02  0.13867145277E+03  0.14555950617E+03  0.00000000000E+00 0. -1.
         21    1    1    2  505  504 -0.40643147659E+02  0.98213963862E+02 -0.67761045814E+02  0.12605319305E+03  0.00000000000E+00 0. -1.
         21    1    1    2  506  505 -0.29731068049E+02 -0.11376837953E+02 -0.49524657109E+02  0.58873258029E+02  0.00000000000E+00 0.  1.
<scales pt_clust_3="107.67489" pt_clust_4="43.29955" pt_clust_5="14000.00000" pt_clust_6="31.83345"></scales>
<clustering>
<clus scale="   31.833">  2  6  1 -1</clus>
<clus scale="   43.300">  1  4  2 -1</clus>
<clus scale="  107.675">  1  3  2 -1</clus>
<clus scale="   43.300">  1  3  2 -1</clus>
</clustering>
</event>
<event>
 6    0  0.2036847E+002  0.1153167E+03  0.7546771E-02  0.1251029E+00
         21   -1    0    0  503  501  0.00000000000E+00  0.00000000000E+00  0.62919071094E+03  0.62919071094E+03  0.00000000000E+00 0. -1.
         21   -1    0    0  506  502 -0.00000000000E+00 -0.00000000000E+00 -0.21007278619E+03  0.21007278619E+03  0.00000000000E+00 0.  1.
         21    1    1    2  503  502  0.86135047868E+02 -0.82381891067E+02 -0.16263620579E+03  0.20163471398E+03  0.00000000000E+00 0.  1.
         21    1    1    2  504  505 -0.80027182002E+01  0.97127253324E+02  0.41884778922E+03  0.43003629774E+03  0.00000000000E+00 0. -1.
         21    1    1    2  505  501 -0.34986707246E+02  0.13394863142E+02  0.14983651055E+03  0.15444892987E+03  0.00000000000E+00 0. -1.
         21    1    1    2  506  504 -0.43145622422E+02 -0.28140225399E+02  0.13069830770E+02  0.53143555546E+02  0.00000000000E+00 0. -1.
<scales pt_clust_3="115.31675" pt_clust_4="14000.00000" pt_clust_5="37.46321" pt_clust_6="53.07898"></scales>
<clustering>
<clus scale="   37.463">  1  5  2 -1</clus>
<clus scale="   53.079">  2  6  1 -1</clus>
<clus scale="  115.317">  2  3  1 -1</clus>
<clus scale="   37.463">  1  3  2 -1</clus>
</clustering>
</event>
<event>
 6    0  0.2036847E+002  0.1126587E+03  0.7546771E-02  0.1255724E+00
         21   -1    0    0  504  501  0.00000000000E+00  0.00000000000E+00  0.47095844490E+02  0.47095844490E+02  0.00000000000E+00 0. -1.
         21   -1    0    0  505  502 -0.00000000000E+00 -0.00000000000E+00 -0.57206801553E+03  0.57206801553E+03  0.00000000000E+00 0. -1.
         21    1    1    2  503  506 -0.11951140657E+02  0.64145976872E+02 -0.16623618808E+03  0.17858333164E+03  0.00000000000E+00 0. -1.
         21    1    1    2  504  503  0.10823185083E+02  0.69535180578E+02 -0.10097932319E+03  0.12308170613E+03  0.00000000000E+00 0. -1.
         21    1    1    2  505  501 -0.63496284662E+02 -0.64855231261E+02 -0.11879665005E+03  0.14950124833E+03  0.00000000000E+00 0. -1.
         21    1    1    2  506  502  0.64624240236E+02 -0.68825926189E+02 -0.13896000973E+03  0.16799757393E+03  0.00000000000E+00 0. -1.
<scales pt_clust_3="40.00148" pt_clust_4="40.00148" pt_clust_5="90.76331" pt_clust_6="104.71984"></scales>
<clustering>
<clus scale="   40.001">  3  4 -1 -1</clus>
<clus scale="   90.763">  1  5  2 -1</clus>
<clus scale="  104.720">  2  6  1 -1</clus>
<clus scale="   90.763">  1  3  2 -1</clus>
</clustering>
</event>
<event>
 6    0  0.2036847E+002  0.1082016E+03  0.7546771E-02  0.1263937E+00
         21   -1    0    0  505  501  0.00000000000E+00  0.00000000000E+00  0.19148027992E+03  0.19148027992E+03  0.00000000000E+00 0.  1.
         21   -1    0    0  504  502 -0.00000000000E+00 -0.00000000000E+00 -0.36044980932E+03  0.36044980932E+03  0.00000000000E+00 0.  1.
         21    1    1    2  503  506  0.59274562333E+01 -0.88075129343E+02 -0.41006764444E+02  0.97334053015E+02  0.00000000000E+00 0.  1.
         21    1    1    2  504  503 -0.28358351686E+02  0.10491864615E+03 -0.23008215828E+03  0.25446005183E+03  0.00000000000E+00 0.  1.
         21    1    1    2  505  502  0.27459928255E+02  0.38323061548E+02 -0.30677868011E+02  0.56247989225E+02  0.00000000000E+00 0.  1.
         21    1    1    2  506  501 -0.50290328014E+01 -0.55166578358E+02  0.13279726133E+03  0.14388799517E+03  0.00000000000E+00 0.  1.
<scales pt_clust_3="108.20159" pt_clust_4="14000.00000" pt_clust_5="47.14557" pt_clust_6="54.68566"></scales>
<clustering>
<clus scale="   47.146">  2  5  1 -1</clus>
<clus scale="   54.686">  1  6  2 -1</clus>
<clus scale="  108.202">  1  3  2 -1</clus>
<clus scale="   54.686">  1  3  2 -1</clus>
</clustering>
</event>
<event>
 6    0  0.2036847E+002  0.1242746E+03  0.7546771E-02  0.1236207E+00
         21   -1    0    0  506  501  0.00000000000E+00  0.00000000000E+00  0.23249527992E+04  0.23249527992E+04  0.00000000000E+00 0.  1.
         21   -1    0    0  505  502 -0.00000000000E+00 -0.00000000000E+00 -0.96240775202E+01  0.96240775202E+01  0.00000000000E+00 0.  1.
         21    1    1    2  503  504  0.73189326464E+02  0.44421834158E+02  0.93747195613E+03  0.94137327633E+03  0.00000000000E+00 0.  1.
         21    1    1    2  504  501  0.39750852879E+02  0.26427923172E+02  0.24595267984E+03  0.25054198481E+03  0.00000000000E+00 0. -1.
         21    1    1    2  505  503 -0.10145441543E+03 -0.30087504481E+02  0.61610392141E+03  0.62512582598E+03  0.00000000000E+00 0.  1.
         21    1    1    2  506  502 -0.11485763918E+02 -0.40762252849E+02  0.51580016425E+03  0.51753578956E+03  0.00000000000E+00 0.  1.
<scales pt_clust_3="36.52636" pt_clust_4="36.52636" pt_clust_5="114.24192" pt_clust_6="42.34955"></scales>
<clustering>
<clus scale="   36.526">  3  4 -1 -1</clus>
<clus scale="   42.350">  1  6  2 -1</clus>
<clus scale="  114.242">  2  5  1 -1</clus>
<clus scale="   42.350">  1  3  2 -1</clus>
</clustering>
</event>
<event>
 6    0  0.2036847E+002  0.7325764E+02  0.7546771E-02  0.1349353E+00
         21   -1    0    0  504  501  0.00000000000E+00  0.00000000000E+00  0.51954561586E+02  0.51954561586E+02  0.00000000000E+00 0.  1.
         21   -1    0    0  506  502 -0.00000000000E+00 -0.00000000000E+00 -0.61634944779E+03  0.61634944779E+03  0.00000000000E+00 0.  1.
         21    1    1    2  503  501  0.41181092490E+02 -0.22277462639E+02 -0.37561698680E+02  0.60025402356E+02  0.00000000000E+00 0.  1.
         21    1    1    2  504  505 -0.65057584480E+02  0.96557350223E+02 -0.59388278663E+02  0.13070110490E+03  0.00000000000E+00 0.  1.
         21    1    1    2  505  502  0.38167793065E+02 -0.23131331041E+02 -0.20186803087E+03  0.20674269223E+03  0.00000000000E+00 0.  1.
         21    1    1    2  506  503 -0.14291301074E+02 -0.51148556544E+02 -0.26557687799E+03  0.27083480988E+03  0.00000000000E+00 0.  1.
<scales pt_clust_3="52.09991" pt_clust_4="14000.00000" pt_clust_5="44.63002" pt_clust_6="73.25764"></scales>
<clustering>
<clus scale="   44.630">  2  5  1 -1</clus>
<clus scale="   52.100">  1  3  2 -1</clus>
<clus scale="   73.258">  2  6  1 -1</clus>
<clus scale="   52.100">  1  3  2 -1</clus>
</clustering>
</event>
<event>
 6    0  0.2036847E+002  0.2299319E+03  0.7546771E-02  0.1126688E+00
         21   -1    0    0  503  501  0.00000000000E+00  0.00000000000E+00  0.38721930687E+03  0.38721930687E+03  0.00000000000E+00 0.  1.
         21   -1    0    0  501  502 -0.00000000000E+00 -0.00000000000E+00 -0.18803380953E+03  0.18803380953E+03  0.00000000000E+00 0.  1.
         21    1    1    2  503  506  0.15149960514E+03 -0.14903087609E+03  0.19354351891E+03  0.28743943031E+03  0.00000000000E+00 0.  1.
         21    1    1    2  504  505 -0.13751314558E+03  0.65001704050E+02  0.15376540513E+02  0.15287748276E+03  0.00000000000E+00 0.  1.
         21    1    1    2  505  502  0.38483675112E+02  0.38712935861E+01 -0.51893799157E+01  0.39024477294E+02  0.00000000000E+00 0.  1.
         21    1    1    2  506  504 -0.52470134675E+02  0.80157878456E+02 -0.45451821571E+01  0.95911726042E+02  0.00000000000E+00 0.  1.
<scales pt_clust_3="219.66994" pt_clust_4="55.03486" pt_clust_5="38.67790" pt_clust_6="55.03486"></scales>
<clustering>
<clus scale="   38.678">  2  5  1 -1</clus>
<clus scale="   55.035">  4  6 -1 -1</clus>
<clus scale="  219.670">  1  3  2 -1</clus>
<clus scale="  219.670">  1  3  2 -1</clus>
</clustering>
</event>
<event>
 6    0  0.2036847E+002  0.8664059E+02  0.7546771E-02  0.1311197E+00
         21   -1    0    0  506  501  0.00000000000E+00  0.00000000000E+00  0.19339286234E+04  0.19339286234E+04  0.00000000000E+00 0.  1.
         21   -1    0    0  503  502 -0.00000000000E+00 -0.00000000000E+00 -0.39491767242E+02  0.39491767242E+02  0.00000000000E+00 0. -1.
         21    1    1    2  503  501  0.24401505840E+02 -0.86663357042E+02  0.37796701230E+02  0.97645079574E+02  0.00000000000E+00 0. -1.
         21    1    1    2  504  502 -0.87963045750E+02  0.44115557390E+02  0.28147972202E+03  0.29818536807E+03  0.00000000000E+00 0.  1.
         21    1    1    2  505  504  0.37922853260E+02  0.16371321958E+02  0.11831598821E+04  0.11838806821E+04  0.00000000000E+00 0.  1.
         21    1    1    2  506  505  0.25638686650E+02  0.26176477695E+02  0.39200055083E+03  0.39370926086E+03  0.00000000000E+00 0. -1.
<scales pt_clust_3="86.64059" pt_clust_4="14000.00000" pt_clust_5="68.18826" pt_clust_6="36.64083"></scales>
<clustering>
<clus scale="   36.641">  1  6  2 -1</clus>
<clus scale="   68.188">  1  5  2 -1</clus>
<clus scale="   86.641">  2  3  1 -1</clus>
<clus scale="   36.641">  1  3  2 -1</clus>
</clustering>
</event>
<event>
 6    0  0.2036847E+002  0.1516981E+03  0.7546771E-02  0.1198402E+00
         21   -1    0    0  506  501  0.00000000000E+00  0.00000000000E+00  0.13404765973E+03  0.13404765973E+03  0.00000000000E+00 0. -1.
         21   -1    0    0  504  502 -0.00000000000E+00 -0.00000000000E+00 -0.21500041683E+03  0.21500041683E+03  0.00000000000E+00 0. -1.
         21    1    1    2  503  505 -0.74964040494E+02  0.83520318340E+02 -0.78158527753E+02  0.13676259139E+03  0.00000000000E+00 0. -1.
         21    1    1    2  504  501  0.29069397737E+02  0.13505627148E+02 -0.58476901221E+01  0.32582623118E+02  0.00000000000E+00 0. -1.
         21    1    1    2  505  502 -0.40574781056E+02  0.86586579700E+01 -0.95438522571E+01  0.42571943008E+02  0.00000000000E+00 0. -1.
         21    1    1    2  506  503  0.86469423813E+02 -0.10568460346E+03  0.12597313041E+02  0.13713091905E+03  0.00000000000E+00 0. -1.
<scales pt_clust_3="31.13934" pt_clust_4="32.05358" pt_clust_5="31.13934" pt_clust_6="142.79123"></scales>
<clustering>
<clus scale="   31.139">  3  5 -1 -1</clus>
<clus scale="   32.054">  1  4  2 -1</clus>
<clus scale="  142.791">  1  6  2 -1</clus>
<clus scale="   32.054">  1  3  2 -1</clus>
</clustering>
</event>
<event>
 6    0  0.2036847E+002  0.1613688E+03  0.7546771E-02  0.1187160E+00
         21   -1    0    0  506  501  0.00000000000E+00  0.00000000000E+00  0.39967170343E+03  0.39967170343E+03  0.00000000000E+00 0.  1.
         21   -1    0    0  503  502 -0.00000000000E+00 -0.00000000000E+00 -0.10468604692E+03  0.10468604692E+03  0.00000000000E+00 0. -1.
         21    1    1    2  503  505  0.30588168386E+02  0.69419463408E+02  0.97250985697E+02  0.12333876992E+03  0.00000000000E+00 0. -1.
         21    1    1    2  504  502 -0.59612781415E+01 -0.68906993203E+02 -0.24443507424E+02  0.73356632996E+02  0.00000000000E+00 0. -1.
         21    1    1    2  505  501 -0.74878541467E+01  0.75744844342E+02  0.21627789613E+03  0.22928034752E+03  0.00000000000E+00 0.  1.
         21    1    1    2  506  504 -0.17139036098E+02 -0.76257314547E+02  0.59002821021E+01  0.78381999906E+02  0.00000000000E+00 0. -1.
<scales pt_clust_3="66.47381" pt_clust_4="30.83510" pt_clust_5="66.47381" pt_clust_6="150.60133"></scales>
<clustering>
<clus scale="   30.835">  4  6 -1 -1</clus>
<clus scale="   66.474">  3  5 -1 -1</clus>
<clus scale="  150.601">  2  4  1 -1</clus>
<clus scale="  161.369">  1  3  2 -1</clus>
</clustering>
</event>
<event>
 6    0  0.2036847E+002  0.3021242E+03  0.7546771E-02  0.1084184E+00
         21   -1    0    0  506  501  0.00000000000E+00  0.00000000000E+00  0.90543381869E+02  0.90543381869E+02  0.00000000000E+00 0. -1.
         21   -1    0    0  504  502 -0.00000000000E+00 -0.00000000000E+00 -0.96682626390E+03  0.96682626390E+03  0.00000000000E+00 0. -1.
         21    1    1    2  503  502  0.88783691461E+02 -0.16986797288E+03 -0.26588772025E+03  0.32777118827E+03  0.00000000000E+00 0. -1.
         21    1    1    2  504  505 -0.79605222575E+02  0.11398093058E+03 -0.29359040764E+03  0.32484453428E+03  0.00000000000E+00 0. -1.
         21    1    1    2  505  501 -0.11450097158E+03  0.82398167119E+02 -0.20532701622E+03  0.24911666750E+03  0.00000000000E+00 0. -1.
         21    1    1    2  506  503  0.10532250270E+03 -0.26511124826E+02 -0.11147773792E+03  0.15563725571E+03  0.00000000000E+00 0. -1.
<scales pt_clust_3="92.30694" pt_clust_4="64.87796" pt_clust_5="283.74789" pt_clust_6="92.30694"></scales>
<clustering>
<clus scale="   64.878">  4  5 -1 -1</clus>
<clus scale="   92.307">  3  6 -1 -1</clus>
<clus scale="  283.748">  2  4  1 -1</clus>
<clus scale="  302.124">  1  3  2 -1</clus>
</clustering>
</event>
<event>
 6    0  0.2036847E+002  0.9472641E+02  0.7546771E-02  0.1291793E+00
         21   -1    0    0  504  501  0.00000000000E+00  0.00000000000E+00  0.76895936885E+02  0.76895936885E+02  0.00000000000E+00 0. -1.
         21   -1    0    0  505  502 -0.00000000000E+00 -0.00000000000E+00 -0.35301916547E+03  0.35301916547E+03  0.00000000000E+00 0. -1.
         21    1    1    2  503  506  0.11194845647E+03  0.26368001475E+02 -0.10584646824E+03  0.15630484076E+03  0.00000000000E+00 0. -1.
         21    1    1    2  504  503  0.97037044849E+01  0.39190215703E+02 -0.29739111956E+02  0.50144288483E+02  0.00000000000E+00 0. -1.
         21    1    1    2  505  501 -0.77568255756E+02  0.17672873588E+02 -0.64688626799E+02  0.10253674073E+03  0.00000000000E+00 0. -1.
         21    1    1    2  506  502 -0.44083905199E+02 -0.83231090765E+02 -0.75849021589E+02  0.12092923238E+03  0.00000000000E+00 0. -1.
<scales pt_clust_3="14000.00000" pt_clust_4="40.37369" pt_clust_5="80.16420" pt_clust_6="94.72641"></scales>
<clustering>
<clus scale="   40.374">  1  4  2 -1</clus>
<clus scale="   80.164">  1  5  2 -1</clus>
<clus scale="   94.726">  2  6  1 -1</clus>
<clus scale="   40.374">  1  3  2 -1</clus>
</clustering>
</event>
<event>
 6    0  0.2036847E+002  0.7805536E+02  0.7546771E-02  0.1334662E+00
         21   -1    0    0  504  501  0.00000000000E+00  0.00000000000E+00  0.14142377738E+02  0.14142377738E+02  0.00000000000E+00 0.  1.
         21   -1    0    0  506  502 -0.00000000000E+00 -0.00000000000E+00 -0.25664727472E+04  0.25664727472E+04  0.00000000000E+00 0. -1.
         21    1    1    2  503  501  0.17379904561E+02  0.31893387898E+02 -0.32679046000E+02  0.48858666801E+02  0.00000000000E+00 0.  1.
         21    1    1    2  504  505  0.54070529282E+02 -0.31948289939E+02 -0.38778396499E+03  0.39283675856E+03  0.00000000000E+00 0. -1.
         21    1    1    2  505  502 -0.50146555147E+01  0.69059235220E+02 -0.58381926006E+03  0.58791092281E+03  0.00000000000E+00 0. -1.
         21    1    1    2  506  503 -0.66435778328E+02 -0.69004333178E+02 -0.15480480984E+04  0.15510087768E+04  0.00000000000E+00 0. -1.
<scales pt_clust_3="36.32147" pt_clust_4="64.09409" pt_clust_5="14000.00000" pt_clust_6="78.05536"></scales>
<clustering>
<clus scale="   36.321">  1  3  2 -1</clus>
<clus scale="   64.094">  1  4  2 -1</clus>
<clus scale="   78.055">  2  6  1 -1</clus>
<clus scale="   36.321">  1  3  2 -1</clus>
</clustering>
</event>
<event>
 6    0  0.2036847E+002  0.1456421E+03  0.7546771E-02  0.1205933E+00
         21   -1    0    0  503  501  0.00000000000E+00  0.00000000000E+00  0.28333106327E+03  0.28333106327E+03  0.00000000000E+00 0. -1.
         21   -1    0    0  501  502 -0.00000000000E+00 -0.00000000000E+00 -0.77281587855E+02  0.77281587855E+02  0.00000000000E+00 0. -1.
         21    1    1    2  503  504  0.49715732403E+02 -0.92524650492E+02  0.11896220147E+03  0.15869615741E+03  0.00000000000E+00 0. -1.
         21    1    1    2  504  506  0.37767222069E+02 -0.74772338757E+01  0.23892594893E+02  0.45311457491E+02  0.00000000000E+00 0. -1.
         21    1    1    2  505  502 -0.70672965877E+02  0.43097502123E+02  0.26848204817E+02  0.87022347113E+02  0.00000000000E+00 0. -1.
         21    1    1    2  506  505 -0.16809988595E+02  0.56904382244E+02  0.36346474234E+02  0.69582689115E+02  0.00000000000E+00 0. -1.
<scales pt_clust_3="36.11312" pt_clust_4="36.11312" pt_clust_5="143.28842" pt_clust_6="45.41938"></scales>
<clustering>
<clus scale="   36.113">  3  4 -1 -1</clus>
<clus scale="   45.419">  5  6 -1 -1</clus>
<clus scale="  143.288">  2  5  1 -1</clus>
<clus scale="  145.642">  1  3  2 -1</clus>
</clustering>
</event>
<event>
 6    0  0.2036847E+002  0.1216336E+03  0.7546771E-02  0.1240426E+00
         21   -1    0    0  505  501  0.00000000000E+00  0.00000000000E+00  0.93270291103E+02  0.93270291103E+02  0.00000000000E+00 0.  1.
         21   -1    0    0  506  502 -0.00000000000E+00 -0.00000000000E+00 -0.11596658982E+04  0.11596658982E+04  0.00000000000E+00 0. -1.
         21    1    1    2  503  504  0.42304971325E+02 -0.38551526069E+02 -0.35504076240E+03  0.35962462892E+03  0.00000000000E+00 0. -1.
         21    1    1    2  504  502  0.43950069283E+02 -0.35933605260E+02 -0.68270081254E+03  0.68505710128E+03  0.00000000000E+00 0. -1.
         21    1    1    2  505  503 -0.99191511219E+01 -0.54943214088E+02 -0.39104780487E+01  0.55968188928E+02  0.00000000000E+00 0. -1.
         21    1    1    2  506  501 -0.76335889486E+02  0.12942834542E+03 -0.24743554142E+02  0.15228627020E+03  0.00000000000E+00 0.  1.
<scales pt_clust_3="38.11113" pt_clust_4="38.11113" pt_clust_5="55.83141" pt_clust_6="115.45715"></scales>
<clustering>
<clus scale="   38.111">  3  4 -1 -1</clus>
<clus scale="   55.831">  1  5  2 -1</clus>
<clus scale="  115.457">  1  6  2 -1</clus>
<clus scale="   55.831">  1  3  2 -1</clus>
</clustering>
</event>
<event>
 6    0  0.2036847E+002  0.8195196E+02  0.7546771E-02  0.1323602E+00
         21   -1    0    0  503  501  0.00000000000E+00  0.00000000000E+00  0.10238996691E+03  0.10238996691E+03  0.00000000000E+00 0. -1.
         21   -1    0    0  506  502 -0.00000000000E+00 -0.00000000000E+00 -0.61551549863E+03  0.61551549863E+03  0.00000000000E+00 0. -1.
         21    1    1    2  503  502 -0.94260725463E+02  0.67937804048E+02  0.44320118731E+02  0.12435796118E+03  0.00000000000E+00 0. -1.
         21    1    1    2  504  501  0.30962493846E+02 -0.13595569084E+02 -0.14732210776E+02  0.36885682293E+02  0.00000000000E+00 0. -1.
         21    1    1    2  505  504  0.13149239070E+02 -0.69237664389E+02 -0.27515978325E+03  0.28404165711E+03  0.00000000000E+00 0. -1.
         21    1    1    2  506  505  0.50148992547E+02  0.14895429425E+02 -0.26755365644E+03  0.27262016496E+03  0.00000000000E+00 0. -1.
<scales pt_clust_3="14000.00000" pt_clust_4="33.81591" pt_clust_5="81.95196" pt_clust_6="53.03388"></scales>
<clustering>
<clus scale="   33.816">  1  4  2 -1</clus>
<clus scale="   53.034">  2  6  1 -1</clus>
<clus scale="   81.952">  2  5  1 -1</clus>
<clus scale="   33.816">  1  3  2 -1</clus>
</clustering>
</event>
<event>
 6    0  0.2036847E+002  0.1563113E+03  0.7546771E-02  0.1192925E+00
         21   -1    0    0  502  501  0.00000000000E+00  0.00000000000E+00  0.17607354866E+02  0.17607354866E+02  0.00000000000E+00 0.  1.
         21   -1    0    0  505  502 -0.00000000000E+00 -0.00000000000E+00 -0.13843735671E+04  0.13843735671E+04  0.00000000000E+00 0.  1.
         21    1    1    2  503  506  0.60900302832E+02  0.15621993934E+02 -0.35951928670E+03  0.36497535683E+03  0.00000000000E+00 0.  1.
         21    1    1    2  504  503 -0.73045108699E+02 -0.45380849301E+02 -0.35956624734E+03  0.36970649929E+03  0.00000000000E+00 0.  1.
         21    1    1    2  505  504 -0.69456022746E+02 -0.14892531049E+01 -0.35995739224E+03  0.36660016530E+03  0.00000000000E+00 0.  1.
         21    1    1    2  506  501  0.81600828613E+02  0.31248108472E+02 -0.28772328591E+03  0.30069890051E+03  0.00000000000E+00 0.  1.
<scales pt_clust_3="34.93200" pt_clust_4="39.48506" pt_clust_5="39.48506" pt_clust_6="155.56114"></scales>
<clustering>
<clus scale="   34.932">  3  6 -1 -1</clus>
<clus scale="   39.485">  4  5 -1 -1</clus>
<clus scale="  155.561">  1  3  2 -1</clus>
<clus scale="  155.561">  1  3  2 -1</clus>
</clustering>
</event>
<event>
 6    0  0.2036847E+002  0.1225171E+03  0.7546771E-02  0.1239002E+00
         21   -1    0    0  502  501  0.00000000000E+00  0.00000000000E+00  0.32446643753E+02  0.32446643753E+02  0.00000000000E+00 0. -1.
         21   -1    0    0  504  502 -0.00000000000E+00 -0.00000000000E+00 -0.14669738837E+04  0.14669738837E+04  0.00000000000E+00 0. -1.
         21    1    1    2  503  505  0.24417427163E+02 -0.79405808449E+02 -0.12830395537E+03  0.15285090163E+03  0.00000000000E+00 0. -1.
         21    1    1    2  504  506 -0.16572365301E+02  0.69674125399E+02 -0.90705316645E+03  0.90987613102E+03  0.00000000000E+00 0. -1.
         21    1    1    2  505  501  0.17159235258E+02 -0.38567293215E+02 -0.95284316245E+01  0.43274316514E+02  0.00000000000E+00 0. -1.
         21    1    1    2  506  503 -0.25004297120E+02  0.48298976266E+02 -0.38964168651E+03  0.39341917829E+03  0.00000000000E+00 0. -1.
<scales pt_clust_3="116.17049" pt_clust_4="33.91749" pt_clust_5="42.21227" pt_clust_6="33.91749"></scales>
<clustering>
<clus scale="   33.917">  4  6 -1 -1</clus>
<clus scale="   42.212">  1  5  2 -1</clus>
<clus scale="  116.170">  1  3  2 -1</clus>
<clus scale="   42.212">  1  3  2 -1</clus>
</clustering>
</event>
<event>
 6    0  0.2036847E+002  0.1443699E+03  0.7546771E-02  0.1207567E+00
         21   -1    0    0  503  501  0.00000000000E+00  0.00000000000E+00  0.19644188787E+03  0.19644188787E+03  0.00000000000E+00 0.  1.
         21   -1    0    0  505  502 -0.00000000000E+00 -0.00000000000E+00 -0.27614820273E+03  0.27614820273E+03  0.00000000000E+00 0.  1.
         21    1    1    2  503  506 -0.22188506508E+02 -0.84692575755E+02  0.99156201600E+02  0.13227665903E+03  0.00000000000E+00 0.  1.
         21    1    1    2  504  501  0.22093309185E+02  0.89001867666E+02 -0.10774901590E+03  0.14148956564E+03  0.00000000000E+00 0.  1.
         21    1    1    2  505  504  0.59625347743E+02  0.67096423079E+02 -0.52583435938E+02  0.10402946611E+03  0.00000000000E+00 0.  1.
         21    1    1    2  506  502 -0.59530150421E+02 -0.71405714990E+02 -0.18530064620E+02  0.94794399820E+02  0.00000000000E+00 0.  1.
<scales pt_clust_3="87.55091" pt_clust_4="58.76884" pt_clust_5="58.76884" pt_clust_6="131.58335"></scales>
<clustering>
<clus scale="   58.769">  4  5 -1 -1</clus>
<clus scale="   87.551">  1  3  2 -1</clus>
<clus scale="  131.583">  2  6  1 -1</clus>
<clus scale="   87.551">  1  3  2 -1</clus>
</clustering>
</event>
<event>
 6    0  0.2036847E+002  0.9941994E+02  0.7546771E-02  0.1281520E+00
         21   -1    0    0  505  501  0.00000000000E+00  0.00000000000E+00  0.38119690106E+02  0.38119690106E+02  0.00000000000E+00 0. -1.
         21   -1    0    0  504  502 -0.00000000000E+00 -0.00000000000E+00 -0.82683639665E+03  0.82683639665E+03  0.00000000000E+00 0. -1.
         21    1    1    2  503  502  0.74782855412E+02 -0.21019800294E+02 -0.55649585037E+03  0.56189139426E+03  0.00000000000E+00 0. -1.
         21    1    1    2  504  501  0.49385349059E+02 -0.11638459001E+02 -0.90495256977E+02  0.10374853235E+03  0.00000000000E+00 0.  1.
         21    1    1    2  505  506 -0.82411760409E+02 -0.67325347200E+01 -0.80891854018E+02  0.11567418607E+03  0.00000000000E+00 0. -1.
         21    1    1    2  506  503 -0.41756444062E+02  0.39390794015E+02 -0.60833745186E+02  0.83641974075E+02  0.00000000000E+00 0. -1.
<scales pt_clust_3="82.02344" pt_clust_4="50.73821" pt_clust_5="46.81192" pt_clust_6="46.81192"></scales>
<clustering>
<clus scale="   46.812">  5  6 -1 -1</clus>
<clus scale="   50.738">  1  4  2 -1</clus>
<clus scale="   82.023">  2  3  1 -1</clus>
<clus scale="   50.738">  1  3  2 -1</clus>
</clustering>
</event>
<event>
 6    0  0.2036847E+002  0.1312846E+03  0.7546771E-02  0.1225562E+00
         21   -1    0    0  503  501  0.00000000000E+00  0.00000000000E+00  0.15022315096E+02  0.15022315096E+02  0.00000000000E+00 0.  1.
         21   -1    0    0  504  502 -0.00000000000E+00 -0.00000000000E+00 -0.11454821316E+04  0.11454821316E+04  0.00000000000E+00 0.  1.
         21    1    1    2  503  506 -0.18039777647E+02  0.60551231247E+02 -0.35827242109E+03  0.36380078737E+03  0.00000000000E+00 0.  1.
         21    1    1    2  504  505 -0.14601094731E+02 -0.56836421107E+02 -0.26705819150E+03  0.27342942120E+03  0.00000000000E+00 0.  1.
         21    1    1    2  505  501  0.16956765964E+02 -0.68005716107E+02 -0.24136797873E+03  0.25133804028E+03  0.00000000000E+00 0.  1.
         21    1    1    2  506  502  0.15684106413E+02  0.64290905967E+02 -0.26376122521E+03  0.27193619786E+03  0.00000000000E+00 0.  1.
<scales pt_clust_3="39.62474" pt_clust_4="32.89762" pt_clust_5="129.93736" pt_clust_6="39.62474"></scales>
<clustering>
<clus scale="   32.898">  4  5 -1 -1</clus>
<clus scale="   39.625">  3  6 -1 -1</clus>
<clus scale="  129.937">  1  4  2 -1</clus>
<clus scale="  129.937">  1  3  2 -1</clus>
</clustering>
</event>
<event>
 6    0  0.2036847E+002  0.1134421E+03  0.7546771E-02  0.1254325E+00
         21   -1    0    0  505  501  0.00000000000E+00  0.00000000000E+00  0.84238461506E+03  0.84238461506E+03  0.00000000000E+00 0.  1.
         21   -1    0    0  504  502 -0.00000000000E+00 -0.00000000000E+00 -0.41864747292E+02  0.41864747292E+02  0.00000000000E+00 0.  1.
         21    1    1    2  503  501  0.12436787475E+02 -0.46309528499E+02  0.25602243440E+03  0.26047405442E+03  0.00000000000E+00 0. -1.
         21    1    1    2  504  506 -0.17511091846E+02  0.75196017055E+02  0.23823735622E+02  0.80800060010E+02  0.00000000000E+00 0.  1.
         21    1    1    2  505  502 -0.55489201300E+02  0.85116252989E+01  0.87279965105E+02  0.10377519711E+03  0.00000000000E+00 0.  1.
         21    1    1    2  506  503  0.60563505671E+02 -0.37398113855E+02  0.43339373265E+03  0.43920005082E+03  0.00000000000E+00 0.  1.
<scales pt_clust_3="35.90023" pt_clust_4="104.67054" pt_clust_5="56.13822" pt_clust_6="35.90023"></scales>
<clustering>
<clus scale="   35.900">  3  6 -1 -1</clus>
<clus scale="   56.138">  2  5  1 -1</clus>
<clus scale="  104.671">  2  4  1 -1</clus>
<clus scale="  113.442">  1  3  2 -1</clus>
</clustering>
</event>
<event>
 6    0  0.2036847E+002  0.9310259E+02  0.7546771E-02  0.1295508E+00
         21   -1    0    0  504  501  0.00000000000E+00  0.00000000000E+00  0.56756485615E+03  0.56756485615E+03  0.00000000000E+00 0.  1.
         21   -1    0    0  506  502 -0.00000000000E+00 -0.00000000000E+00 -0.57551657304E+02  0.57551657304E+02  0.00000000000E+00 0. -1.
         21    1    1    2  503  502 -0.29754896049E+02  0.20456523712E+02  0.22316519353E+02  0.42448206526E+02  0.00000000000E+00 0. -1.
         21    1    1    2  504  503  0.26112442432E+02  0.90096632844E+02  0.20210976903E+02  0.95957003324E+02  0.00000000000E+00 0. -1.
         21    1    1    2  505  501  0.40694399823E+02 -0.53088783969E+02  0.21870123857E+03  0.22870217513E+03  0.00000000000E+00 0.  1.
         21    1    1    2  506  505 -0.37051946206E+02 -0.57464372587E+02  0.24878446402E+03  0.25800912847E+03  0.00000000000E+00 0.  1.
<scales pt_clust_3="36.10849" pt_clust_4="93.10259" pt_clust_5="63.28641" pt_clust_6="14000.00000"></scales>
<clustering>
<clus scale="   36.108">  2  3  1 -1</clus>
<clus scale="   63.286">  1  5  2 -1</clus>
<clus scale="   93.103">  2  4  1 -1</clus>
<clus scale="   63.286">  1  3  2 -1</clus>
</clustering>
</event>
<event>
 6    0  0.2036847E+002  0.9455614E+02  0.7546771E-02  0.1292179E+00
         21   -1    0    0  506  501  0.00000000000E+00  0.00000000000E+00  0.21797496596E+03  0.21797496596E+03  0.00000000000E+00 0. -1.
         21   -1    0    0  504  502 -0.00000000000E+00 -0.00000000000E+00 -0.11707637636E+04  0.11707637636E+04  0.00000000000E+00 0.  1.
         21    1    1    2  503  501  0.23017945604E+02  0.80356912088E+02 -0.45536974906E+02  0.95187579147E+02  0.00000000000E+00 0. -1.
         21    1    1    2  504  503  0.24149429918E+02 -0.33905391919E+02 -0.56009624933E+03  0.56164096991E+03  0.00000000000E+00 0.  1.
         21    1    1    2  505  502  0.30840938835E+02  0.14648981158E+02 -0.52618326171E+03  0.52728984540E+03  0.00000000000E+00 0.  1.
         21    1    1    2  506  505 -0.78008314357E+02 -0.61100501327E+02  0.17902768829E+03  0.20462033513E+03  0.00000000000E+00 0. -1.
<scales pt_clust_3="94.55614" pt_clust_4="55.21830" pt_clust_5="34.14317" pt_clust_6="14000.00000"></scales>
<clustering>
<clus scale="   34.143">  2  5  1 -1</clus>
<clus scale="   55.218">  2  4  1 -1</clus>
<clus scale="   94.556">  2  3  1 -1</clus>
<clus scale="   94.556">  1  3  2 -1</clus>
</clustering>
</event>
<event>
 6    0  0.2036847E+002  0.1098442E+03  0.7546771E-02  0.1260859E+00
         21   -1    0    0  506  501  0.00000000000E+00  0.00000000000E+00  0.10035639516E+04  0.10035639516E+04  0.00000000000E+00 0. -1.
         21   -1    0    0  503  502 -0.00000000000E+00 -0.00000000000E+00 -0.64637485567E+02  0.64637485567E+02  0.00000000000E+00 0. -1.
         21    1    1    2  503  501 -0.25958355367E+02 -0.23966305734E+02  0.69753601595E+02  0.78190696118E+02  0.00000000000E+00 0.  1.
         21    1    1    2  504  505  0.91054368144E+02  0.66998032152E+02  0.62138699854E+03  0.63158644399E+03  0.00000000000E+00 0. -1.
         21    1    1    2  505  502 -0.63215086031E+02 -0.90076186268E+02  0.39829807234E+01  0.11011689503E+03  0.00000000000E+00 0. -1.
         21    1    1    2  506  504 -0.18809267453E+01  0.47044459849E+02  0.24380288515E+03  0.24830740202E+03  0.00000000000E+00 0. -1.
<scales pt_clust_3="35.33016" pt_clust_4="109.84415" pt_clust_5="14000.00000" pt_clust_6="41.63111"></scales>
<clustering>
<clus scale="   35.330">  1  3  2 -1</clus>
<clus scale="   41.631">  1  6  2 -1</clus>
<clus scale="  109.844">  1  4  2 -1</clus>
<clus scale="   35.330">  1  3  2 -1</clus>
</clustering>
</event>
<event>
 6    0  0.2036847E+002  0.9339930E+02  0.7546771E-02  0.1294822E+00
         21   -1    0    0  506  501  0.00000000000E+00  0.00000000000E+00  0.29904002395E+03  0.29904002395E+03  0.00000000000E+00 0. -1.
         21   -1    0    0  505  502 -0.00000000000E+00 -0.00000000000E+00 -0.58573580566E+03  0.58573580566E+03  0.00000000000E+00 0. -1.
         21    1    1    2  503  502  0.92539692660E+01  0.59584516633E+02 -0.35825370334E+03  0.36329281100E+03  0.00000000000E+00 0. -1.
         21    1    1    2  504  503 -0.24298565937E+02  0.21570007872E+02 -0.17429573313E+03  0.17729830268E+03  0.00000000000E+00 0. -1.
         21    1    1    2  505  501 -0.23737779199E+02 -0.12704315329E+03  0.25258203553E+03  0.28372720989E+03  0.00000000000E+00 0. -1.
         21    1    1    2  506  504  0.38782375869E+02  0.45888628781E+02 -0.67283807676E+01  0.60457506045E+02  0.00000000000E+00 0.  1.
<scales pt_clust_3="31.29398" pt_clust_4="31.29398" pt_clust_5="83.10221" pt_clust_6="60.08194"></scales>
<clustering>
<clus scale="   31.294">  3  4 -1 -1</clus>
<clus scale="   60.082">  1  6  2 -1</clus>
<clus scale="   83.102">  1  5  2 -1</clus>
<clus scale="   60.082">  1  3  2 -1</clus>
</clustering>
</event>
<event>
 6    0  0.2036847E+002  0.8638490E+02  0.7546771E-02  0.1311850E+00
         21   -1    0    0  504  501  0.00000000000E+00  0.00000000000E+00  0.78147621638E+03  0.78147621638E+03  0.00000000000E+00 0. -1.
         21   -1    0    0  505  502 -0.00000000000E+00 -0.00000000000E+00 -0.28880024549E+03  0.28880024549E+03  0.00000000000E+00 0. -1.
         21    1    1    2  503  501  0.77235845683E+02  0.38729763235E+02  0.71517700503E+03  0.72037734483E+03  0.00000000000E+00 0. -1.
         21    1    1    2  504  502 -0.59144873423E+02 -0.71476639181E+02 -0.19391029166E+03  0.21496098998E+03  0.00000000000E+00 0. -1.
         21    1    1    2  505  506  0.37484104745E+02  0.38763732097E+02  0.23229738008E+02  0.58713761271E+02  0.00000000000E+00 0.  1.
         21    1    1    2  506  503 -0.55575077006E+02 -0.60168561519E+01 -0.51820480484E+02  0.76224365788E+02  0.00000000000E+00 0. -1.
<scales pt_clust_3="86.38490" pt_clust_4="14000.00000" pt_clust_5="53.92295" pt_clust_6="46.82687"></scales>
<clustering>
<clus scale="   53.923">  2  5  1 -1</clus>
<clus scale="   46.827">  2  6  1 -1</clus>
<clus scale="   86.385">  1  3  2 -1</clus>
<clus scale="   86.385">  1  3  2 -1</clus>
</clustering>
</event>
<event>
 6    0  0.2036847E+002  0.1101231E+03  0.7546771E-02  0.1260342E+00
         21   -1    0    0  506  501  0.00000000000E+00  0.00000000000E+00  0.27037260300E+03  0.27037260300E+03  0.00000000000E+00 0.  1.
         21   -1    0    0  503  502 -0.00000000000E+00 -0.00000000000E+00 -0.14323145092E+04  0.14323145092E+04  0.00000000000E+00 0.  1.
         21    1    1    2  503  505  0.16467409216E+02  0.85476722114E+02 -0.43272071887E+03  0.44138947215E+03  0.00000000000E+00 0.  1.
         21    1    1    2  504  502  0.87150821833E+02 -0.25585637354E+02 -0.96659374745E+03  0.97085187500E+03  0.00000000000E+00 0.  1.
         21    1    1    2  505  501 -0.67880800538E+02 -0.13511298596E+02  0.30837120969E+02  0.75771276227E+02  0.00000000000E+00 0.  1.
         21    1    1    2  506  504 -0.35737430511E+02 -0.46379786164E+02  0.20653543917E+03  0.21467448879E+03  0.00000000000E+00 0.  1.
<scales pt_clust_3="83.27736" pt_clust_4="110.12310" pt_clust_5="14000.00000" pt_clust_6="58.55125"></scales>
<clustering>
<clus scale="   58.551">  1  6  2 -1</clus>
<clus scale="   83.277">  2  3  1 -1</clus>
<clus scale="  110.123">  2  4  1 -1</clus>
<clus scale="   58.551">  1  3  2 -1</clus>
</clustering>
</event>
<event>
 6    0  0.2036847E+002  0.3635395E+03  0.7546771E-02  0.1057191E+00
         21   -1    0    0  504  501  0.00000000000E+00  0.00000000000E+00  0.13447982232E+04  0.13447982232E+04  0.00000000000E+00 0.  1.
         21   -1    0    0  506  502 -0.00000000000E+00 -0.00000000000E+00 -0.36391517634E+03  0.36391517634E+03  0.00000000000E+00 0.  1.
         21    1    1    2  503  505 -0.31881442790E+03 -0.33331384595E+03  0.88165616252E+03  0.99501675777E+03  0.00000000000E+00 0.  1.
         21    1    1    2  504  503 -0.59718250062E+02  0.25041712549E+02  0.63187876238E+02  0.90476872522E+02  0.00000000000E+00 0. -1.
         21    1    1    2  505  502  0.15281799467E+03  0.17690359486E+03 -0.17125723198E+03  0.28978830355E+03  0.00000000000E+00 0.  1.
         21    1    1    2  506  501  0.22571468330E+03  0.13136853854E+03  0.20729624010E+03  0.33343146572E+03  0.00000000000E+00 0.  1.
<scales pt_clust_3="363.53946" pt_clust_4="64.75613" pt_clust_5="232.84843" pt_clust_6="14000.00000"></scales>
<clustering>
<clus scale="   64.756">  1  4  2 -1</clus>
<clus scale="  232.848">  2  5  1 -1</clus>
<clus scale="  363.539">  1  3  2 -1</clus>
<clus scale="   64.756">  1  3  2 -1</clus>
</clustering>
</event>
<event>
 6    0  0.2036847E+002  0.1104399E+03  0.7546771E-02  0.1259757E+00
         21   -1    0    0  506  501  0.00000000000E+00  0.00000000000E+00  0.22923942446E+03  0.22923942446E+03  0.00000000000E+00 0.  1.
         21   -1    0    0  505  502 -0.00000000000E+00 -0.00000000000E+00 -0.94299248210E+02  0.94299248210E+02  0.00000000000E+00 0. -1.
         21    1    1    2  503  502 -0.14627639084E+02 -0.49339505650E+02 -0.20428671434E+02  0.55368630645E+02  0.00000000000E+00 0. -1.
         21    1    1    2  504  501  0.35462562841E+02 -0.18614942187E+01  0.68793259724E+01  0.36171586222E+02  0.00000000000E+00 0. -1.
         21    1    1    2  505  504  0.72342675101E+02  0.43838075895E+02  0.75986553713E+02  0.11370662199E+03  0.00000000000E+00 0. -1.
         21    1    1    2  506  503 -0.93177598858E+02  0.73629239734E+01  0.72502967996E+02  0.11829183381E+03  0.00000000000E+00 0.  1.
<scales pt_clust_3="51.46217" pt_clust_4="30.47832" pt_clust_5="30.47832" pt_clust_6="99.92125"></scales>
<clustering>
<clus scale="   30.478">  4  5 -1 -1</clus>
<clus scale="   51.462">  2  3  1 -1</clus>
<clus scale="   99.921">  1  6  2 -1</clus>
<clus scale="   99.921">  1  3  2 -1</clus>
</clustering>
</event>
<event>
 6    0  0.2036847E+002  0.1346032E+03  0.7546771E-02  0.1220781E+00
         21   -1    0    0  504  501  0.00000000000E+00  0.00000000000E+00  0.35978840384E+03  0.35978840384E+03  0.00000000000E+00 0. -1.
         21   -1    0    0  505  502 -0.00000000000E+00 -0.00000000000E+00 -0.13309403928E+03  0.13309403928E+03  0.00000000000E+00 0. -1.
         21    1    1    2  503  501  0.85856180611E+02 -0.14836061817E+02  0.79706466868E+02  0.11808688894E+03  0.00000000000E+00 0. -1.
         21    1    1    2  504  506 -0.11131044923E+03  0.20215374372E+02  0.19015436972E+03  0.22126310535E+03  0.00000000000E+00 0. -1.
         21    1    1    2  505  503  0.66411956899E+02 -0.32462672524E+02 -0.66259470329E+02  0.99270793967E+02  0.00000000000E+00 0.  1.
         21    1    1    2  506  502 -0.40957688281E+02  0.27083359970E+02  0.23092998307E+02  0.54261654853E+02  0.00000000000E+00 0. -1.
<scales pt_clust_3="114.46101" pt_clust_4="46.66259" pt_clust_5="73.92140" pt_clust_6="46.66259"></scales>
<clustering>
<clus scale="   46.663">  4  6 -1 -1</clus>
<clus scale="   73.921">  2  5  1 -1</clus>
<clus scale="  114.461">  1  3  2 -1</clus>
<clus scale="  114.461">  1  3  2 -1</clus>
</clustering>
</event>
<event>
 6    0  0.2036847E+002  0.1766217E+03  0.7546771E-02  0.1171113E+00
         21   -1    0    0  505  501  0.00000000000E+00  0.00000000000E+00  0.12998589359E+03  0.12998589359E+03  0.00000000000E+00 0. -1.
         21   -1    0    0  503  502 -0.00000000000E+00 -0.00000000000E+00 -0.34855680533E+03  0.34855680533E+03  0.00000000000E+00 0. -1.
         21    1    1    2  503  506  0.53172325467E+02  0.92918411836E+02 -0.80438169179E+01  0.10735842046E+03  0.00000000000E+00 0. -1.
         21    1    1    2  504  502 -0.43085677956E+02 -0.38885470228E+02 -0.11170231045E+03  0.12588034636E+03  0.00000000000E+00 0. -1.
         21    1    1    2  505  504 -0.45532981446E+02 -0.10560048055E+03 -0.13151663291E+03  0.17470357359E+03  0.00000000000E+00 0. -1.
         21    1    1    2  506  501  0.35446333935E+02  0.51567538942E+02  0.32691848529E+02  0.70600358513E+02  0.00000000000E+00 0. -1.
<scales pt_clust_3="176.24359" pt_clust_4="35.27674" pt_clust_5="35.27674" pt_clust_6="36.92246"></scales>
<clustering>
<clus scale="   35.277">  4  5 -1 -1</clus>
<clus scale="   36.922">  3  6 -1 -1</clus>
<clus scale="  176.244">  1  3  2 -1</clus>
<clus scale="  176.244">  1  3  2 -1</clus>
</clustering>
</event>
<event>
 6    0  0.2036847E+002  0.1750546E+03  0.7546771E-02  0.1172677E+00
         21   -1    0    0  502  501  0.00000000000E+00  0.00000000000E+00  0.20231046336E+03  0.20231046336E+03  0.00000000000E+00 0. -1.
         21   -1    0    0  504  502 -0.00000000000E+00 -0.00000000000E+00 -0.25494704672E+03  0.25494704672E+03  0.00000000000E+00 0.  1.
         21    1    1    2  503  501  0.42186703459E+02 -0.39625597941E+01  0.59804102448E+02  0.73293591115E+02  0.00000000000E+00 0. -1.
         21    1    1    2  504  505 -0.89102728550E+02 -0.18484942725E+02 -0.14815947941E+03  0.17387415185E+03  0.00000000000E+00 0.  1.
         21    1    1    2  505  506 -0.65338675373E+02 -0.21490956625E+02 -0.27374175698E+02  0.74029380730E+02  0.00000000000E+00 0.  1.
         21    1    1    2  506  503  0.11225470046E+03  0.43938459144E+02  0.63092969298E+02  0.13606038638E+03  0.00000000000E+00 0. -1.
<scales pt_clust_3="33.92968" pt_clust_4="62.65614" pt_clust_5="62.65614" pt_clust_6="169.48569"></scales>
<clustering>
<clus scale="   33.930">  3  6 -1 -1</clus>
<clus scale="   62.656">  4  5 -1 -1</clus>
<clus scale="  169.486">  1  3  2 -1</clus>
<clus scale="  169.486">  1  3  2 -1</clus>
</clustering>
</event>
<event>
 6    0  0.2036847E+002  0.1178309E+03  0.7546771E-02  0.1246719E+00
         21   -1    0    0  503  501  0.00000000000E+00  0.00000000000E+00  0.80264559099E+03  0.80264559099E+03  0.00000000000E+00 0.  1.
         21   -1    0    0  504  502 -0.00000000000E+00 -0.00000000000E+00 -0.54508998104E+03  0.54508998104E+03  0.00000000000E+00 0.  1.
         21    1    1    2  503  502  0.76149637152E+02 -0.96017683757E+02  0.74367327861E+03  0.75370293097E+03  0.00000000000E+00 0.  1.
         21    1    1    2  504  506 -0.40294855289E+02 -0.18709003406E+02 -0.29469285478E+03  0.29802278576E+03  0.00000000000E+00 0.  1.
         21    1    1    2  505  501  0.78212557247E+01  0.96928574286E+02  0.16505127533E+01  0.97257620506E+02  0.00000000000E+00 0. -1.
         21    1    1    2  506  505 -0.43676037587E+02  0.17798112877E+02 -0.19307532663E+03  0.19875223479E+03  0.00000000000E+00 0. -1.
<scales pt_clust_3="117.83090" pt_clust_4="41.35600" pt_clust_5="14000.00000" pt_clust_6="94.16805"></scales>
<clustering>
<clus scale="   41.356">  4  6 -1 -1</clus>
<clus scale="   94.168">  2  4  1 -1</clus>
<clus scale="  117.831">  1  3  2 -1</clus>
<clus scale="  117.831">  1  3  2 -1</clus>
</clustering>
</event>
<event>
 6    0  0.2036847E+002  0.1399134E+03  0.7546771E-02  0.1213445E+00
         21   -1    0    0  506  501  0.00000000000E+00  0.00000000000E+00  0.13737646990E+04  0.13737646990E+04  0.00000000000E+00 0.  1.
         21   -1    0    0  504  502 -0.00000000000E+00 -0.00000000000E+00 -0.11345755619E+03  0.11345755619E+03  0.00000000000E+00 0. -1.
         21    1    1    2  503  502  0.23247128648E+02 -0.64813882471E+02 -0.88464948336E+02  0.11210403844E+03  0.00000000000E+00 0. -1.
         21    1    1    2  504  501 -0.75695676685E+01 -0.62788520716E+02  0.10018815068E+03  0.11847937468E+03  0.00000000000E+00 0. -1.
         21    1    1    2  505  503 -0.25512152709E+02  0.59604744029E+02  0.39413355417E+03  0.39943066228E+03  0.00000000000E+00 0.  1.
         21    1    1    2  506  505  0.98345917295E+01  0.67997659158E+02  0.85445038630E+03  0.85720817979E+03  0.00000000000E+00 0.  1.
<scales pt_clust_3="126.19274" pt_clust_4="63.24316" pt_clust_5="58.69839" pt_clust_6="58.69839"></scales>
<clustering>
<clus scale="   58.698">  5  6 -1 -1</clus>
<clus scale="   63.243">  2  4  1 -1</clus>
<clus scale="  126.193">  2  3  1 -1</clus>
<clus scale="  139.913">  1  3  2 -1</clus>
</clustering>
</event>
<event>
 6    0  0.2036847E+002  0.1067733E+03  0.7546771E-02  0.1266665E+00
         21   -1    0    0  503  501  0.00000000000E+00  0.00000000000E+00  0.20904204958E+02  0.20904204958E+02  0.00000000000E+00 0. -1.
         21   -1    0    0  505  502 -0.00000000000E+00 -0.00000000000E+00 -0.29671819905E+04  0.29671819905E+04  0.00000000000E+00 0. -1.
         21    1    1    2  503  504 -0.46234206667E+02  0.23149601976E+01 -0.27592794172E+03  0.27978418456E+03  0.00000000000E+00 0. -1.
         21    1    1    2  504  502 -0.28980174013E+02  0.29998643367E+02 -0.93486482230E+03  0.93579485202E+03  0.00000000000E+00 0. -1.
         21    1    1    2  505  506 -0.31706443722E+02 -0.68579622342E+02 -0.15720583973E+04  0.15738729516E+04  0.00000000000E+00 0. -1.
         21    1    1    2  506  501  0.10692082440E+03  0.36266018777E+02 -0.16342662422E+03  0.19863420731E+03  0.00000000000E+00 0. -1.
<scales pt_clust_3="50.60578" pt_clust_4="41.71054" pt_clust_5="106.77332" pt_clust_6="14000.00000"></scales>
<clustering>
<clus scale="   41.711">  2  4  1 -1</clus>
<clus scale="   50.606">  2  3  1 -1</clus>
<clus scale="  106.773">  2  5  1 -1</clus>
<clus scale="  106.773">  1  3  2 -1</clus>
</clustering>
</event>
<event>
 6    0  0.3750361E+002  0.7993459E+02  0.7546771E-02  0.1329237E+00
         21   -1    0    0  504  501  0.00000000000E+00  0.00000000000E+00  0.59254189803E+03  0.59254189803E+03  0.00000000000E+00 0. -1.
         21   -1    0    0  506  502 -0.00000000000E+00 -0.00000000000E+00 -0.10886763163E+04  0.10886763163E+04  0.00000000000E+00 0. -1.
         21    1    1    2  503  502 -0.42198532477E+02 -0.60037856245E+02 -0.29763370057E+02  0.79190394133E+02  0.00000000000E+00 0.  1.
         21    1    1    2  504  503 -0.76695424369E+00  0.31878087319E+02  0.50461212985E+02  0.59691998508E+02  0.00000000000E+00 0.  1.
         21    1    1    2  505  501 -0.46444669321E+02  0.34446007165E+02  0.50916148538E+03  0.51243443767E+03  0.00000000000E+00 0. -1.
         21    1    1    2  506  505  0.89410156042E+02 -0.62862382383E+01 -0.10259937466E+04  0.10299013840E+04  0.00000000000E+00 0. -1.
<scales pt_clust_3="72.21066" pt_clust_4="31.88731" pt_clust_5="79.93459" pt_clust_6="14000.00000"></scales>
<clustering>
<clus scale="   31.887">  1  4  2 -1</clus>
<clus scale="   72.211">  2  3  1 -1</clus>
<clus scale="   79.935">  1  5  2 -1</clus>
<clus scale="   31.887">  1  3  2 -1</clus>
</clustering>
</event>
<event>
 6    0  0.2036847E+002  0.1280967E+03  0.7546771E-02  0.1230308E+00
         21   -1    0    0  505  501  0.00000000000E+00  0.00000000000E+00  0.57300807114E+03  0.57300807114E+03  0.00000000000E+00 0. -1.
         21   -1    0    0  506  502 -0.00000000000E+00 -0.00000000000E+00 -0.18147987672E+03  0.18147987672E+03  0.00000000000E+00 0. -1.
         21    1    1    2  503  502  0.33941890595E+02  0.21932582577E+01 -0.23993218260E+02  0.41623753332E+02  0.00000000000E+00 0.  1.
         21    1    1    2  504  503  0.24939825877E+02 -0.12439316971E+03 -0.10543938194E+03  0.16496399259E+03  0.00000000000E+00 0. -1.
         21    1    1    2  505  504  0.19736190861E+02  0.72058671950E+02  0.19353216406E+03  0.20745280899E+03  0.00000000000E+00 0. -1.
         21    1    1    2  506  501 -0.78617907333E+02  0.50141239506E+02  0.32742863056E+03  0.34044739295E+03  0.00000000000E+00 0. -1.
<scales pt_clust_3="34.01268" pt_clust_4="128.09671" pt_clust_5="75.24644" pt_clust_6="14000.00000"></scales>
<clustering>
<clus scale="   34.013">  2  3  1 -1</clus>
<clus scale="   75.246">  1  5  2 -1</clus>
<clus scale="  128.097">  2  4  1 -1</clus>
<clus scale="   75.246">  1  3  2 -1</clus>
</clustering>
</event>
<event>
 6    0  0.2036847E+002  0.1613380E+03  0.7546771E-02  0.1187194E+00
         21   -1    0    0  506  501  0.00000000000E+00  0.00000000000E+00  0.35380569688E+03  0.35380569688E+03  0.00000000000E+00 0. -1.
         21   -1    0    0  505  502 -0.00000000000E+00 -0.00000000000E+00 -0.45938002940E+03  0.45938002940E+03  0.00000000000E+00 0. -1.
         21    1    1    2  503  501 -0.78471391571E+02  0.14885235682E+02  0.42806422220E+02  0.90618537396E+02  0.00000000000E+00 0. -1.
         21    1    1    2  504  502  0.21971030325E+02 -0.61355595557E+02 -0.24472676197E+03  0.25325564812E+03  0.00000000000E+00 0. -1.
         21    1    1    2  505  503  0.56510025331E+02 -0.10254247263E+03 -0.14457059438E+03  0.18603493870E+03  0.00000000000E+00 0. -1.
         21    1    1    2  506  504 -0.96640841572E-02  0.14901283250E+03  0.24091660162E+03  0.28327660207E+03  0.00000000000E+00 0. -1.
<scales pt_clust_3="76.38589" pt_clust_4="65.17082" pt_clust_5="161.33800" pt_clust_6="14000.00000"></scales>
<clustering>
<clus scale="   65.171">  2  4  1 -1</clus>
<clus scale="   76.386">  1  3  2 -1</clus>
<clus scale="  161.338">  2  5  1 -1</clus>
<clus scale="   76.386">  1  3  2 -1</clus>
</clustering>
</event>
<event>
 6    0  0.2036847E+002  0.1476084E+03  0.7546771E-02  0.1203443E+00
         21   -1    0    0  504  501  0.00000000000E+00  0.00000000000E+00  0.83108188467E+02  0.83108188467E+02  0.00000000000E+00 0.  1.
         21   -1    0    0  503  502 -0.00000000000E+00 -0.00000000000E+00 -0.43897870998E+03  0.43897870998E+03  0.00000000000E+00 0.  1.
         21    1    1    2  503  505  0.98950494843E+02 -0.52949201476E+01 -0.36400756901E+02  0.10556633797E+03  0.00000000000E+00 0.  1.
         21    1    1    2  504  506 -0.88254268979E+02 -0.66228848619E+02 -0.15921921158E+03  0.19371585820E+03  0.00000000000E+00 0.  1.
         21    1    1    2  505  501  0.44146730077E+02  0.45382322678E+02 -0.14576170422E+02  0.64968867408E+02  0.00000000000E+00 0.  1.
         21    1    1    2  506  502 -0.54842955941E+02  0.26141446088E+02 -0.14567438261E+03  0.15783583487E+03  0.00000000000E+00 0.  1.
<scales pt_clust_3="53.02026" pt_clust_4="131.86521" pt_clust_5="53.02026" pt_clust_6="60.75463"></scales>
<clustering>
<clus scale="   53.020">  3  5 -1 -1</clus>
<clus scale="   60.755">  2  6  1 -1</clus>
<clus scale="  131.865">  2  4  1 -1</clus>
<clus scale="  147.608">  1  3  2 -1</clus>
</clustering>
</event>
<event>
 6    0  0.2036847E+002  0.2768646E+03  0.7546771E-02  0.1097414E+00
         21   -1    0    0  505  501  0.00000000000E+00  0.00000000000E+00  0.24329889975E+03  0.24329889975E+03  0.00000000000E+00 0. -1.
         21   -1    0    0  501  502 -0.00000000000E+00 -0.00000000000E+00 -0.60731808475E+03  0.60731808475E+03  0.00000000000E+00 0.  1.
         21    1    1    2  503  504  0.12552030785E+03 -0.69787480276E+02 -0.23648175932E+03  0.27667537400E+03  0.00000000000E+00 0.  1.
         21    1    1    2  504  502  0.14581162600E+03 -0.15062285827E+02 -0.20403399103E+03  0.25123250631E+03  0.00000000000E+00 0.  1.
         21    1    1    2  505  506 -0.67094390792E+02 -0.23786820507E+02  0.55805297827E+02  0.90452757676E+02  0.00000000000E+00 0. -1.
         21    1    1    2  506  503 -0.20423754306E+03  0.10863658661E+03  0.20691267523E+02  0.23225634652E+03  0.00000000000E+00 0. -1.
<scales pt_clust_3="61.11329" pt_clust_4="61.11329" pt_clust_5="71.18617" pt_clust_6="269.89238"></scales>
<clustering>
<clus scale="   61.113">  3  4 -1 -1</clus>
<clus scale="   71.186">  1  5  2 -1</clus>
<clus scale="  269.892">  1  6  2 -1</clus>
<clus scale="   71.186">  1  3  2 -1</clus>
</clustering>
</event>
<event>
 6    0  0.2036847E+002  0.8889824E+02  0.7546771E-02  0.1305542E+00
         21   -1    0    0  504  501  0.00000000000E+00  0.00000000000E+00  0.68374387055E+02  0.68374387055E+02  0.00000000000E+00 0. -1.
         21   -1    0    0  503  502 -0.00000000000E+00 -0.00000000000E+00 -0.88287771490E+03  0.88287771490E+03  0.00000000000E+00 0.  1.
         21    1    1    2  503  505  0.34279822163E+02 -0.80919580441E+01 -0.12803628185E+03  0.13279260319E+03  0.00000000000E+00 0. -1.
         21    1    1    2  504  502  0.49021997393E+02 -0.26419543868E+02 -0.57974838391E+03  0.58241680708E+03  0.00000000000E+00 0.  1.
         21    1    1    2  505  506 -0.10499004747E+03  0.86360456966E+02 -0.11645290422E+03  0.17900368012E+03  0.00000000000E+00 0. -1.
         21    1    1    2  506  501  0.21688227917E+02 -0.51848955055E+02  0.97342421270E+01  0.57039011564E+02  0.00000000000E+00 0. -1.
<scales pt_clust_3="35.22195" pt_clust_4="14000.00000" pt_clust_5="88.89824" pt_clust_6="56.85978"></scales>
<clustering>
<clus scale="   35.222">  2  3  1 -1</clus>
<clus scale="   56.860">  1  6  2 -1</clus>
<clus scale="   88.898">  1  5  2 -1</clus>
<clus scale="   56.860">  1  3  2 -1</clus>
</clustering>
</event>
<event>
 6    0  0.2036847E+002  0.1340664E+03  0.7546771E-02  0.1221544E+00
         21   -1    0    0  502  501  0.00000000000E+00  0.00000000000E+00  0.10378789227E+04  0.10378789227E+04  0.00000000000E+00 0.  1.
         21   -1    0    0  505  502 -0.00000000000E+00 -0.00000000000E+00 -0.24291223651E+02  0.24291223651E+02  0.00000000000E+00 0.  1.
         21    1    1    2  503  506 -0.44630171529E+02  0.75358590775E+02  0.58363469326E+03  0.59016965747E+03  0.00000000000E+00 0.  1.
         21    1    1    2  504  503 -0.49288123749E+01 -0.52333614706E+02  0.51584285630E+02  0.73648074948E+02  0.00000000000E+00 0.  1.
         21    1    1    2  505  504  0.34955561974E+02 -0.64972678512E+02  0.17028677633E+03  0.18558266745E+03  0.00000000000E+00 0. -1.
         21    1    1    2  506  501  0.14603421930E+02  0.41947702443E+02  0.20808194382E+03  0.21276974648E+03  0.00000000000E+00 0.  1.
<scales pt_clust_3="133.77763" pt_clust_4="48.57257" pt_clust_5="48.57257" pt_clust_6="40.49863"></scales>
<clustering>
<clus scale="   40.499">  3  6 -1 -1</clus>
<clus scale="   48.573">  4  5 -1 -1</clus>
<clus scale="  133.778">  1  3  2 -1</clus>
<clus scale="  133.778">  1  3  2 -1</clus>
</clustering>
</event>
<event>
 6    0  0.2036847E+002  0.1505027E+03  0.7546771E-02  0.1199857E+00
         21   -1    0    0  504  501  0.00000000000E+00  0.00000000000E+00  0.18066193506E+02  0.18066193506E+02  0.00000000000E+00 0. -1.
         21   -1    0    0  506  502 -0.00000000000E+00 -0.00000000000E+00 -0.21058879362E+04  0.21058879362E+04  0.00000000000E+00 0.  1.
         21    1    1    2  503  502  0.29367154258E+02  0.47900075940E+02 -0.17192188850E+03  0.18087007151E+03  0.00000000000E+00 0. -1.
         21    1    1    2  504  503  0.20279119426E+02  0.77894117539E+02 -0.14534594298E+03  0.16614505521E+03  0.00000000000E+00 0. -1.
         21    1    1    2  505  501 -0.62348314731E+01 -0.76522390859E+02 -0.66106605292E+03  0.66550948585E+03  0.00000000000E+00 0.  1.
         21    1    1    2  506  505 -0.43411442212E+02 -0.49271802619E+02 -0.11094878583E+04  0.11114295172E+04  0.00000000000E+00 0.  1.
<scales pt_clust_3="32.05154" pt_clust_4="140.57248" pt_clust_5="61.08201" pt_clust_6="61.08201"></scales>
<clustering>
<clus scale="   32.052">  3  4 -1 -1</clus>
<clus scale="   61.082">  5  6 -1 -1</clus>
<clus scale="  140.572">  1  3  2 -1</clus>
<clus scale="  140.572">  1  3  2 -1</clus>
</clustering>
</event>
<event>
 6    0  0.2036847E+002  0.1205728E+03  0.7546771E-02  0.1242155E+00
         21   -1    0    0  503  501  0.00000000000E+00  0.00000000000E+00  0.80493173610E+03  0.80493173610E+03  0.00000000000E+00 0. -1.
         21   -1    0    0  504  502 -0.00000000000E+00 -0.00000000000E+00 -0.13594780481E+03  0.13594780481E+03  0.00000000000E+00 0. -1.
         21    1    1    2  503  502 -0.22478843382E+02 -0.41592435031E+02  0.28349571232E+03  0.28741093917E+03  0.00000000000E+00 0. -1.
         21    1    1    2  504  505  0.46136579344E+02 -0.17273439776E+02 -0.48225971449E+02  0.68939828818E+02  0.00000000000E+00 0. -1.
         21    1    1    2  505  506  0.58892096451E+02  0.42006552619E+02 -0.53569980239E+02  0.90014289255E+02  0.00000000000E+00 0. -1.
         21    1    1    2  506  501 -0.82549832414E+02  0.16859322188E+02  0.48728417065E+03  0.49451448366E+03  0.00000000000E+00 0. -1.
<scales pt_clust_3="47.27821" pt_clust_4="47.12736" pt_clust_5="47.12736" pt_clust_6="106.19112"></scales>
<clustering>
<clus scale="   47.127">  4  5 -1 -1</clus>
<clus scale="   47.278">  1  3  2 -1</clus>
<clus scale="  106.191">  1  6  2 -1</clus>
<clus scale="   47.278">  1  3  2 -1</clus>
</clustering>
</event>
<event>
 6    0  0.2036847E+002  0.1368792E+03  0.7546771E-02  0.1217591E+00
         21   -1    0    0  504  501  0.00000000000E+00  0.00000000000E+00  0.15839879501E+03  0.15839879501E+03  0.00000000000E+00 0. -1.
         21   -1    0    0  501  502 -0.00000000000E+00 -0.00000000000E+00 -0.10380517357E+04  0.10380517357E+04  0.00000000000E+00 0. -1.
         21    1    1    2  503  506 -0.19986169883E+02 -0.80521629388E+02  0.53354781706E+02  0.98640318921E+02  0.00000000000E+00 0. -1.
         21    1    1    2  504  503 -0.29146122321E+02 -0.42018426216E+02  0.68041834872E+02  0.85116014244E+02  0.00000000000E+00 0. -1.
         21    1    1    2  505  502 -0.19619381463E+02  0.39023928537E+02 -0.23224346803E+03  0.23631507690E+03  0.00000000000E+00 0. -1.
         21    1    1    2  506  505  0.68751673667E+02  0.83516127067E+02 -0.76880608920E+03  0.77637912060E+03  0.00000000000E+00 0. -1.
<scales pt_clust_3="31.39601" pt_clust_4="31.39601" pt_clust_5="43.67822" pt_clust_6="130.90722"></scales>
<clustering>
<clus scale="   31.396">  3  4 -1 -1</clus>
<clus scale="   43.678">  2  5  1 -1</clus>
<clus scale="  130.907">  2  6  1 -1</clus>
<clus scale="  136.879">  1  3  2 -1</clus>
</clustering>
</event>
<event>
 6    0  0.2036847E+002  0.2682339E+03  0.7546771E-02  0.1102295E+00
         21   -1    0    0  504  501  0.00000000000E+00  0.00000000000E+00  0.24644870658E+03  0.24644870658E+03  0.00000000000E+00 0.  1.
         21   -1    0    0  506  502 -0.00000000000E+00 -0.00000000000E+00 -0.11117826253E+04  0.11117826253E+04  0.00000000000E+00 0.  1.
         21    1    1    2  503  505  0.34168262070E+02  0.31235126889E+02 -0.96192695896E+02  0.10675269565E+03  0.00000000000E+00 0.  1.
         21    1    1    2  504  502 -0.62516587083E+02  0.59200927648E+02 -0.43702744160E+02  0.96555700723E+02  0.00000000000E+00 0. -1.
         21    1    1    2  505  501 -0.18199117862E+03 -0.14778688052E+03  0.13279072283E+03  0.26943482926E+03  0.00000000000E+00 0.  1.
         21    1    1    2  506  503  0.21033950363E+03  0.57350825984E+02 -0.85822920146E+03  0.88548810622E+03  0.00000000000E+00 0.  1.
<scales pt_clust_3="35.66125" pt_clust_4="86.09921" pt_clust_5="256.82735" pt_clust_6="35.66125"></scales>
<clustering>
<clus scale="   35.661">  3  6 -1 -1</clus>
<clus scale="   86.099">  1  4  2 -1</clus>
<clus scale="  256.827">  1  5  2 -1</clus>
<clus scale="   86.099">  1  3  2 -1</clus>
</clustering>
</event>
<event>
 6    0  0.2036847E+002  0.1319968E+03  0.7546771E-02  0.1224523E+00
         21   -1    0    0  503  501  0.00000000000E+00  0.00000000000E+00  0.40041641377E+03  0.40041641377E+03  0.00000000000E+00 0. -1.
         21   -1    0    0  505  502 -0.00000000000E+00 -0.00000000000E+00 -0.66386042594E+03  0.66386042594E+03  0.00000000000E+00 0.  1.
         21    1    1    2  503  504  0.50090778536E+02  0.51990087633E+02  0.33154494452E+03  0.33931416938E+03  0.00000000000E+00 0. -1.
         21    1    1    2  504  506 -0.14244268021E+02 -0.32813821236E+02 -0.32713493891E+03  0.32908496515E+03  0.00000000000E+00 0.  1.
         21    1    1    2  505  501 -0.15372144871E+01  0.60019345798E+02  0.42621399488E+02  0.73629264513E+02  0.00000000000E+00 0. -1.
         21    1    1    2  506  502 -0.34309296028E+02 -0.79195612195E+02 -0.31047541727E+03  0.32224844067E+03  0.00000000000E+00 0.  1.
<scales pt_clust_3="120.98957" pt_clust_4="33.97304" pt_clust_5="60.03903" pt_clust_6="33.97304"></scales>
<clustering>
<clus scale="   33.973">  4  6 -1 -1</clus>
<clus scale="   60.039">  1  5  2 -1</clus>
<clus scale="  120.990">  1  3  2 -1</clus>
<clus scale="   60.039">  1  3  2 -1</clus>
</clustering>
</event>
<event>
 6    0  0.2036847E+002  0.1367618E+03  0.7546771E-02  0.1217754E+00
         21   -1    0    0  504  501  0.00000000000E+00  0.00000000000E+00  0.16153158569E+03  0.16153158569E+03  0.00000000000E+00 0. -1.
         21   -1    0    0  506  502 -0.00000000000E+00 -0.00000000000E+00 -0.32363094244E+03  0.32363094244E+03  0.00000000000E+00 0.  1.
         21    1    1    2  503  501 -0.70578517740E+02  0.12894549760E+03  0.79184430649E+02  0.16696838795E+03  0.00000000000E+00 0. -1.
         21    1    1    2  504  502  0.38028613731E+02  0.62865967041E+01 -0.17427476741E+02  0.42301462220E+02  0.00000000000E+00 0.  1.
         21    1    1    2  505  503  0.58699579630E+02 -0.79442179456E+02 -0.15151267501E+03  0.18086677753E+03  0.00000000000E+00 0.  1.
         21    1    1    2  506  505 -0.26149675622E+02 -0.55789914850E+02 -0.72343635642E+02  0.95025900428E+02  0.00000000000E+00 0. -1.
<scales pt_clust_3="14000.00000" pt_clust_4="38.54474" pt_clust_5="136.76182" pt_clust_6="56.12927"></scales>
<clustering>
<clus scale="   38.545">  2  4  1 -1</clus>
<clus scale="   56.129">  2  6  1 -1</clus>
<clus scale="  136.762">  2  5  1 -1</clus>
<clus scale="  136.762">  1  3  2 -1</clus>
</clustering>
</event>
<event>
 6    0  0.2036847E+002  0.7022037E+02  0.7546771E-02  0.1359345E+00
         21   -1    0    0  504  501  0.00000000000E+00  0.00000000000E+00  0.19074050315E+03  0.19074050315E+03  0.00000000000E+00 0. -1.
         21   -1    0    0  503  502 -0.00000000000E+00 -0.00000000000E+00 -0.12474929626E+04  0.12474929626E+04  0.00000000000E+00 0.  1.
         21    1    1    2  503  501 -0.25444316584E+02  0.68231937189E+02 -0.11071048741E+04  0.11094972793E+04  0.00000000000E+00 0.  1.
         21    1    1    2  504  505 -0.38770470915E+02  0.19758514462E+02  0.96314603775E+02  0.10568846299E+03  0.00000000000E+00 0. -1.
         21    1    1    2  505  506  0.89467260214E+02 -0.65705614176E+02  0.49706529084E+02  0.12162383573E+03  0.00000000000E+00 0. -1.
         21    1    1    2  506  502 -0.25252472715E+02 -0.22284837475E+02 -0.95668718197E+02  0.10142388772E+03  0.00000000000E+00 0.  1.
<scales pt_clust_3="70.22037" pt_clust_4="43.56561" pt_clust_5="14000.00000" pt_clust_6="33.67939"></scales>
<clustering>
<clus scale="   33.679">  2  6  1 -1</clus>
<clus scale="   43.566">  1  4  2 -1</clus>
<clus scale="   70.220">  2  3  1 -1</clus>
<clus scale="   43.566">  1  3  2 -1</clus>
</clustering>
</event>
<event>
 6    0  0.2036847E+002  0.1664354E+03  0.7546771E-02  0.1181617E+00
         21   -1    0    0  503  501  0.00000000000E+00  0.00000000000E+00  0.44883876480E+02  0.44883876480E+02  0.00000000000E+00 0. -1.
         21   -1    0    0  506  502 -0.00000000000E+00 -0.00000000000E+00 -0.13844000364E+04  0.13844000364E+04  0.00000000000E+00 0.  1.
         21    1    1    2  503  502  0.35297876126E+02  0.38013416455E+02 -0.22737651691E+03  0.23321886788E+03  0.00000000000E+00 0.  1.
         21    1    1    2  504  501 -0.47286619853E+02  0.34577770415E+02 -0.74060483665E+02  0.94427760032E+02  0.00000000000E+00 0. -1.
         21    1    1    2  505  504 -0.10981058262E+03  0.18806710824E+01 -0.87565108599E+02  0.14046191378E+03  0.00000000000E+00 0. -1.
         21    1    1    2  506  505  0.12179932635E+03 -0.74471857952E+02 -0.95051405079E+03  0.96117537124E+03  0.00000000000E+00 0.  1.
<scales pt_clust_3="51.87446" pt_clust_4="40.27830" pt_clust_5="40.27830" pt_clust_6="157.03233"></scales>
<clustering>
<clus scale="   40.278">  4  5 -1 -1</clus>
<clus scale="   51.874">  2  3  1 -1</clus>
<clus scale="  157.032">  2  6  1 -1</clus>
<clus scale="  166.435">  1  3  2 -1</clus>
</clustering>
</event>
<event>
 6    0  0.2036847E+002  0.7980925E+02  0.7546771E-02  0.1329594E+00
         21   -1    0    0  505  501  0.00000000000E+00  0.00000000000E+00  0.29320997687E+03  0.29320997687E+03  0.00000000000E+00 0.  1.
         21   -1    0    0  504  502 -0.00000000000E+00 -0.00000000000E+00 -0.16679980254E+03  0.16679980254E+03  0.00000000000E+00 0. -1.
         21    1    1    2  503  501 -0.67966690091E+02 -0.92080800095E+02 -0.49354886597E+01  0.11455437031E+03  0.00000000000E+00 0. -1.
         21    1    1    2  504  503  0.21273843820E+02  0.43680505829E+02 -0.81945067541E+02  0.95265718465E+02  0.00000000000E+00 0. -1.
         21    1    1    2  505  506  0.25089691974E+02 -0.34978071096E+02  0.90339524866E+02  0.10007091413E+03  0.00000000000E+00 0. -1.
         21    1    1    2  506  502  0.21603154297E+02  0.83378365362E+02  0.12295120567E+03  0.15011877651E+03  0.00000000000E+00 0.  1.
<scales pt_clust_3="79.80925" pt_clust_4="47.91432" pt_clust_5="43.04600" pt_clust_6="14000.00000"></scales>
<clustering>
<clus scale="   43.046">  1  5  2 -1</clus>
<clus scale="   47.914">  2  4  1 -1</clus>
<clus scale="   79.809">  2  3  1 -1</clus>
<clus scale="   43.046">  1  3  2 -1</clus>
</clustering>
</event>
<event>
 6    0  0.2036847E+002  0.1014677E+03  0.7546771E-02  0.1277240E+00
         21   -1    0    0  505  501  0.00000000000E+00  0.00000000000E+00  0.33788324741E+02  0.33788324741E+02  0.00000000000E+00 0. -1.
         21   -1    0    0  503  502 -0.00000000000E+00 -0.00000000000E+00 -0.65103350880E+03  0.65103350880E+03  0.00000000000E+00 0. -1.
         21    1    1    2  503  501 -0.10595141419E+02  0.82271972428E+02 -0.22847485429E+03  0.24306726129E+03  0.00000000000E+00 0. -1.
         21    1    1    2  504  502 -0.62586140818E+02 -0.17459789964E+02 -0.27682328564E+03  0.28434662080E+03  0.00000000000E+00 0. -1.
         21    1    1    2  505  506  0.51680078586E+02 -0.12154009184E+02 -0.45305294888E+02  0.69793410912E+02  0.00000000000E+00 0. -1.
         21    1    1    2  506  504  0.21501203652E+02 -0.52658173281E+02 -0.66641749241E+02  0.87614540538E+02  0.00000000000E+00 0. -1.
<scales pt_clust_3="87.21631" pt_clust_4="64.97591" pt_clust_5="50.09880" pt_clust_6="50.09880"></scales>
<clustering>
<clus scale="   50.099">  5  6 -1 -1</clus>
<clus scale="   64.976">  2  4  1 -1</clus>
<clus scale="   87.216">  2  3  1 -1</clus>
<clus scale="  101.468">  1  3  2 -1</clus>
</clustering>
</event>
<event>
 6    0  0.2036847E+002  0.1565600E+03  0.7546771E-02  0.1192636E+00
         21   -1    0    0  504  501  0.00000000000E+00  0.00000000000E+00  0.78606537533E+03  0.78606537533E+03  0.00000000000E+00 0. -1.
         21   -1    0    0  506  502 -0.00000000000E+00 -0.00000000000E+00 -0.12455388933E+03  0.12455388933E+03  0.00000000000E+00 0. -1.
         21    1    1    2  503  501 -0.31903318592E+02  0.45817031618E+02 -0.39002377759E+02  0.68104387482E+02  0.00000000000E+00 0. -1.
         21    1    1    2  504  505 -0.30291729644E+01 -0.62484430489E+02  0.43543480658E+03  0.43990561570E+03  0.00000000000E+00 0. -1.
         21    1    1    2  505  502  0.16614612046E+01 -0.75584687566E+02  0.29141818891E+03  0.30106538538E+03  0.00000000000E+00 0. -1.
         21    1    1    2  506  503  0.33271030352E+02  0.92252086438E+02 -0.26339131727E+02  0.10154387610E+03  0.00000000000E+00 0. -1.
<scales pt_clust_3="55.68164" pt_clust_4="37.03709" pt_clust_5="143.95398" pt_clust_6="55.68164"></scales>
<clustering>
<clus scale="   37.037">  4  5 -1 -1</clus>
<clus scale="   55.682">  3  6 -1 -1</clus>
<clus scale="  143.954">  1  4  2 -1</clus>
<clus scale="  143.954">  1  3  2 -1</clus>
</clustering>
</event>
<event>
 6    0  0.2036847E+002  0.8735468E+02  0.7546771E-02  0.1309387E+00
         21   -1    0    0  504  501  0.00000000000E+00  0.00000000000E+00  0.10588465324E+03  0.10588465324E+03  0.00000000000E+00 0.  1.
         21   -1    0    0  506  502 -0.00000000000E+00 -0.00000000000E+00 -0.16794875436E+04  0.16794875436E+04  0.00000000000E+00 0.  1.
         21    1    1    2  503  501  0.27175929486E+02  0.19252192539E+02  0.10809708060E+02  0.35014680484E+02  0.00000000000E+00 0.  1.
         21    1    1    2  504  502  0.56116873216E+02  0.17947115280E+02 -0.12300998293E+03  0.13639156244E+03  0.00000000000E+00 0.  1.
         21    1    1    2  505  503 -0.24521713677E+02  0.69715951613E+02  0.55338803823E+02  0.92325573703E+02  0.00000000000E+00 0.  1.
         21    1    1    2  506  505 -0.58771089026E+02 -0.10691525943E+03 -0.15167414193E+04  0.15216403802E+04  0.00000000000E+00 0.  1.
<scales pt_clust_3="33.30432" pt_clust_4="61.48245" pt_clust_5="14000.00000" pt_clust_6="87.35468"></scales>
<clustering>
<clus scale="   33.304">  1  3  2 -1</clus>
<clus scale="   61.482">  2  4  1 -1</clus>
<clus scale="   87.355">  2  6  1 -1</clus>
<clus scale="   33.304">  1  3  2 -1</clus>
</clustering>
</event>
<event>
 6    0  0.2036847E+002  0.3219994E+03  0.7546771E-02  0.1074733E+00
         21   -1    0    0  506  501  0.00000000000E+00  0.00000000000E+00  0.18954572111E+03  0.18954572111E+03  0.00000000000E+00 0. -1.
         21   -1    0    0  501  502 -0.00000000000E+00 -0.00000000000E+00 -0.83498256932E+03  0.83498256932E+03  0.00000000000E+00 0.  1.
         21    1    1    2  503  505  0.13715806009E+03  0.65878379492E+02  0.10372696365E+02  0.15251192466E+03  0.00000000000E+00 0. -1.
         21    1    1    2  504  502 -0.16992715877E+03 -0.12981037082E+03 -0.37058063053E+03  0.42785041239E+03  0.00000000000E+00 0.  1.
         21    1    1    2  505  504 -0.10214076639E+03 -0.19272425773E+02 -0.26465101729E+03  0.28433136216E+03  0.00000000000E+00 0.  1.
         21    1    1    2  506  503  0.13490986506E+03  0.83204417105E+02 -0.20577896757E+02  0.15983459122E+03  0.00000000000E+00 0. -1.
<scales pt_clust_3="34.07550" pt_clust_4="60.12511" pt_clust_5="60.12511" pt_clust_6="312.17976"></scales>
<clustering>
<clus scale="   34.075">  3  6 -1 -1</clus>
<clus scale="   60.125">  4  5 -1 -1</clus>
<clus scale="  312.180">  1  3  2 -1</clus>
<clus scale="  312.180">  1  3  2 -1</clus>
</clustering>
</event>
<event>
 6    0  0.2036847E+002  0.6993283E+02  0.7546771E-02  0.1360322E+00
         21   -1    0    0  506  501  0.00000000000E+00  0.00000000000E+00  0.92147313438E+03  0.92147313438E+03  0.00000000000E+00 0. -1.
         21   -1    0    0  505  502 -0.00000000000E+00 -0.00000000000E+00 -0.45371729567E+02  0.45371729567E+02  0.00000000000E+00 0. -1.
         21    1    1    2  503  501  0.40880059048E+02 -0.39394695955E+02  0.67849873914E+02  0.88468789340E+02  0.00000000000E+00 0. -1.
         21    1    1    2  504  502 -0.27689913008E+01  0.91283358110E+02  0.16075488470E+03  0.18488496893E+03  0.00000000000E+00 0. -1.
         21    1    1    2  505  503 -0.34067892520E+02  0.14930510533E+02 -0.50346129616E+01  0.37535167153E+02  0.00000000000E+00 0. -1.
         21    1    1    2  506  504 -0.40431752271E+01 -0.66819172688E+02  0.65253125916E+03  0.65595593852E+03  0.00000000000E+00 0. -1.
<scales pt_clust_3="42.20067" pt_clust_4="69.93283" pt_clust_5="37.19599" pt_clust_6="14000.00000"></scales>
<clustering>
<clus scale="   37.196">  2  5  1 -1</clus>
<clus scale="   42.201">  2  3  1 -1</clus>
<clus scale="   69.933">  2  4  1 -1</clus>
<clus scale="   69.933">  1  3  2 -1</clus>
</clustering>
</event>
<event>
 6    0  0.2036847E+002  0.9374998E+02  0.7546771E-02  0.1294017E+00
         21   -1    0    0  505  501  0.00000000000E+00  0.00000000000E+00  0.14449086031E+04  0.14449086031E+04  0.00000000000E+00 0.  1.
         21   -1    0    0  503  502 -0.00000000000E+00 -0.00000000000E+00 -0.15928524859E+03  0.15928524859E+03  0.00000000000E+00 0.  1.
         21    1    1    2  503  504 -0.43859463233E+02 -0.58269465562E+02 -0.11790323015E+03  0.13863677294E+03  0.00000000000E+00 0.  1.
         21    1    1    2  504  501  0.12480414522E+03  0.66267859728E+00  0.11829044519E+04  0.11894702418E+04  0.00000000000E+00 0.  1.
         21    1    1    2  505  506 -0.39467191467E+02  0.40191702645E+02  0.22400087202E+03  0.23097493983E+03  0.00000000000E+00 0.  1.
         21    1    1    2  506  502 -0.41477490524E+02  0.17415084320E+02 -0.33787392687E+01  0.45111897112E+02  0.00000000000E+00 0.  1.
<scales pt_clust_3="14000.00000" pt_clust_4="93.74998" pt_clust_5="57.40271" pt_clust_6="44.98519"></scales>
<clustering>
<clus scale="   44.985">  2  6  1 -1</clus>
<clus scale="   57.403">  1  5  2 -1</clus>
<clus scale="   93.750">  1  4  2 -1</clus>
<clus scale="   57.403">  1  3  2 -1</clus>
</clustering>
</event>
<event>
 6    0  0.2036847E+002  0.1070944E+03  0.7546771E-02  0.1266047E+00
         21   -1    0    0  506  501  0.00000000000E+00  0.00000000000E+00  0.12076562830E+03  0.12076562830E+03  0.00000000000E+00 0. -1.
         21   -1    0    0  503  502 -0.00000000000E+00 -0.00000000000E+00 -0.59131172669E+03  0.59131172669E+03  0.00000000000E+00 0.  1.
         21    1    1    2  503  504 -0.55641309890E+02  0.59931891576E+02 -0.36950543806E+03  0.37844689951E+03  0.00000000000E+00 0.  1.
         21    1    1    2  504  505  0.11023887460E+03  0.16081912288E+02  0.54645225183E+02  0.12408601054E+03  0.00000000000E+00 0. -1.
         21    1    1    2  505  501 -0.10031061689E+01 -0.55175149943E+02 -0.14440451789E+02  0.57042353046E+02  0.00000000000E+00 0. -1.
         21    1    1    2  506  502 -0.53594458542E+02 -0.20838653922E+02 -0.14124543372E+03  0.15250209189E+03  0.00000000000E+00 0.  1.
<scales pt_clust_3="14000.00000" pt_clust_4="107.09436" pt_clust_5="55.18427" pt_clust_6="58.75861"></scales>
<clustering>
<clus scale="   55.184">  1  5  2 -1</clus>
<clus scale="   58.759">  2  6  1 -1</clus>
<clus scale="  107.094">  1  4  2 -1</clus>
<clus scale="   55.184">  1  3  2 -1</clus>
</clustering>
</event>
<event>
 6    0  0.2036847E+002  0.2230944E+03  0.7546771E-02  0.1131597E+00
         21   -1    0    0  504  501  0.00000000000E+00  0.00000000000E+00  0.14114048937E+04  0.14114048937E+04  0.00000000000E+00 0. -1.
         21   -1    0    0  503  502 -0.00000000000E+00 -0.00000000000E+00 -0.25665351514E+03  0.25665351514E+03  0.00000000000E+00 0.  1.
         21    1    1    2  503  505  0.22135127012E+03 -0.16621269364E+02 -0.18438822110E+03  0.28856830641E+03  0.00000000000E+00 0.  1.
         21    1    1    2  504  506 -0.52503074571E+02 -0.15644223112E+01  0.61484598130E+03  0.61708557022E+03  0.00000000000E+00 0. -1.
         21    1    1    2  505  501 -0.69829514248E+02  0.19806107734E+02  0.70614157953E+02  0.10126599759E+03  0.00000000000E+00 0.  1.
         21    1    1    2  506  502 -0.99018681302E+02 -0.16204160591E+01  0.65367946045E+03  0.66113853466E+03  0.00000000000E+00 0. -1.
<scales pt_clust_3="219.18034" pt_clust_4="30.30119" pt_clust_5="72.58404" pt_clust_6="30.30119"></scales>
<clustering>
<clus scale="   30.301">  4  6 -1 -1</clus>
<clus scale="   72.584">  1  5  2 -1</clus>
<clus scale="  219.180">  2  3  1 -1</clus>
<clus scale="   72.584">  1  3  2 -1</clus>
</clustering>
</event>
<event>
 6    0  0.2036847E+002  0.2593501E+03  0.7546771E-02  0.1107534E+00
         21   -1    0    0  502  501  0.00000000000E+00  0.00000000000E+00  0.44452324733E+03  0.44452324733E+03  0.00000000000E+00 0.  1.
         21   -1    0    0  505  502 -0.00000000000E+00 -0.00000000000E+00 -0.15736129497E+04  0.15736129497E+04  0.00000000000E+00 0. -1.
         21    1    1    2  503  506  0.74510220041E+02  0.21026356091E+03  0.16229288509E+03  0.27586503672E+03  0.00000000000E+00 0.  1.
         21    1    1    2  504  503 -0.22747676892E+02 -0.11575820960E+03 -0.66697014554E+03  0.67732310970E+03  0.00000000000E+00 0. -1.
         21    1    1    2  505  504 -0.67885904694E+02 -0.12589507083E+03 -0.83716144809E+03  0.84929226717E+03  0.00000000000E+00 0. -1.
         21    1    1    2  506  501  0.16123361545E+02  0.31389719511E+02  0.21274900620E+03  0.21565578341E+03  0.00000000000E+00 0. -1.
<scales pt_clust_3="256.37976" pt_clust_4="35.54655" pt_clust_5="35.54655" pt_clust_6="35.28849"></scales>
<clustering>
<clus scale="   35.288">  1  6  2 -1</clus>
<clus scale="   35.547">  4  5 -1 -1</clus>
<clus scale="  256.380">  1  3  2 -1</clus>
<clus scale="   35.288">  1  3  2 -1</clus>
</clustering>
</event>
<event>
 6    0  0.2036847E+002  0.1074028E+03  0.7546771E-02  0.1265456E+00
         21   -1    0    0  506  501  0.00000000000E+00  0.00000000000E+00  0.20074063351E+03  0.20074063351E+03  0.00000000000E+00 0. -1.
         21   -1    0    0  503  502 -0.00000000000E+00 -0.00000000000E+00 -0.25070826842E+03  0.25070826842E+03  0.00000000000E+00 0. -1.
         21    1    1    2  503  501 -0.39761759885E+02  0.53281081212E+02 -0.16254723531E+02  0.68440391592E+02  0.00000000000E+00 0. -1.
         21    1    1    2  504  502  0.18141887160E+01 -0.82486507208E+02 -0.98032206697E+02  0.12813129478E+03  0.00000000000E+00 0. -1.
         21    1    1    2  505  504  0.35122925270E+02 -0.65797749047E+02 -0.61864366223E+02  0.96902855826E+02  0.00000000000E+00 0. -1.
         21    1    1    2  506  505  0.28246458992E+01  0.95003175043E+02  0.12618366154E+03  0.15797435973E+03  0.00000000000E+00 0. -1.
<scales pt_clust_3="66.48211" pt_clust_4="39.44195" pt_clust_5="39.44195" pt_clust_6="99.06808"></scales>
<clustering>
<clus scale="   39.442">  4  5 -1 -1</clus>
<clus scale="   66.482">  2  3  1 -1</clus>
<clus scale="   99.068">  1  6  2 -1</clus>
<clus scale="   99.068">  1  3  2 -1</clus>
</clustering>
</event>
<event>
 6    0  0.2036847E+002  0.1194359E+03  0.7546771E-02  0.1244031E+00
         21   -1    0    0  506  501  0.00000000000E+00  0.00000000000E+00  0.56340253772E+03  0.56340253772E+03  0.00000000000E+00 0.  1.
         21   -1    0    0  505  502 -0.00000000000E+00 -0.00000000000E+00 -0.15412690218E+03  0.15412690218E+03  0.00000000000E+00 0. -1.
         21    1    1    2  503  504 -0.70597750055E+02  0.59892944508E+02  0.46458679228E+03  0.47372153707E+03  0.00000000000E+00 0.  1.
         21    1    1    2  504  501 -0.15241540977E+02  0.29357087109E+02  0.45717850277E+02  0.56429291763E+02  0.00000000000E+00 0. -1.
         21    1    1    2  505  503  0.90046857997E+02 -0.56831107057E+02 -0.11038802856E+03  0.15337447054E+03  0.00000000000E+00 0. -1.
         21    1    1    2  506  502 -0.42075669655E+01 -0.32418924560E+02  0.93590215313E+01  0.34004140534E+02  0.00000000000E+00 0.  1.
<scales pt_clust_3="119.43591" pt_clust_4="32.07213" pt_clust_5="14000.00000" pt_clust_6="32.69083"></scales>
<clustering>
<clus scale="   32.691">  2  6  1 -1</clus>
<clus scale="   32.072">  1  4  2 -1</clus>
<clus scale="  119.436">  1  3  2 -1</clus>
<clus scale="   32.072">  1  3  2 -1</clus>
</clustering>
</event>
<event>
 6    0  0.2036847E+002  0.1136078E+03  0.7546771E-02  0.1254031E+00
         21   -1    0    0  503  501  0.00000000000E+00  0.00000000000E+00  0.11789987567E+03  0.11789987567E+03  0.00000000000E+00 0. -1.
         21   -1    0    0  505  502 -0.00000000000E+00 -0.00000000000E+00 -0.38357112089E+03  0.38357112089E+03  0.00000000000E+00 0. -1.
         21    1    1    2  503  506  0.95342264939E+02 -0.18094934507E+02 -0.10030597185E+03  0.13956669419E+03  0.00000000000E+00 0. -1.
         21    1    1    2  504  501 -0.21510721708E+02  0.39310956939E+02  0.31461552837E+02  0.54753007139E+02  0.00000000000E+00 0. -1.
         21    1    1    2  505  504 -0.11801443765E+03 -0.13244993451E+02 -0.14805389364E+02  0.11967471287E+03  0.00000000000E+00 0. -1.
         21    1    1    2  506  502  0.44182894422E+02 -0.79710289811E+01 -0.18202143684E+03  0.18747658235E+03  0.00000000000E+00 0. -1.
<scales pt_clust_3="14000.00000" pt_clust_4="44.81141" pt_clust_5="113.60779" pt_clust_6="43.88806"></scales>
<clustering>
<clus scale="   44.811">  1  4  2 -1</clus>
<clus scale="   43.888">  2  6  1 -1</clus>
<clus scale="  113.608">  1  5  2 -1</clus>
<clus scale="   44.811">  1  3  2 -1</clus>
</clustering>
</event>
<event>
 6    0  0.2036847E+002  0.1013180E+03  0.7546771E-02  0.1277549E+00
         21   -1    0    0  505  501  0.00000000000E+00  0.00000000000E+00  0.67610140393E+03  0.67610140393E+03  0.00000000000E+00 0. -1.
         21   -1    0    0  503  502 -0.00000000000E+00 -0.00000000000E+00 -0.21621850012E+03  0.21621850012E+03  0.00000000000E+00 0.  1.
         21    1    1    2  503  506 -0.41948348828E+02 -0.88158103681E+01 -0.48460258075E+02  0.64697597285E+02  0.00000000000E+00 0. -1.
         21    1    1    2  504  502  0.25327611385E+02  0.33578731299E+02  0.18745970549E+02  0.46048132492E+02  0.00000000000E+00 0. -1.
         21    1    1    2  505  504  0.18866949453E+01 -0.10201481583E+03  0.62051668977E+03  0.62884938145E+03  0.00000000000E+00 0. -1.
         21    1    1    2  506  501  0.14734042497E+02  0.77251894904E+02 -0.13091949843E+03  0.15272479282E+03  0.00000000000E+00 0.  1.
<scales pt_clust_3="34.87866" pt_clust_4="42.05971" pt_clust_5="14000.00000" pt_clust_6="101.31795"></scales>
<clustering>
<clus scale="   42.060">  2  4  1 -1</clus>
<clus scale="   34.879">  2  3  1 -1</clus>
<clus scale="  101.318">  2  6  1 -1</clus>
<clus scale="  101.318">  1  3  2 -1</clus>
</clustering>
</event>
<event>
 6    0  0.2036847E+002  0.1230961E+03  0.7546771E-02  0.1238075E+00
         21   -1    0    0  506  501  0.00000000000E+00  0.00000000000E+00  0.32788861559E+03  0.32788861559E+03  0.00000000000E+00 0.  1.
         21   -1    0    0  505  502 -0.00000000000E+00 -0.00000000000E+00 -0.22695182116E+03  0.22695182116E+03  0.00000000000E+00 0. -1.
         21    1    1    2  503  504  0.76025341836E+02 -0.10780301861E+03  0.17562552422E+03  0.21964896581E+03  0.00000000000E+00 0.  1.
         21    1    1    2  504  501  0.19983889541E+02  0.29536259762E+02  0.94447961705E+02  0.10095624771E+03  0.00000000000E+00 0.  1.
         21    1    1    2  505  503 -0.60462622653E+02  0.10173889979E+03 -0.13587564405E+03  0.18019079642E+03  0.00000000000E+00 0. -1.
         21    1    1    2  506  502 -0.35546608724E+02 -0.23472140941E+02 -0.33261047448E+02  0.54044426812E+02  0.00000000000E+00 0. -1.
<scales pt_clust_3="123.09610" pt_clust_4="35.66155" pt_clust_5="14000.00000" pt_clust_6="41.11400"></scales>
<clustering>
<clus scale="   35.662">  1  4  2 -1</clus>
<clus scale="   41.114">  2  6  1 -1</clus>
<clus scale="  123.096">  1  3  2 -1</clus>
<clus scale="   35.662">  1  3  2 -1</clus>
</clustering>
</event>
<event>
 6    0  0.2036847E+002  0.1560686E+03  0.7546771E-02  0.1193208E+00
         21   -1    0    0  506  501  0.00000000000E+00  0.00000000000E+00  0.28270016518E+03  0.28270016518E+03  0.00000000000E+00 0. -1.
         21   -1    0    0  504  502 -0.00000000000E+00 -0.00000000000E+00 -0.84994741821E+02  0.84994741821E+02  0.00000000000E+00 0. -1.
         21    1    1    2  503  502 -0.41547376872E+02  0.73567494741E+02  0.22531901447E+02  0.87441679937E+02  0.00000000000E+00 0.  1.
         21    1    1    2  504  505  0.66708895902E+02 -0.27883411734E+02  0.42796421452E+02  0.84018421382E+02  0.00000000000E+00 0. -1.
         21    1    1    2  505  501  0.32330940973E+02 -0.73675721950E+02  0.65965536260E+02  0.10404255727E+03  0.00000000000E+00 0.  1.
         21    1    1    2  506  503 -0.57492460002E+02  0.27991638944E+02  0.66411564204E+02  0.92192248415E+02  0.00000000000E+00 0. -1.
<scales pt_clust_3="56.60975" pt_clust_4="55.39402" pt_clust_5="153.42023" pt_clust_6="56.60975"></scales>
<clustering>
<clus scale="   55.394">  4  5 -1 -1</clus>
<clus scale="   56.610">  3  6 -1 -1</clus>
<clus scale="  153.420">  1  4  2 -1</clus>
<clus scale="  153.420">  1  3  2 -1</clus>
</clustering>
</event>
<event>
 6    0  0.2036847E+002  0.1508866E+03  0.7546771E-02  0.1199388E+00
         21   -1    0    0  503  501  0.00000000000E+00  0.00000000000E+00  0.21380131683E+02  0.21380131683E+02  0.00000000000E+00 0. -1.
         21   -1    0    0  505  502 -0.00000000000E+00 -0.00000000000E+00 -0.15437318068E+04  0.15437318068E+04  0.00000000000E+00 0. -1.
         21    1    1    2  503  504  0.38599426671E+02 -0.85592721268E+01 -0.58479994060E+02  0.70590980897E+02  0.00000000000E+00 0.  1.
         21    1    1    2  504  502  0.12707328027E+03  0.18304581607E+02 -0.51835839083E+03  0.53402069024E+03  0.00000000000E+00 0. -1.
         21    1    1    2  505  506 -0.81559943392E+02 -0.14443917882E+02 -0.54139836647E+03  0.54769776551E+03  0.00000000000E+00 0.  1.
         21    1    1    2  506  501 -0.84112763550E+02  0.46986084017E+01 -0.40411492378E+03  0.41280250185E+03  0.00000000000E+00 0. -1.
<scales pt_clust_3="39.53703" pt_clust_4="147.45774" pt_clust_5="31.71410" pt_clust_6="31.71410"></scales>
<clustering>
<clus scale="   31.714">  5  6 -1 -1</clus>
<clus scale="   39.537">  1  3  2 -1</clus>
<clus scale="  147.458">  1  4  2 -1</clus>
<clus scale="   39.537">  1  3  2 -1</clus>
</clustering>
</event>
<event>
 6    0  0.2036847E+002  0.1949700E+03  0.7546771E-02  0.1154054E+00
         21   -1    0    0  505  501  0.00000000000E+00  0.00000000000E+00  0.10576602859E+04  0.10576602859E+04  0.00000000000E+00 0.  1.
         21   -1    0    0  506  502 -0.00000000000E+00 -0.00000000000E+00 -0.12968075307E+03  0.12968075307E+03  0.00000000000E+00 0. -1.
         21    1    1    2  503  502  0.41905621993E+02  0.14466766819E+03  0.63692698486E+03  0.65449278026E+03  0.00000000000E+00 0.  1.
         21    1    1    2  504  501 -0.23996604308E+02 -0.10327833862E+03 -0.15823727393E+02  0.10720374339E+03  0.00000000000E+00 0. -1.
         21    1    1    2  505  503  0.21471480467E+02  0.26592797675E+02  0.33903462028E+03  0.34075309992E+03  0.00000000000E+00 0.  1.
         21    1    1    2  506  504 -0.39380498152E+02 -0.67982127246E+02 -0.32158344923E+02  0.84891415395E+02  0.00000000000E+00 0.  1.
<scales pt_clust_3="32.54179" pt_clust_4="186.00610" pt_clust_5="32.54179" pt_clust_6="30.45157"></scales>
<clustering>
<clus scale="   30.452">  4  6 -1 -1</clus>
<clus scale="   32.542">  3  5 -1 -1</clus>
<clus scale="  186.006">  2  4  1 -1</clus>
<clus scale="  194.970">  1  3  2 -1</clus>
</clustering>
</event>
<event>
 6    0  0.2036847E+002  0.9216921E+02  0.7546771E-02  0.1297682E+00
         21   -1    0    0  505  501  0.00000000000E+00  0.00000000000E+00  0.90158348484E+03  0.90158348484E+03  0.00000000000E+00 0. -1.
         21   -1    0    0  506  502 -0.00000000000E+00 -0.00000000000E+00 -0.15655190706E+03  0.15655190706E+03  0.00000000000E+00 0. -1.
         21    1    1    2  503  504  0.86891210061E+02 -0.71928806305E+02  0.17545573752E+03  0.20858703553E+03  0.00000000000E+00 0. -1.
         21    1    1    2  504  501 -0.12116144227E+02  0.47367141305E+02  0.11733175052E+03  0.12711092284E+03  0.00000000000E+00 0. -1.
         21    1    1    2  505  502  0.10727138595E+02  0.59325681567E+02  0.56979778449E+03  0.57297829209E+03  0.00000000000E+00 0. -1.
         21    1    1    2  506  503 -0.85502204429E+02 -0.34764016566E+02 -0.11755369475E+03  0.14945914144E+03  0.00000000000E+00 0. -1.
<scales pt_clust_3="86.95720" pt_clust_4="48.89220" pt_clust_5="14000.00000" pt_clust_6="92.16921"></scales>
<clustering>
<clus scale="   48.892">  1  4  2 -1</clus>
<clus scale="   92.169">  2  6  1 -1</clus>
<clus scale="   86.957">  2  3  1 -1</clus>
<clus scale="   48.892">  1  3  2 -1</clus>
</clustering>
</event>
<event>
 6    0  0.2036847E+002  0.1441216E+03  0.7546771E-02  0.1207888E+00
         21   -1    0    0  505  501  0.00000000000E+00  0.00000000000E+00  0.20461609959E+03  0.20461609959E+03  0.00000000000E+00 0. -1.
         21   -1    0    0  504  502 -0.00000000000E+00 -0.00000000000E+00 -0.16283647275E+04  0.16283647275E+04  0.00000000000E+00 0.  1.
         21    1    1    2  503  501  0.32373839491E+02 -0.86043868117E+01  0.80503166002E+02  0.87194384522E+02  0.00000000000E+00 0. -1.
         21    1    1    2  504  506 -0.89669792307E+02  0.16478528483E+03 -0.13691956411E+04  0.13819882653E+04  0.00000000000E+00 0.  1.
         21    1    1    2  505  502 -0.30056248594E+02 -0.10840108263E+03 -0.21063834696E+03  0.23879423361E+03  0.00000000000E+00 0. -1.
         21    1    1    2  506  503  0.87352201411E+02 -0.47779815382E+02  0.75582194185E+02  0.12500394365E+03  0.00000000000E+00 0. -1.
<scales pt_clust_3="32.56458" pt_clust_4="132.73675" pt_clust_5="112.49077" pt_clust_6="32.56458"></scales>
<clustering>
<clus scale="   32.565">  3  6 -1 -1</clus>
<clus scale="  112.491">  2  5  1 -1</clus>
<clus scale="  132.737">  2  4  1 -1</clus>
<clus scale="  144.122">  1  3  2 -1</clus>
</clustering>
</event>
<event>
 6    0  0.2036847E+002  0.1268514E+03  0.7546771E-02  0.1232204E+00
         21   -1    0    0  505  501  0.00000000000E+00  0.00000000000E+00  0.44134817296E+03  0.44134817296E+03  0.00000000000E+00 0. -1.
         21   -1    0    0  503  502 -0.00000000000E+00 -0.00000000000E+00 -0.22941807087E+03  0.22941807087E+03  0.00000000000E+00 0.  1.
         21    1    1    2  503  506  0.23652494126E+01  0.43212776264E+02 -0.12932581915E+03  0.13637487282E+03  0.00000000000E+00 0.  1.
         21    1    1    2  504  501 -0.33513720198E+02 -0.84537179016E+02  0.34175140532E+03  0.35364350286E+03  0.00000000000E+00 0. -1.
         21    1    1    2  505  502  0.59537183508E+02  0.60778972455E+02 -0.65380820770E+02  0.10730056588E+03  0.00000000000E+00 0.  1.
         21    1    1    2  506  504 -0.28388712722E+02 -0.19454569703E+02  0.64885336693E+02  0.73447302266E+02  0.00000000000E+00 0. -1.
<scales pt_clust_3="43.27746" pt_clust_4="30.18095" pt_clust_5="116.98017" pt_clust_6="30.18095"></scales>
<clustering>
<clus scale="   30.181">  4  6 -1 -1</clus>
<clus scale="   43.277">  2  3  1 -1</clus>
<clus scale="  116.980">  2  5  1 -1</clus>
<clus scale="  126.851">  1  3  2 -1</clus>
</clustering>
</event>
<event>
 6    0  0.2036847E+002  0.1517955E+03  0.7546771E-02  0.1198284E+00
         21   -1    0    0  502  501  0.00000000000E+00  0.00000000000E+00  0.43188469726E+02  0.43188469726E+02  0.00000000000E+00 0. -1.
         21   -1    0    0  503  502 -0.00000000000E+00 -0.00000000000E+00 -0.71707947982E+03  0.71707947982E+03  0.00000000000E+00 0.  1.
         21    1    1    2  503  506 -0.24742721776E+02  0.10613946573E+03 -0.48656207404E+03  0.49861853191E+03  0.00000000000E+00 0.  1.
         21    1    1    2  504  505  0.20548528531E+02 -0.60022909041E+02 -0.32233103516E+02  0.71161538747E+02  0.00000000000E+00 0. -1.
         21    1    1    2  505  501  0.20462827087E+02 -0.74439375362E+02 -0.98570969974E+02  0.12520456868E+03  0.00000000000E+00 0. -1.
         21    1    1    2  506  504 -0.16268633842E+02  0.28322818668E+02 -0.56524862563E+02  0.65283310211E+02  0.00000000000E+00 0. -1.
<scales pt_clust_3="31.35217" pt_clust_4="37.24386" pt_clust_5="146.45799" pt_clust_6="31.35217"></scales>
<clustering>
<clus scale="   31.352">  3  6 -1 -1</clus>
<clus scale="   37.244">  4  5 -1 -1</clus>
<clus scale="  146.458">  1  4  2 -1</clus>
<clus scale="  146.458">  1  3  2 -1</clus>
</clustering>
</event>
<event>
 6    0  0.2036847E+002  0.7785493E+02  0.7546771E-02  0.1335251E+00
         21   -1    0    0  503  501  0.00000000000E+00  0.00000000000E+00  0.10075068730E+04  0.10075068730E+04  0.00000000000E+00 0. -1.
         21   -1    0    0  504  502 -0.00000000000E+00 -0.00000000000E+00 -0.52687305503E+03  0.52687305503E+03  0.00000000000E+00 0. -1.
         21    1    1    2  503  502  0.23681760151E+02  0.18815634566E+02  0.11932822988E+03  0.12310191028E+03  0.00000000000E+00 0.  1.
         21    1    1    2  504  506  0.44371954932E+02  0.44225835447E+02 -0.40712047772E+03  0.41191246434E+03  0.00000000000E+00 0. -1.
         21    1    1    2  505  501 -0.57616409175E+02  0.50759655241E+02  0.85346868865E+03  0.85691597938E+03  0.00000000000E+00 0. -1.
         21    1    1    2  506  505 -0.10437305908E+02 -0.11380112525E+03 -0.85042622792E+02  0.14244957408E+03  0.00000000000E+00 0. -1.
<scales pt_clust_3="30.24655" pt_clust_4="62.72944" pt_clust_5="14000.00000" pt_clust_6="77.85493"></scales>
<clustering>
<clus scale="   30.247">  1  3  2 -1</clus>
<clus scale="   62.729">  2  4  1 -1</clus>
<clus scale="   77.855">  2  6  1 -1</clus>
<clus scale="   30.247">  1  3  2 -1</clus>
</clustering>
</event>
<event>
 6    0  0.2036847E+002  0.8073898E+02  0.7546771E-02  0.1326967E+00
         21   -1    0    0  505  501  0.00000000000E+00  0.00000000000E+00  0.24654248593E+03  0.24654248593E+03  0.00000000000E+00 0.  1.
         21   -1    0    0  506  502 -0.00000000000E+00 -0.00000000000E+00 -0.15738552920E+04  0.15738552920E+04  0.00000000000E+00 0.  1.
         21    1    1    2  503  502  0.37787971718E+02  0.10137267524E+03 -0.78163864577E+03  0.78909018665E+03  0.00000000000E+00 0.  1.
         21    1    1    2  504  501  0.23037269173E+02 -0.19714203921E+02  0.63937187267E+02  0.70762486692E+02  0.00000000000E+00 0.  1.
         21    1    1    2  505  503 -0.93180159098E+02 -0.19565795258E+02  0.16084544571E+03  0.18691340187E+03  0.00000000000E+00 0.  1.
         21    1    1    2  506  504  0.32354918206E+02 -0.62092676057E+02 -0.77045679327E+03  0.77363170272E+03  0.00000000000E+00 0.  1.
<scales pt_clust_3="80.73898" pt_clust_4="30.32104" pt_clust_5="14000.00000" pt_clust_6="70.26598"></scales>
<clustering>
<clus scale="   30.321">  1  4  2 -1</clus>
<clus scale="   70.266">  2  6  1 -1</clus>
<clus scale="   80.739">  2  3  1 -1</clus>
<clus scale="   30.321">  1  3  2 -1</clus>
</clustering>
</event>
<event>
 6    0  0.2036847E+002  0.2023105E+03  0.7546771E-02  0.1147804E+00
         21   -1    0    0  506  501  0.00000000000E+00  0.00000000000E+00  0.31061739359E+03  0.31061739359E+03  0.00000000000E+00 0.  1.
         21   -1    0    0  505  502 -0.00000000000E+00 -0.00000000000E+00 -0.36313514630E+03  0.36313514630E+03  0.00000000000E+00 0. -1.
         21    1    1    2  503  502 -0.66904019804E+02  0.19829901371E+03 -0.21605476558E+03  0.30079612437E+03  0.00000000000E+00 0. -1.
         21    1    1    2  504  501 -0.74061947238E+01 -0.45370906920E+02  0.13351288543E+03  0.14120574171E+03  0.00000000000E+00 0.  1.
         21    1    1    2  505  504  0.54381540073E+02 -0.17894105866E+03 -0.41894013114E+00  0.18702253844E+03  0.00000000000E+00 0.  1.
         21    1    1    2  506  503  0.19928674455E+02  0.26012951868E+02  0.30443067573E+02  0.44728135370E+02  0.00000000000E+00 0. -1.
<scales pt_clust_3="14000.00000" pt_clust_4="32.39019" pt_clust_5="202.31054" pt_clust_6="32.76928"></scales>
<clustering>
<clus scale="   32.769">  1  6  2 -1</clus>
<clus scale="   32.390">  1  4  2 -1</clus>
<clus scale="  202.311">  1  5  2 -1</clus>
<clus scale="   32.769">  1  3  2 -1</clus>
</clustering>
</event>
<event>
 6    0  0.2036847E+002  0.1073390E+03  0.7546771E-02  0.1265579E+00
         21   -1    0    0  504  501  0.00000000000E+00  0.00000000000E+00  0.69053792756E+02  0.69053792756E+02  0.00000000000E+00 0. -1.
         21   -1    0    0  506  502 -0.00000000000E+00 -0.00000000000E+00 -0.22397417122E+04  0.22397417122E+04  0.00000000000E+00 0. -1.
         21    1    1    2  503  502  0.87595549893E+02  0.75308478361E+02 -0.18927153022E+04  0.18962372116E+04  0.00000000000E+00 0. -1.
         21    1    1    2  504  505  0.43479399341E+02 -0.33073897330E+02  0.12863959423E+02  0.56123277735E+02  0.00000000000E+00 0.  1.
         21    1    1    2  505  503 -0.13823860482E+03 -0.11119736071E+02 -0.12232181202E+03  0.18492210816E+03  0.00000000000E+00 0. -1.
         21    1    1    2  506  501  0.71636555821E+01 -0.31114844960E+02 -0.16851476462E+03  0.17151290749E+03  0.00000000000E+00 0. -1.
<scales pt_clust_3="14000.00000" pt_clust_4="54.88598" pt_clust_5="107.33897" pt_clust_6="31.92885"></scales>
<clustering>
<clus scale="   31.929">  2  6  1 -1</clus>
<clus scale="   54.886">  1  4  2 -1</clus>
<clus scale="  107.339">  1  5  2 -1</clus>
<clus scale="   54.886">  1  3  2 -1</clus>
</clustering>
</event>
<event>
 6    0  0.2036847E+002  0.1099256E+03  0.7546771E-02  0.1260708E+00
         21   -1    0    0  504  501  0.00000000000E+00  0.00000000000E+00  0.31169992166E+04  0.31169992166E+04  0.00000000000E+00 0.  1.
         21   -1    0    0  506  502 -0.00000000000E+00 -0.00000000000E+00 -0.21017647604E+02  0.21017647604E+02  0.00000000000E+00 0.  1.
         21    1    1    2  503  502 -0.44817954063E+02  0.35894270079E+02  0.28829419590E+03  0.29395678427E+03  0.00000000000E+00 0.  1.
         21    1    1    2  504  505 -0.42948843450E+02 -0.19492416886E+02  0.15755117061E+04  0.15762175274E+04  0.00000000000E+00 0.  1.
         21    1    1    2  505  503 -0.51653252213E+02 -0.20446566098E+02  0.96367899590E+03  0.96527888595E+03  0.00000000000E+00 0.  1.
         21    1    1    2  506  501  0.13942004973E+03  0.40447129045E+01  0.26849667104E+03  0.30256366657E+03  0.00000000000E+00 0.  1.
<scales pt_clust_3="57.41992" pt_clust_4="31.51632" pt_clust_5="31.51632" pt_clust_6="104.46873"></scales>
<clustering>
<clus scale="   31.516">  4  5 -1 -1</clus>
<clus scale="   57.420">  2  3  1 -1</clus>
<clus scale="  104.469">  2  6  1 -1</clus>
<clus scale="  109.926">  1  3  2 -1</clus>
</clustering>
</event>
<event>
 6    0  0.2036847E+002  0.1457217E+03  0.7546771E-02  0.1205831E+00
         21   -1    0    0  506  501  0.00000000000E+00  0.00000000000E+00  0.12578697275E+04  0.12578697275E+04  0.00000000000E+00 0. -1.
         21   -1    0    0  503  502 -0.00000000000E+00 -0.00000000000E+00 -0.70789557364E+03  0.70789557364E+03  0.00000000000E+00 0.  1.
         21    1    1    2  503  501 -0.91909959192E+02  0.61939210308E+02  0.11015683683E+04  0.11071299727E+04  0.00000000000E+00 0. -1.
         21    1    1    2  504  502  0.40509927922E+02 -0.77212157355E+02 -0.50402977474E+03  0.51151616331E+03  0.00000000000E+00 0.  1.
         21    1    1    2  505  504  0.87778220673E+02  0.12189386083E+01 -0.18472432454E+03  0.20452280536E+03  0.00000000000E+00 0.  1.
         21    1    1    2  506  505 -0.36378189403E+02  0.14054008439E+02  0.13715988482E+03  0.14259635978E+03  0.00000000000E+00 0. -1.
<scales pt_clust_3="14000.00000" pt_clust_4="87.09566" pt_clust_5="145.72166" pt_clust_6="38.99856"></scales>
<clustering>
<clus scale="   38.999">  1  6  2 -1</clus>
<clus scale="   87.096">  2  4  1 -1</clus>
<clus scale="  145.722">  2  5  1 -1</clus>
<clus scale="   38.999">  1  3  2 -1</clus>
</clustering>
</event>
<event>
 6    0  0.2036847E+002  0.1457232E+03  0.7546771E-02  0.1205829E+00
         21   -1    0    0  505  501  0.00000000000E+00  0.00000000000E+00  0.99748007636E+02  0.99748007636E+02  0.00000000000E+00 0.  1.
         21   -1    0    0  503  502 -0.00000000000E+00 -0.00000000000E+00 -0.39046549858E+03  0.39046549858E+03  0.00000000000E+00 0.  1.
         21    1    1    2  503  506 -0.24846244656E+02 -0.37995495268E+02 -0.36113635334E+02  0.58010242123E+02  0.00000000000E+00 0.  1.
         21    1    1    2  504  502  0.63499497040E+00  0.52205553708E+02 -0.15665574639E+02  0.54509020220E+02  0.00000000000E+00 0.  1.
         21    1    1    2  505  504  0.64589555458E+02  0.73728023605E+02  0.21075178895E+02  0.10025864204E+03  0.00000000000E+00 0.  1.
         21    1    1    2  506  501 -0.40378305772E+02 -0.87938082046E+02 -0.26001345987E+03  0.27743560183E+03  0.00000000000E+00 0.  1.
<scales pt_clust_3="45.39817" pt_clust_4="45.05028" pt_clust_5="45.05028" pt_clust_6="132.00381"></scales>
<clustering>
<clus scale="   45.050">  4  5 -1 -1</clus>
<clus scale="   45.398">  2  3  1 -1</clus>
<clus scale="  132.004">  2  6  1 -1</clus>
<clus scale="  145.723">  1  3  2 -1</clus>
</clustering>
</event>
<event>
 6    0  0.2036847E+002  0.1018518E+03  0.7546771E-02  0.1276449E+00
         21   -1    0    0  506  501  0.00000000000E+00  0.00000000000E+00  0.57271064968E+02  0.57271064968E+02  0.00000000000E+00 0. -1.
         21   -1    0    0  503  502 -0.00000000000E+00 -0.00000000000E+00 -0.65766324324E+03  0.65766324324E+03  0.00000000000E+00 0. -1.
         21    1    1    2  503  504 -0.52034552138E+02  0.14386268955E+02 -0.14667820959E+03  0.15629797349E+03  0.00000000000E+00 0. -1.
         21    1    1    2  504  501 -0.99939029146E-01  0.33574354010E+02 -0.19770687540E+02  0.38963153373E+02  0.00000000000E+00 0. -1.
         21    1    1    2  505  502  0.90952199766E+02  0.68639749540E+02 -0.35685169010E+03  0.37460225117E+03  0.00000000000E+00 0. -1.
         21    1    1    2  506  505 -0.38817708599E+02 -0.11660037251E+03 -0.77091591047E+02  0.14507093017E+03  0.00000000000E+00 0. -1.
<scales pt_clust_3="54.99585" pt_clust_4="33.57450" pt_clust_5="14000.00000" pt_clust_6="101.85183"></scales>
<clustering>
<clus scale="   33.575">  1  4  2 -1</clus>
<clus scale="   54.996">  2  3  1 -1</clus>
<clus scale="  101.852">  1  6  2 -1</clus>
<clus scale="   33.575">  1  3  2 -1</clus>
</clustering>
</event>
<event>
 6    0  0.2036847E+002  0.2706477E+03  0.7546771E-02  0.1100910E+00
         21   -1    0    0  502  501  0.00000000000E+00  0.00000000000E+00  0.15023340119E+04  0.15023340119E+04  0.00000000000E+00 0. -1.
         21   -1    0    0  506  502 -0.00000000000E+00 -0.00000000000E+00 -0.71170855291E+02  0.71170855291E+02  0.00000000000E+00 0. -1.
         21    1    1    2  503  505  0.27581861588E+02  0.64096605496E+02  0.19047632361E+03  0.20285552440E+03  0.00000000000E+00 0. -1.
         21    1    1    2  504  503 -0.80466995793E+02 -0.18383339128E+03  0.25477073488E+03  0.32431124019E+03  0.00000000000E+00 0. -1.
         21    1    1    2  505  501  0.83848914534E+02  0.16647168573E+03  0.97044112005E+03  0.98817985716E+03  0.00000000000E+00 0. -1.
         21    1    1    2  506  504 -0.30963780330E+02 -0.46734899952E+02  0.15474978061E+02  0.58158245432E+02  0.00000000000E+00 0.  1.
<scales pt_clust_3="44.36401" pt_clust_4="46.29473" pt_clust_5="266.15028" pt_clust_6="46.29473"></scales>
<clustering>
<clus scale="   44.364">  3  5 -1 -1</clus>
<clus scale="   46.295">  4  6 -1 -1</clus>
<clus scale="  266.150">  1  3  2 -1</clus>
<clus scale="  266.150">  1  3  2 -1</clus>
</clustering>
</event>
<event>
 6    0  0.2036847E+002  0.1005594E+03  0.7546771E-02  0.1279124E+00
         21   -1    0    0  505  501  0.00000000000E+00  0.00000000000E+00  0.21942585332E+03  0.21942585332E+03  0.00000000000E+00 0.  1.
         21   -1    0    0  506  502 -0.00000000000E+00 -0.00000000000E+00 -0.32911687696E+03  0.32911687696E+03  0.00000000000E+00 0.  1.
         21    1    1    2  503  502  0.21687067655E+02  0.29065492528E+02 -0.52174377674E+02  0.63539731232E+02  0.00000000000E+00 0.  1.
         21    1    1    2  504  501 -0.89253114753E+02 -0.47298379370E+01  0.41526130459E+02  0.98554093629E+02  0.00000000000E+00 0.  1.
         21    1    1    2  505  503  0.10653269865E+03 -0.35401770916E+02  0.11963089914E+03  0.16405503130E+03  0.00000000000E+00 0.  1.
         21    1    1    2  506  504 -0.38966651551E+02  0.11066116325E+02 -0.21867367556E+03  0.22239387412E+03  0.00000000000E+00 0.  1.
<scales pt_clust_3="36.26475" pt_clust_4="14000.00000" pt_clust_5="100.55938" pt_clust_6="40.73108"></scales>
<clustering>
<clus scale="   36.265">  2  3  1 -1</clus>
<clus scale="   40.731">  2  6  1 -1</clus>
<clus scale="  100.559">  1  5  2 -1</clus>
<clus scale="  100.559">  1  3  2 -1</clus>
</clustering>
</event>
<event>
 6    0  0.2036847E+002  0.6380204E+02  0.7546771E-02  0.1382535E+00
         21   -1    0    0  504  501  0.00000000000E+00  0.00000000000E+00  0.12930989117E+03  0.12930989117E+03  0.00000000000E+00 0.  1.
         21   -1    0    0  506  502 -0.00000000000E+00 -0.00000000000E+00 -0.19379951250E+03  0.19379951250E+03  0.00000000000E+00 0.  1.
         21    1    1    2  503  502 -0.98740422325E+02  0.19998021920E+02 -0.84158379605E+02  0.13127156866E+03  0.00000000000E+00 0.  1.
         21    1    1    2  504  503 -0.34804653135E+02 -0.12601817037E+02  0.11375584747E+02  0.38724328281E+02  0.00000000000E+00 0.  1.
         21    1    1    2  505  501  0.76493535186E+02  0.68458021024E+01  0.39695552337E+02  0.86451505522E+02  0.00000000000E+00 0.  1.
         21    1    1    2  506  505  0.57051540274E+02 -0.14242006986E+02 -0.31402378806E+02  0.66662001210E+02  0.00000000000E+00 0.  1.
<scales pt_clust_3="14000.00000" pt_clust_4="37.01580" pt_clust_5="63.80204" pt_clust_6="53.72204"></scales>
<clustering>
<clus scale="   37.016">  1  4  2 -1</clus>
<clus scale="   53.722">  2  6  1 -1</clus>
<clus scale="   63.802">  1  5  2 -1</clus>
<clus scale="   37.016">  1  3  2 -1</clus>
</clustering>
</event>
<event>
 6    0  0.2036847E+002  0.9166002E+02  0.7546771E-02  0.1298881E+00
         21   -1    0    0  506  501  0.00000000000E+00  0.00000000000E+00  0.11519350863E+03  0.11519350863E+03  0.00000000000E+00 0.  1.
         21   -1    0    0  504  502 -0.00000000000E+00 -0.00000000000E+00 -0.23362736844E+04  0.23362736844E+04  0.00000000000E+00 0.  1.
         21    1    1    2  503  502  0.30877544026E+02 -0.33357048888E+02 -0.10482649626E+04  0.10492499927E+04  0.00000000000E+00 0.  1.
         21    1    1    2  504  501 -0.16276511413E+02 -0.77087886916E+02  0.74142623924E+02  0.10818778034E+03  0.00000000000E+00 0.  1.
         21    1    1    2  505  503  0.16833024709E+02  0.11183422152E+03 -0.12561646351E+04  0.12612453505E+04  0.00000000000E+00 0.  1.
         21    1    1    2  506  505 -0.31434057322E+02 -0.13892857154E+01  0.92067980329E+01  0.32784069371E+02  0.00000000000E+00 0.  1.
<scales pt_clust_3="45.34840" pt_clust_4="91.66002" pt_clust_5="14000.00000" pt_clust_6="31.46474"></scales>
<clustering>
<clus scale="   31.465">  1  6  2 -1</clus>
<clus scale="   45.348">  2  3  1 -1</clus>
<clus scale="   91.660">  1  4  2 -1</clus>
<clus scale="   31.465">  1  3  2 -1</clus>
</clustering>
</event>
<event>
 6    0  0.2036847E+002  0.7655972E+02  0.7546771E-02  0.1339108E+00
         21   -1    0    0  504  501  0.00000000000E+00  0.00000000000E+00  0.55344629111E+02  0.55344629111E+02  0.00000000000E+00 0.  1.
         21   -1    0    0  505  502 -0.00000000000E+00 -0.00000000000E+00 -0.57265257447E+03  0.57265257447E+03  0.00000000000E+00 0.  1.
         21    1    1    2  503  502  0.35112733257E+02  0.16899199682E+02 -0.15703616101E+03  0.16179877271E+03  0.00000000000E+00 0.  1.
         21    1    1    2  504  503 -0.37078753398E+02  0.35331410184E+01 -0.31131697040E+00  0.37248006084E+02  0.00000000000E+00 0.  1.
         21    1    1    2  505  506 -0.62408472420E+02 -0.78500244143E+02 -0.31642902933E+03  0.33194041087E+03  0.00000000000E+00 0.  1.
         21    1    1    2  506  501  0.64374492560E+02  0.58067903443E+02 -0.43531438047E+02  0.97010013922E+02  0.00000000000E+00 0.  1.
<scales pt_clust_3="36.93016" pt_clust_4="37.24671" pt_clust_5="76.55972" pt_clust_6="14000.00000"></scales>
<clustering>
<clus scale="   37.247">  1  4  2 -1</clus>
<clus scale="   36.930">  2  3  1 -1</clus>
<clus scale="   76.560">  2  5  1 -1</clus>
<clus scale="   37.247">  1  3  2 -1</clus>
</clustering>
</event>
<event>
 6    0  0.2036847E+002  0.2112567E+03  0.7546771E-02  0.1140575E+00
         21   -1    0    0  505  501  0.00000000000E+00  0.00000000000E+00  0.53892428195E+03  0.53892428195E+03  0.00000000000E+00 0.  1.
         21   -1    0    0  503  502 -0.00000000000E+00 -0.00000000000E+00 -0.16573722334E+03  0.16573722334E+03  0.00000000000E+00 0.  1.
         21    1    1    2  503  504 -0.48159597478E+02 -0.45734884667E+01 -0.29740806332E+02  0.56787139277E+02  0.00000000000E+00 0.  1.
         21    1    1    2  504  506 -0.14113223235E+03  0.87387351577E+02 -0.21576960097E+02  0.16739301488E+03  0.00000000000E+00 0.  1.
         21    1    1    2  505  502  0.29787569743E+02 -0.11745009318E+02  0.16245608831E+03  0.16558147597E+03  0.00000000000E+00 0.  1.
         21    1    1    2  506  501  0.15950426008E+03 -0.71068853792E+02  0.26204873672E+03  0.31489987517E+03  0.00000000000E+00 0.  1.
<scales pt_clust_3="38.22582" pt_clust_4="38.22582" pt_clust_5="32.01944" pt_clust_6="199.23784"></scales>
<clustering>
<clus scale="   32.019">  1  5  2 -1</clus>
<clus scale="   38.226">  3  4 -1 -1</clus>
<clus scale="  199.238">  1  6  2 -1</clus>
<clus scale="   32.019">  1  3  2 -1</clus>
</clustering>
</event>
<event>
 6    0  0.2036847E+002  0.1015465E+03  0.7546771E-02  0.1277077E+00
         21   -1    0    0  504  501  0.00000000000E+00  0.00000000000E+00  0.11743521891E+04  0.11743521891E+04  0.00000000000E+00 0. -1.
         21   -1    0    0  505  502 -0.00000000000E+00 -0.00000000000E+00 -0.50492689937E+02  0.50492689937E+02  0.00000000000E+00 0.  1.
         21    1    1    2  503  506 -0.33219332226E+02 -0.63535046237E+02  0.48285350672E+02  0.86439002906E+02  0.00000000000E+00 0.  1.
         21    1    1    2  504  503  0.29757902821E+02 -0.13206915669E+02  0.10375945830E+03  0.10874732451E+03  0.00000000000E+00 0.  1.
         21    1    1    2  505  501  0.43600089229E+02  0.96730157213E+02  0.97857619824E+03  0.98431146842E+03  0.00000000000E+00 0. -1.
         21    1    1    2  506  502 -0.40138659825E+02 -0.19988195306E+02 -0.67615080452E+01  0.45347083205E+02  0.00000000000E+00 0.  1.
<scales pt_clust_3="101.54653" pt_clust_4="32.55696" pt_clust_5="14000.00000" pt_clust_6="44.46766"></scales>
<clustering>
<clus scale="   32.557">  1  4  2 -1</clus>
<clus scale="   44.468">  2  6  1 -1</clus>
<clus scale="  101.547">  2  3  1 -1</clus>
<clus scale="   32.557">  1  3  2 -1</clus>
</clustering>
</event>
<event>
 6    0  0.2036847E+002  0.8271918E+02  0.7546771E-02  0.1321507E+00
         21   -1    0    0  506  501  0.00000000000E+00  0.00000000000E+00  0.68787728565E+03  0.68787728565E+03  0.00000000000E+00 0.  1.
         21   -1    0    0  503  502 -0.00000000000E+00 -0.00000000000E+00 -0.48419789061E+02  0.48419789061E+02  0.00000000000E+00 0.  1.
         21    1    1    2  503  504  0.94498265714E+02  0.71428498749E+02  0.76111076262E+02  0.14080074072E+03  0.00000000000E+00 0.  1.
         21    1    1    2  504  501 -0.19406356047E+02 -0.68350821283E+02  0.37773346067E+03  0.38435791748E+03  0.00000000000E+00 0.  1.
         21    1    1    2  505  502 -0.23759057783E+02 -0.32473222411E+02  0.59325333092E+02  0.71683318471E+02  0.00000000000E+00 0.  1.
         21    1    1    2  506  505 -0.51332851883E+02  0.29395544945E+02  0.12628762657E+03  0.13945509804E+03  0.00000000000E+00 0.  1.
<scales pt_clust_3="82.71918" pt_clust_4="14000.00000" pt_clust_5="40.23684" pt_clust_6="60.17569"></scales>
<clustering>
<clus scale="   40.237">  2  5  1 -1</clus>
<clus scale="   60.176">  1  6  2 -1</clus>
<clus scale="   82.719">  2  3  1 -1</clus>
<clus scale="   60.176">  1  3  2 -1</clus>
</clustering>
</event>
<event>
 6    0  0.2036847E+002  0.1498678E+03  0.7546771E-02  0.1200635E+00
         21   -1    0    0  506  501  0.00000000000E+00  0.00000000000E+00  0.11850070059E+02  0.11850070059E+02  0.00000000000E+00 0. -1.
         21   -1    0    0  504  502 -0.00000000000E+00 -0.00000000000E+00 -0.29707484537E+04  0.29707484537E+04  0.00000000000E+00 0. -1.
         21    1    1    2  503  502  0.55507244126E+02 -0.78289361354E+02 -0.13163403330E+04  0.13198341375E+04  0.00000000000E+00 0. -1.
         21    1    1    2  504  505 -0.96592193575E+01  0.39503211552E+02 -0.35226395879E+03  0.35460358276E+03  0.00000000000E+00 0.  1.
         21    1    1    2  505  501 -0.11701634755E+03  0.51203255465E+02 -0.56399378440E+03  0.57827639395E+03  0.00000000000E+00 0. -1.
         21    1    1    2  506  503  0.71168322786E+02 -0.12417105663E+02 -0.72630030748E+03  0.72988440956E+03  0.00000000000E+00 0.  1.
<scales pt_clust_3="64.47409" pt_clust_4="40.66699" pt_clust_5="133.30191" pt_clust_6="64.47409"></scales>
<clustering>
<clus scale="   40.667">  2  4  1 -1</clus>
<clus scale="   64.474">  3  6 -1 -1</clus>
<clus scale="  133.302">  1  5  2 -1</clus>
<clus scale="  133.302">  1  3  2 -1</clus>
</clustering>
</event>
<event>
 6    0  0.2036847E+002  0.1804324E+03  0.7546771E-02  0.1167385E+00
         21   -1    0    0  503  501  0.00000000000E+00  0.00000000000E+00  0.14751127289E+04  0.14751127289E+04  0.00000000000E+00 0.  1.
         21   -1    0    0  506  502 -0.00000000000E+00 -0.00000000000E+00 -0.17921924532E+03  0.17921924532E+03  0.00000000000E+00 0.  1.
         21    1    1    2  503  505 -0.33494843662E+02  0.42331042684E+02  0.70347234605E+02  0.88671050198E+02  0.00000000000E+00 0. -1.
         21    1    1    2  504  501 -0.90819506632E+02 -0.40901380646E+02  0.11402721249E+04  0.11446141816E+04  0.00000000000E+00 0.  1.
         21    1    1    2  505  502 -0.43242372530E+02 -0.78026341022E+02  0.18944739298E+03  0.20939992212E+03  0.00000000000E+00 0. -1.
         21    1    1    2  506  504  0.16755672282E+03  0.76596678984E+02 -0.10417326895E+03  0.21164682034E+03  0.00000000000E+00 0.  1.
<scales pt_clust_3="53.97983" pt_clust_4="14000.00000" pt_clust_5="86.53036" pt_clust_6="180.43244"></scales>
<clustering>
<clus scale="   53.980">  1  3  2 -1</clus>
<clus scale="   86.530">  1  5  2 -1</clus>
<clus scale="  180.432">  2  6  1 -1</clus>
<clus scale="   53.980">  1  3  2 -1</clus>
</clustering>
</event>
<event>
 6    0  0.2036847E+002  0.1138176E+03  0.7546771E-02  0.1253659E+00
         21   -1    0    0  506  501  0.00000000000E+00  0.00000000000E+00  0.47567821000E+02  0.47567821000E+02  0.00000000000E+00 0.  1.
         21   -1    0    0  505  502 -0.00000000000E+00 -0.00000000000E+00 -0.17207684472E+04  0.17207684472E+04  0.00000000000E+00 0.  1.
         21    1    1    2  503  504  0.41162823852E+02 -0.47236737096E+02  0.49181128652E+01  0.62848032850E+02  0.00000000000E+00 0.  1.
         21    1    1    2  504  502 -0.57901857251E+02  0.10194234686E+03 -0.15504083804E+04  0.15548347221E+04  0.00000000000E+00 0.  1.
         21    1    1    2  505  501  0.36382036685E+02 -0.30652867072E+02 -0.90018910479E+02  0.10181677218E+03  0.00000000000E+00 0. -1.
         21    1    1    2  506  503 -0.19643003286E+02 -0.24052742688E+02 -0.37691448213E+02  0.48836741059E+02  0.00000000000E+00 0.  1.
<scales pt_clust_3="113.81764" pt_clust_4="14000.00000" pt_clust_5="47.83971" pt_clust_6="31.05450"></scales>
<clustering>
<clus scale="   31.055">  1  6  2 -1</clus>
<clus scale="   47.840">  1  5  2 -1</clus>
<clus scale="  113.818">  1  3  2 -1</clus>
<clus scale="   31.055">  1  3  2 -1</clus>
</clustering>
</event>
<event>
 6    0  0.2036847E+002  0.1407242E+03  0.7546771E-02  0.1212358E+00
         21   -1    0    0  503  501  0.00000000000E+00  0.00000000000E+00  0.40819695795E+03  0.40819695795E+03  0.00000000000E+00 0. -1.
         21   -1    0    0  505  502 -0.00000000000E+00 -0.00000000000E+00 -0.10374342115E+04  0.10374342115E+04  0.00000000000E+00 0. -1.
         21    1    1    2  503  506  0.22197161316E+02  0.44634605302E+02  0.22846061374E+03  0.23383586977E+03  0.00000000000E+00 0. -1.
         21    1    1    2  504  501 -0.76221307438E+02 -0.97423179403E+02 -0.83188499272E+03  0.84103127451E+03  0.00000000000E+00 0. -1.
         21    1    1    2  505  504  0.22633175911E+02 -0.22159349343E+02 -0.18731416209E+03  0.18997340007E+03  0.00000000000E+00 0. -1.
         21    1    1    2  506  502  0.31390970211E+02  0.74947923443E+02  0.16150128755E+03  0.18079062508E+03  0.00000000000E+00 0. -1.
<scales pt_clust_3="40.51675" pt_clust_4="130.88210" pt_clust_5="31.67487" pt_clust_6="40.51675"></scales>
<clustering>
<clus scale="   31.675">  2  5  1 -1</clus>
<clus scale="   40.517">  3  6 -1 -1</clus>
<clus scale="  130.882">  2  4  1 -1</clus>
<clus scale="  140.724">  1  3  2 -1</clus>
</clustering>
</event>
<event>
 6    0  0.2036847E+002  0.1717526E+03  0.7546771E-02  0.1176032E+00
         21   -1    0    0  504  501  0.00000000000E+00  0.00000000000E+00  0.78658421431E+03  0.78658421431E+03  0.00000000000E+00 0. -1.
         21   -1    0    0  505  502 -0.00000000000E+00 -0.00000000000E+00 -0.80572971473E+03  0.80572971473E+03  0.00000000000E+00 0.  1.
         21    1    1    2  503  506  0.98307293447E+02 -0.45415113888E+02 -0.65920837112E+03  0.66804381074E+03  0.00000000000E+00 0.  1.
         21    1    1    2  504  502 -0.33740851939E+02  0.61831334837E+02  0.43520562689E+03  0.44086902447E+03  0.00000000000E+00 0. -1.
         21    1    1    2  505  503  0.46938758171E+02 -0.20295220671E+02 -0.12506898518E+03  0.13511992471E+03  0.00000000000E+00 0. -1.
         21    1    1    2  506  501 -0.11150519968E+03  0.38789997223E+01  0.32992622898E+03  0.34828116912E+03  0.00000000000E+00 0. -1.
<scales pt_clust_3="46.43892" pt_clust_4="70.43834" pt_clust_5="46.43892" pt_clust_6="157.89933"></scales>
<clustering>
<clus scale="   46.439">  3  5 -1 -1</clus>
<clus scale="   70.438">  1  4  2 -1</clus>
<clus scale="  157.899">  1  6  2 -1</clus>
<clus scale="   70.438">  1  3  2 -1</clus>
</clustering>
</event>
<event>
 6    0  0.2036847E+002  0.2793228E+03  0.7546771E-02  0.1096059E+00
         21   -1    0    0  505  501  0.00000000000E+00  0.00000000000E+00  0.28324108112E+03  0.28324108112E+03  0.00000000000E+00 0.  1.
         21   -1    0    0  506  502 -0.00000000000E+00 -0.00000000000E+00 -0.30524762371E+04  0.30524762371E+04  0.00000000000E+00 0. -1.
         21    1    1    2  503  501 -0.23067773922E+03  0.69604294349E+02 -0.28010499962E+04  0.28113943264E+04  0.00000000000E+00 0. -1.
         21    1    1    2  504  502  0.20967051320E+03 -0.31520551210E+02  0.19837376440E+03  0.29035739986E+03  0.00000000000E+00 0.  1.
         21    1    1    2  505  504  0.50406872332E+02 -0.25740625476E+02  0.74251560186E+01  0.57083846402E+02  0.00000000000E+00 0.  1.
         21    1    1    2  506  503 -0.29399646311E+02 -0.12343117663E+02 -0.17398408016E+03  0.17688174554E+03  0.00000000000E+00 0. -1.
<scales pt_clust_3="265.66533" pt_clust_4="44.55047" pt_clust_5="44.55047" pt_clust_6="31.88560"></scales>
<clustering>
<clus scale="   31.886">  2  6  1 -1</clus>
<clus scale="   44.550">  4  5 -1 -1</clus>
<clus scale="  265.665">  2  3  1 -1</clus>
<clus scale="  279.323">  1  3  2 -1</clus>
</clustering>
</event>
<event>
 6    0  0.2036847E+002  0.1109507E+03  0.7546771E-02  0.1258819E+00
         21   -1    0    0  505  501  0.00000000000E+00  0.00000000000E+00  0.23132671210E+03  0.23132671210E+03  0.00000000000E+00 0. -1.
         21   -1    0    0  506  502 -0.00000000000E+00 -0.00000000000E+00 -0.35883308041E+03  0.35883308041E+03  0.00000000000E+00 0.  1.
         21    1    1    2  503  502  0.68866525249E+02  0.54187607270E+02 -0.24180363307E+03  0.25719232502E+03  0.00000000000E+00 0.  1.
         21    1    1    2  504  503 -0.11630096208E+03  0.39183579080E+02  0.60365445562E+02  0.13676715128E+03  0.00000000000E+00 0. -1.
         21    1    1    2  505  504  0.54258117831E+01 -0.94133645050E+02  0.97526829369E+02  0.13565421118E+03  0.00000000000E+00 0. -1.
         21    1    1    2  506  501  0.42008625050E+02  0.76245869980E+00 -0.43595010172E+02  0.60546105026E+02  0.00000000000E+00 0.  1.
<scales pt_clust_3="110.95074" pt_clust_4="14000.00000" pt_clust_5="94.42886" pt_clust_6="42.01554"></scales>
<clustering>
<clus scale="   42.016">  2  6  1 -1</clus>
<clus scale="   94.429">  1  5  2 -1</clus>
<clus scale="  110.951">  2  3  1 -1</clus>
<clus scale="   94.429">  1  3  2 -1</clus>
</clustering>
</event>
<event>
 6    0  0.2036847E+002  0.9256622E+02  0.7546771E-02  0.1296754E+00
         21   -1    0    0  504  501  0.00000000000E+00  0.00000000000E+00  0.47056524025E+02  0.47056524025E+02  0.00000000000E+00 0.  1.
         21   -1    0    0  506  502 -0.00000000000E+00 -0.00000000000E+00 -0.14372698581E+04  0.14372698581E+04  0.00000000000E+00 0.  1.
         21    1    1    2  503  505  0.54492178493E+02  0.69727710977E+02 -0.13739137709E+03  0.16342503386E+03  0.00000000000E+00 0.  1.
         21    1    1    2  504  502 -0.10996398348E+03 -0.76948120428E+02 -0.27202241727E+03  0.30333032555E+03  0.00000000000E+00 0.  1.
         21    1    1    2  505  501 -0.18642146167E+02 -0.39022172273E+02 -0.12054334997E+02  0.44895061364E+02  0.00000000000E+00 0.  1.
         21    1    1    2  506  503  0.74113951153E+02  0.46242581724E+02 -0.96874520470E+03  0.97267596133E+03  0.00000000000E+00 0.  1.
<scales pt_clust_3="70.66531" pt_clust_4="14000.00000" pt_clust_5="43.24650" pt_clust_6="92.56622"></scales>
<clustering>
<clus scale="   43.246">  1  5  2 -1</clus>
<clus scale="   70.665">  1  3  2 -1</clus>
<clus scale="   92.566">  2  6  1 -1</clus>
<clus scale="   43.246">  1  3  2 -1</clus>
</clustering>
</event>
<event>
 6    0  0.2036847E+002  0.1748428E+03  0.7546771E-02  0.1172890E+00
         21   -1    0    0  503  501  0.00000000000E+00  0.00000000000E+00  0.20415369369E+03  0.20415369369E+03  0.00000000000E+00 0.  1.
         21   -1    0    0  506  502 -0.00000000000E+00 -0.00000000000E+00 -0.14528254907E+03  0.14528254907E+03  0.00000000000E+00 0.  1.
         21    1    1    2  503  504  0.18334229258E+02  0.98057301366E+02  0.69360253126E+02  0.12149988900E+03  0.00000000000E+00 0.  1.
         21    1    1    2  504  502  0.38985520656E+02  0.48402655586E+02 -0.10403927380E+02  0.63015312374E+02  0.00000000000E+00 0.  1.
         21    1    1    2  505  501 -0.19498685260E+02 -0.85837183216E+02  0.20858758763E+02  0.90461641409E+02  0.00000000000E+00 0.  1.
         21    1    1    2  506  505 -0.37821064654E+02 -0.60622773736E+02 -0.20943939883E+02  0.74459399976E+02  0.00000000000E+00 0.  1.
<scales pt_clust_3="60.28823" pt_clust_4="60.28823" pt_clust_5="164.92102" pt_clust_6="44.71271"></scales>
<clustering>
<clus scale="   44.713">  5  6 -1 -1</clus>
<clus scale="   60.288">  3  4 -1 -1</clus>
<clus scale="  164.921">  2  5  1 -1</clus>
<clus scale="  174.843">  1  3  2 -1</clus>
</clustering>
</event>
<event>
 6    0  0.2036847E+002  0.1427105E+03  0.7546771E-02  0.1209728E+00
         21   -1    0    0  505  501  0.00000000000E+00  0.00000000000E+00  0.21112676989E+04  0.21112676989E+04  0.00000000000E+00 0. -1.
         21   -1    0    0  501  502 -0.00000000000E+00 -0.00000000000E+00 -0.37308973017E+03  0.37308973017E+03  0.00000000000E+00 0. -1.
         21    1    1    2  503  506  0.91682959217E+02 -0.11192795459E+02  0.79338845222E+03  0.79874669313E+03  0.00000000000E+00 0. -1.
         21    1    1    2  504  502 -0.80252656941E+02 -0.80471088598E+01 -0.25051144060E+03  0.26317527767E+03  0.00000000000E+00 0. -1.
         21    1    1    2  505  503  0.45780621840E+02  0.67869730994E+01  0.13008827109E+04  0.13017057102E+04  0.00000000000E+00 0. -1.
         21    1    1    2  506  504 -0.57210924117E+02  0.12452931220E+02 -0.10558175382E+03  0.12072974809E+03  0.00000000000E+00 0. -1.
<scales pt_clust_3="136.75240" pt_clust_4="34.76676" pt_clust_5="46.28097" pt_clust_6="34.76676"></scales>
<clustering>
<clus scale="   34.767">  4  6 -1 -1</clus>
<clus scale="   46.281">  1  5  2 -1</clus>
<clus scale="  136.752">  1  3  2 -1</clus>
<clus scale="   46.281">  1  3  2 -1</clus>
</clustering>
</event>
<event>
 6    0  0.2036847E+002  0.1395845E+03  0.7546771E-02  0.1213889E+00
         21   -1    0    0  505  501  0.00000000000E+00  0.00000000000E+00  0.60181357346E+03  0.60181357346E+03  0.00000000000E+00 0. -1.
         21   -1    0    0  504  502 -0.00000000000E+00 -0.00000000000E+00 -0.85874134945E+03  0.85874134945E+03  0.00000000000E+00 0.  1.
         21    1    1    2  503  502 -0.85907741996E+02 -0.11900856673E+03 -0.14336222244E+03  0.20517286837E+03  0.00000000000E+00 0.  1.
         21    1    1    2  504  506  0.13765594882E+03  0.41708967212E+02 -0.67020187982E+03  0.68546287858E+03  0.00000000000E+00 0.  1.
         21    1    1    2  505  503 -0.24450304912E+02  0.60289372014E+02  0.50437291387E+03  0.50855153332E+03  0.00000000000E+00 0. -1.
         21    1    1    2  506  501 -0.27297901913E+02  0.17010227507E+02  0.52263412397E+02  0.61367642647E+02  0.00000000000E+00 0.  1.
<scales pt_clust_3="139.58453" pt_clust_4="14000.00000" pt_clust_5="90.95364" pt_clust_6="32.16401"></scales>
<clustering>
<clus scale="   32.164">  1  6  2 -1</clus>
<clus scale="   90.954">  1  5  2 -1</clus>
<clus scale="  139.585">  1  3  2 -1</clus>
<clus scale="   32.164">  1  3  2 -1</clus>
</clustering>
</event>
<event>
 6    0  0.2036847E+002  0.3303530E+03  0.7546771E-02  0.1070981E+00
         21   -1    0    0  502  501  0.00000000000E+00  0.00000000000E+00  0.24265914967E+03  0.24265914967E+03  0.00000000000E+00 0. -1.
         21   -1    0    0  504  502 -0.00000000000E+00 -0.00000000000E+00 -0.83495901160E+03  0.83495901160E+03  0.00000000000E+00 0. -1.
         21    1    1    2  503  506  0.12250492775E+03  0.48922769566E+02  0.93457259452E+01  0.13224309925E+03  0.00000000000E+00 0. -1.
         21    1    1    2  504  505 -0.28448251030E+02  0.19389526421E+02 -0.12177793999E+03  0.12655087273E+03  0.00000000000E+00 0.  1.
         21    1    1    2  505  503 -0.29232924291E+03 -0.10598201384E+03 -0.52670374533E+03  0.61164156895E+03  0.00000000000E+00 0. -1.
         21    1    1    2  506  501  0.19827256619E+03  0.37669717849E+02  0.46836097444E+02  0.20718262034E+03  0.00000000000E+00 0. -1.
<scales pt_clust_3="32.90924" pt_clust_4="34.42756" pt_clust_5="327.83553" pt_clust_6="32.90924"></scales>
<clustering>
<clus scale="   32.909">  3  6 -1 -1</clus>
<clus scale="   34.428">  2  4  1 -1</clus>
<clus scale="  327.836">  2  5  1 -1</clus>
<clus scale="  330.353">  1  3  2 -1</clus>
</clustering>
</event>
<event>
 6    0  0.2036847E+002  0.1533567E+03  0.7546771E-02  0.1196408E+00
         21   -1    0    0  506  501  0.00000000000E+00  0.00000000000E+00  0.22820211935E+03  0.22820211935E+03  0.00000000000E+00 0. -1.
         21   -1    0    0  505  502 -0.00000000000E+00 -0.00000000000E+00 -0.11287319150E+04  0.11287319150E+04  0.00000000000E+00 0. -1.
         21    1    1    2  503  502  0.97079130090E+02  0.12160902964E+03 -0.10399955850E+04  0.10515721232E+04  0.00000000000E+00 0. -1.
         21    1    1    2  504  503 -0.55673592927E+02 -0.84882037367E+02  0.11539319536E+03  0.15368831690E+03  0.00000000000E+00 0. -1.
         21    1    1    2  505  501 -0.73335330702E+01 -0.44287298040E+02 -0.51567978342E+02  0.68369597522E+02  0.00000000000E+00 0.  1.
         21    1    1    2  506  504 -0.34072004092E+02  0.75603057722E+01  0.75640572307E+02  0.83303996694E+02  0.00000000000E+00 0. -1.
<scales pt_clust_3="14000.00000" pt_clust_4="153.35668" pt_clust_5="44.82671" pt_clust_6="34.90071"></scales>
<clustering>
<clus scale="   34.901">  1  6  2 -1</clus>
<clus scale="   44.827">  1  5  2 -1</clus>
<clus scale="  153.357">  1  4  2 -1</clus>
<clus scale="   34.901">  1  3  2 -1</clus>
</clustering>
</event>
<event>
 6    0  0.2036847E+002  0.1055758E+03  0.7546771E-02  0.1268989E+00
         21   -1    0    0  503  501  0.00000000000E+00  0.00000000000E+00  0.20196194555E+03  0.20196194555E+03  0.00000000000E+00 0. -1.
         21   -1    0    0  504  502 -0.00000000000E+00 -0.00000000000E+00 -0.12759380265E+03  0.12759380265E+03  0.00000000000E+00 0. -1.
         21    1    1    2  503  506  0.59962497293E+02 -0.16094942954E+02  0.22630779996E+02  0.66081014471E+02  0.00000000000E+00 0. -1.
         21    1    1    2  504  501 -0.92992030843E+02 -0.36113072495E+02  0.11389823193E+03  0.15140831893E+03  0.00000000000E+00 0. -1.
         21    1    1    2  505  502 -0.82237301504E+01  0.46252450888E+02 -0.50090411081E+02  0.68672907562E+02  0.00000000000E+00 0. -1.
         21    1    1    2  506  505  0.41253263700E+02  0.59555645610E+01 -0.12070457945E+02  0.43393507235E+02  0.00000000000E+00 0. -1.
<scales pt_clust_3="32.00456" pt_clust_4="98.08431" pt_clust_5="46.97786" pt_clust_6="32.00456"></scales>
<clustering>
<clus scale="   32.005">  3  6 -1 -1</clus>
<clus scale="   46.978">  2  5  1 -1</clus>
<clus scale="   98.084">  1  4  2 -1</clus>
<clus scale="   98.084">  1  3  2 -1</clus>
</clustering>
</event>
<event>
 6    0  0.2036847E+002  0.9375833E+02  0.7546771E-02  0.1293997E+00
         21   -1    0    0  503  501  0.00000000000E+00  0.00000000000E+00  0.74168132246E+02  0.74168132246E+02  0.00000000000E+00 0.  1.
         21   -1    0    0  501  502 -0.00000000000E+00 -0.00000000000E+00 -0.23686477886E+04  0.23686477886E+04  0.00000000000E+00 0. -1.
         21    1    1    2  503  505 -0.21692832473E+02 -0.42675238655E+02 -0.37296784474E+02  0.60686119558E+02  0.00000000000E+00 0. -1.
         21    1    1    2  504  502 -0.21347113410E+02 -0.29869477960E+02 -0.14214125515E+04  0.14218866082E+04  0.00000000000E+00 0. -1.
         21    1    1    2  505  506  0.83909929875E+02  0.11639461557E+03 -0.23063752421E+02  0.14532900447E+03  0.00000000000E+00 0.  1.
         21    1    1    2  506  504 -0.40869983992E+02 -0.43849898958E+02 -0.81270656796E+03  0.81491418863E+03  0.00000000000E+00 0.  1.
<scales pt_clust_3="49.75102" pt_clust_4="36.71355" pt_clust_5="93.75833" pt_clust_6="14000.00000"></scales>
<clustering>
<clus scale="   36.714">  2  4  1 -1</clus>
<clus scale="   49.751">  1  3  2 -1</clus>
<clus scale="   93.758">  1  5  2 -1</clus>
<clus scale="   49.751">  1  3  2 -1</clus>
</clustering>
</event>
<event>
 6    0  0.2036847E+002  0.2207893E+03  0.7546771E-02  0.1133296E+00
         21   -1    0    0  503  501  0.00000000000E+00  0.00000000000E+00  0.29749289456E+03  0.29749289456E+03  0.00000000000E+00 0. -1.
         21   -1    0    0  505  502 -0.00000000000E+00 -0.00000000000E+00 -0.13700254415E+04  0.13700254415E+04  0.00000000000E+00 0.  1.
         21    1    1    2  503  502  0.20072917009E+02  0.38315441550E+02 -0.48763368121E+03  0.48954836544E+03  0.00000000000E+00 0.  1.
         21    1    1    2  504  501 -0.79738240345E+02 -0.76880398161E+02  0.16279271162E+03  0.19690162405E+03  0.00000000000E+00 0. -1.
         21    1    1    2  505  506  0.14886347799E+03  0.95592578620E+02 -0.82894430231E+03  0.84761248959E+03  0.00000000000E+00 0.  1.
         21    1    1    2  506  504 -0.89198154654E+02 -0.57027622009E+02  0.81252724916E+02  0.13345585702E+03  0.00000000000E+00 0. -1.
<scales pt_clust_3="43.25500" pt_clust_4="54.40411" pt_clust_5="213.63725" pt_clust_6="54.40411"></scales>
<clustering>
<clus scale="   43.255">  2  3  1 -1</clus>
<clus scale="   54.404">  4  6 -1 -1</clus>
<clus scale="  213.637">  2  5  1 -1</clus>
<clus scale="  220.789">  1  3  2 -1</clus>
</clustering>
</event>
<event>
 6    0  0.2036847E+002  0.2132734E+03  0.7546771E-02  0.1139000E+00
         21   -1    0    0  503  501  0.00000000000E+00  0.00000000000E+00  0.81181619353E+03  0.81181619353E+03  0.00000000000E+00 0. -1.
         21   -1    0    0  506  502 -0.00000000000E+00 -0.00000000000E+00 -0.56364052575E+02  0.56364052575E+02  0.00000000000E+00 0.  1.
         21    1    1    2  503  504 -0.15896525692E+02 -0.57430666432E+02  0.22237917391E+03  0.23022484220E+03  0.00000000000E+00 0. -1.
         21    1    1    2  504  502 -0.10481146897E+03 -0.99899046769E+02  0.27040943985E+03  0.30673527468E+03  0.00000000000E+00 0. -1.
         21    1    1    2  505  501  0.40981877519E+02  0.77480236357E+02  0.13359899925E+03  0.15978546214E+03  0.00000000000E+00 0.  1.
         21    1    1    2  506  505  0.79726117141E+02  0.79849476844E+02  0.12906452796E+03  0.17143466710E+03  0.00000000000E+00 0.  1.
<scales pt_clust_3="50.36051" pt_clust_4="50.36051" pt_clust_5="32.87819" pt_clust_6="201.77870"></scales>
<clustering>
<clus scale="   32.878">  5  6 -1 -1</clus>
<clus scale="   50.361">  3  4 -1 -1</clus>
<clus scale="  201.779">  2  5  1 -1</clus>
<clus scale="  213.273">  1  3  2 -1</clus>
</clustering>
</event>
<event>
 6    0  0.2036847E+002  0.1340973E+03  0.7546771E-02  0.1221500E+00
         21   -1    0    0  503  501  0.00000000000E+00  0.00000000000E+00  0.34672496695E+03  0.34672496695E+03  0.00000000000E+00 0. -1.
         21   -1    0    0  506  502 -0.00000000000E+00 -0.00000000000E+00 -0.12113036911E+04  0.12113036911E+04  0.00000000000E+00 0. -1.
         21    1    1    2  503  505  0.27527969636E+02  0.14893164246E+02  0.43600359941E+02  0.53671098745E+02  0.00000000000E+00 0. -1.
         21    1    1    2  504  502 -0.13339463835E+03  0.16045982050E+02 -0.11526652289E+04  0.11604691866E+04  0.00000000000E+00 0. -1.
         21    1    1    2  505  504 -0.13819525631E+01  0.42515266569E+02 -0.21629205534E+02  0.47720857247E+02  0.00000000000E+00 0.  1.
         21    1    1    2  506  501  0.10724862127E+03 -0.73454412865E+02  0.26611535035E+03  0.29616751548E+03  0.00000000000E+00 0. -1.
<scales pt_clust_3="31.29849" pt_clust_4="14000.00000" pt_clust_5="43.16743" pt_clust_6="134.09728"></scales>
<clustering>
<clus scale="   31.298">  1  3  2 -1</clus>
<clus scale="   43.167">  1  5  2 -1</clus>
<clus scale="  134.097">  1  6  2 -1</clus>
<clus scale="   31.298">  1  3  2 -1</clus>
</clustering>
</event>
<event>
 6    0  0.2036847E+002  0.1376354E+03  0.7546771E-02  0.1216547E+00
         21   -1    0    0  504  501  0.00000000000E+00  0.00000000000E+00  0.28093947006E+03  0.28093947006E+03  0.00000000000E+00 0. -1.
         21   -1    0    0  503  502 -0.00000000000E+00 -0.00000000000E+00 -0.94468756817E+02  0.94468756817E+02  0.00000000000E+00 0. -1.
         21    1    1    2  503  506  0.38892547951E+02  0.11812201819E+02 -0.47309634061E+01  0.40921148721E+02  0.00000000000E+00 0. -1.
         21    1    1    2  504  502  0.15263685351E+02  0.11142621669E+03  0.29640896148E+02  0.11630719918E+03  0.00000000000E+00 0. -1.
         21    1    1    2  505  501 -0.14763063041E+01 -0.41743012951E+02  0.84516865392E+02  0.94274912602E+02  0.00000000000E+00 0. -1.
         21    1    1    2  506  505 -0.52679926998E+02 -0.81495405561E+02  0.77043915109E+02  0.12390496637E+03  0.00000000000E+00 0. -1.
<scales pt_clust_3="40.64675" pt_clust_4="124.75393" pt_clust_5="38.14253" pt_clust_6="38.14253"></scales>
<clustering>
<clus scale="   38.143">  5  6 -1 -1</clus>
<clus scale="   40.647">  2  3  1 -1</clus>
<clus scale="  124.754">  2  4  1 -1</clus>
<clus scale="  137.635">  1  3  2 -1</clus>
</clustering>
</event>
<event>
 6    0  0.2036847E+002  0.1608521E+03  0.7546771E-02  0.1187738E+00
         21   -1    0    0  504  501  0.00000000000E+00  0.00000000000E+00  0.20978137761E+03  0.20978137761E+03  0.00000000000E+00 0. -1.
         21   -1    0    0  503  502 -0.00000000000E+00 -0.00000000000E+00 -0.96666282229E+03  0.96666282229E+03  0.00000000000E+00 0.  1.
         21    1    1    2  503  505 -0.58546133339E+02  0.56631329444E+02 -0.65233977633E+03  0.65740546164E+03  0.00000000000E+00 0.  1.
         21    1    1    2  504  506  0.99211495338E+02 -0.41860413375E+02  0.15914205246E+03  0.19214944152E+03  0.00000000000E+00 0. -1.
         21    1    1    2  505  501 -0.68739737414E+02  0.13860184792E+02 -0.27613676828E+03  0.28490133558E+03  0.00000000000E+00 0.  1.
         21    1    1    2  506  502  0.28074375415E+02 -0.28631100861E+02  0.12453047468E+02  0.41987961164E+02  0.00000000000E+00 0. -1.
<scales pt_clust_3="63.62770" pt_clust_4="159.29672" pt_clust_5="63.62770" pt_clust_6="39.56974"></scales>
<clustering>
<clus scale="   39.570">  4  6 -1 -1</clus>
<clus scale="   63.628">  3  5 -1 -1</clus>
<clus scale="  159.297">  1  4  2 -1</clus>
<clus scale="  159.297">  1  3  2 -1</clus>
</clustering>
</event>
<event>
 6    0  0.2036847E+002  0.1549426E+03  0.7546771E-02  0.1194528E+00
         21   -1    0    0  506  501  0.00000000000E+00  0.00000000000E+00  0.15695935490E+04  0.15695935490E+04  0.00000000000E+00 0. -1.
         21   -1    0    0  503  502 -0.00000000000E+00 -0.00000000000E+00 -0.20540856823E+03  0.20540856823E+03  0.00000000000E+00 0.  1.
         21    1    1    2  503  501 -0.36000177634E+02 -0.13990271889E+03  0.13387444183E+04  0.13465160233E+04  0.00000000000E+00 0. -1.
         21    1    1    2  504  502  0.37437777377E+02  0.11656649676E+02 -0.42291514584E+01  0.39437930709E+02  0.00000000000E+00 0.  1.
         21    1    1    2  505  504 -0.42164202726E+02  0.14424414803E+03 -0.14509196466E+03  0.20889201143E+03  0.00000000000E+00 0.  1.
         21    1    1    2  506  505  0.40726602983E+02 -0.15998078816E+02  0.17476167860E+03  0.18015615178E+03  0.00000000000E+00 0. -1.
<scales pt_clust_3="154.94259" pt_clust_4="39.21052" pt_clust_5="14000.00000" pt_clust_6="44.20692"></scales>
<clustering>
<clus scale="   39.211">  2  4  1 -1</clus>
<clus scale="   44.207">  1  6  2 -1</clus>
<clus scale="  154.943">  1  3  2 -1</clus>
<clus scale="   44.207">  1  3  2 -1</clus>
</clustering>
</event>
<event>
 6    0  0.2036847E+002  0.1462720E+03  0.7546771E-02  0.1205130E+00
         21   -1    0    0  504  501  0.00000000000E+00  0.00000000000E+00  0.20149540181E+03  0.20149540181E+03  0.00000000000E+00 0.  1.
         21   -1    0    0  506  502 -0.00000000000E+00 -0.00000000000E+00 -0.17328239644E+04  0.17328239644E+04  0.00000000000E+00 0.  1.
         21    1    1    2  503  505 -0.47365423668E+02  0.30241370761E+01 -0.41294563049E+03  0.41566419440E+03  0.00000000000E+00 0. -1.
         21    1    1    2  504  503  0.20829881466E+02 -0.33137094126E+02 -0.14017218677E+02  0.41574431907E+02  0.00000000000E+00 0.  1.
         21    1    1    2  505  502 -0.65736813854E+02  0.70800952604E+02 -0.12751179630E+04  0.12787728192E+04  0.00000000000E+00 0.  1.
         21    1    1    2  506  501  0.92272356056E+02 -0.40687995554E+02  0.17075224958E+03  0.19830792070E+03  0.00000000000E+00 0.  1.
<scales pt_clust_3="40.36793" pt_clust_4="39.14015" pt_clust_5="40.36793" pt_clust_6="134.46060"></scales>
<clustering>
<clus scale="   39.140">  1  4  2 -1</clus>
<clus scale="   40.368">  3  5 -1 -1</clus>
<clus scale="  134.461">  1  6  2 -1</clus>
<clus scale="   39.140">  1  3  2 -1</clus>
</clustering>
</event>
<event>
 6    0  0.2276203E+002  0.8383433E+02  0.7546771E-02  0.1318509E+00
         21   -1    0    0  506  501  0.00000000000E+00  0.00000000000E+00  0.79642119261E+03  0.79642119261E+03  0.00000000000E+00 0.  1.
         21   -1    0    0  504  502 -0.00000000000E+00 -0.00000000000E+00 -0.12883987954E+04  0.12883987954E+04  0.00000000000E+00 0.  1.
         21    1    1    2  503  505 -0.65436951987E+02  0.76040755540E+02 -0.11342378786E+04  0.11386657790E+04  0.00000000000E+00 0.  1.
         21    1    1    2  504  501 -0.14759247748E+01 -0.58525461834E+02 -0.24659068216E+02  0.63525409736E+02  0.00000000000E+00 0.  1.
         21    1    1    2  505  502 -0.20313222183E+01  0.30133980829E+02 -0.10342211093E+03  0.10774189575E+03  0.00000000000E+00 0. -1.
         21    1    1    2  506  503  0.68944198980E+02 -0.47649274535E+02  0.77034145495E+03  0.77488690346E+03  0.00000000000E+00 0.  1.
<scales pt_clust_3="14000.00000" pt_clust_4="57.42312" pt_clust_5="30.20237" pt_clust_6="83.83433"></scales>
<clustering>
<clus scale="   30.202">  2  5  1 -1</clus>
<clus scale="   57.423">  2  4  1 -1</clus>
<clus scale="   83.834">  1  6  2 -1</clus>
<clus scale="   83.834">  1  3  2 -1</clus>
</clustering>
</event>
<event>
 6    0  0.2036847E+002  0.7759014E+02  0.7546771E-02  0.1336033E+00
         21   -1    0    0  503  501  0.00000000000E+00  0.00000000000E+00  0.44863628394E+03  0.44863628394E+03  0.00000000000E+00 0.  1.
         21   -1    0    0  506  502 -0.00000000000E+00 -0.00000000000E+00 -0.13037706179E+03  0.13037706179E+03  0.00000000000E+00 0.  1.
         21    1    1    2  503  505  0.29991804372E+02  0.63956600307E+02  0.29537702176E+03  0.30370633848E+03  0.00000000000E+00 0.  1.
         21    1    1    2  504  501 -0.69572121302E+02  0.42231233362E+02  0.58402980608E+02  0.10017317644E+03  0.00000000000E+00 0.  1.
         21    1    1    2  505  502 -0.32120414553E+02 -0.92529003370E+02 -0.13352632145E+02  0.98851556796E+02  0.00000000000E+00 0.  1.
         21    1    1    2  506  504  0.71700731483E+02 -0.13658830298E+02 -0.22168148073E+02  0.76282274018E+02  0.00000000000E+00 0.  1.
<scales pt_clust_3="70.63961" pt_clust_4="77.59014" pt_clust_5="14000.00000" pt_clust_6="77.17081"></scales>
<clustering>
<clus scale="   70.640">  1  3  2 -1</clus>
<clus scale="   77.171">  2  6  1 -1</clus>
<clus scale="   77.590">  1  4  2 -1</clus>
<clus scale="   70.640">  1  3  2 -1</clus>
</clustering>
</event>
<event>
 6    0  0.2036847E+002  0.1462867E+03  0.7546771E-02  0.1205112E+00
         21   -1    0    0  505  501  0.00000000000E+00  0.00000000000E+00  0.23724729615E+03  0.23724729615E+03  0.00000000000E+00 0. -1.
         21   -1    0    0  501  502 -0.00000000000E+00 -0.00000000000E+00 -0.25510358786E+03  0.25510358786E+03  0.00000000000E+00 0. -1.
         21    1    1    2  503  502  0.54666699462E+02 -0.84345850243E+02 -0.18146824445E+03  0.20744491854E+03  0.00000000000E+00 0. -1.
         21    1    1    2  504  506 -0.15866075612E+02  0.78126992440E+02  0.14040086123E+03  0.16145575597E+03  0.00000000000E+00 0. -1.
         21    1    1    2  505  504 -0.36152070005E+02  0.44839455043E+02  0.50082172433E+02  0.76326750814E+02  0.00000000000E+00 0. -1.
         21    1    1    2  506  503 -0.26485538456E+01 -0.38620597240E+02 -0.26871080919E+02  0.47123458685E+02  0.00000000000E+00 0. -1.
<scales pt_clust_3="37.09672" pt_clust_4="142.32616" pt_clust_5="41.90134" pt_clust_6="37.09672"></scales>
<clustering>
<clus scale="   37.097">  3  6 -1 -1</clus>
<clus scale="   41.901">  4  5 -1 -1</clus>
<clus scale="  142.326">  1  4  2 -1</clus>
<clus scale="  142.326">  1  3  2 -1</clus>
</clustering>
</event>
<event>
 6    0  0.2036847E+002  0.1591719E+03  0.7546771E-02  0.1189635E+00
         21   -1    0    0  504  501  0.00000000000E+00  0.00000000000E+00  0.28181196064E+03  0.28181196064E+03  0.00000000000E+00 0. -1.
         21   -1    0    0  501  502 -0.00000000000E+00 -0.00000000000E+00 -0.16417025380E+03  0.16417025380E+03  0.00000000000E+00 0. -1.
         21    1    1    2  503  502  0.10632434361E+03 -0.47691198881E+02 -0.65740128069E+02  0.13379492118E+03  0.00000000000E+00 0. -1.
         21    1    1    2  504  505 -0.78599028237E+02  0.48413826956E+02  0.90185579638E+02  0.12905481260E+03  0.00000000000E+00 0. -1.
         21    1    1    2  505  506 -0.43020493618E+02  0.39042084177E+02  0.11963233506E+03  0.13299226594E+03  0.00000000000E+00 0. -1.
         21    1    1    2  506  503  0.15295178241E+02 -0.39764712252E+02 -0.26436079791E+02  0.50140214725E+02  0.00000000000E+00 0.  1.
<scales pt_clust_3="32.53847" pt_clust_4="156.98762" pt_clust_5="37.25368" pt_clust_6="32.53847"></scales>
<clustering>
<clus scale="   32.538">  3  6 -1 -1</clus>
<clus scale="   37.254">  4  5 -1 -1</clus>
<clus scale="  156.988">  1  4  2 -1</clus>
<clus scale="  156.988">  1  3  2 -1</clus>
</clustering>
</event>
<event>
 6    0  0.2036847E+002  0.1042577E+03  0.7546771E-02  0.1271589E+00
         21   -1    0    0  505  501  0.00000000000E+00  0.00000000000E+00  0.19218454332E+03  0.19218454332E+03  0.00000000000E+00 0. -1.
         21   -1    0    0  506  502 -0.00000000000E+00 -0.00000000000E+00 -0.43788864319E+03  0.43788864319E+03  0.00000000000E+00 0. -1.
         21    1    1    2  503  501 -0.83318592700E+02 -0.34905039836E+02  0.75972303477E+02  0.11803448899E+03  0.00000000000E+00 0. -1.
         21    1    1    2  504  503  0.10788438380E+02  0.12825317590E+03  0.31343965956E+02  0.13246777621E+03  0.00000000000E+00 0. -1.
         21    1    1    2  505  502  0.60310970418E+02 -0.38147222300E+02 -0.26896150156E+03  0.27826770032E+03  0.00000000000E+00 0. -1.
         21    1    1    2  506  504  0.12219183902E+02 -0.55200913763E+02 -0.84058867746E+02  0.10130322099E+03  0.00000000000E+00 0.  1.
<scales pt_clust_3="91.01064" pt_clust_4="104.25774" pt_clust_5="14000.00000" pt_clust_6="56.53715"></scales>
<clustering>
<clus scale="   56.537">  2  6  1 -1</clus>
<clus scale="   91.011">  1  3  2 -1</clus>
<clus scale="  104.258">  1  4  2 -1</clus>
<clus scale="   91.011">  1  3  2 -1</clus>
</clustering>
</event>
<event>
 6    0  0.2036847E+002  0.1654943E+03  0.7546771E-02  0.1182630E+00
         21   -1    0    0  506  501  0.00000000000E+00  0.00000000000E+00  0.12131406812E+04  0.12131406812E+04  0.00000000000E+00 0. -1.
         21   -1    0    0  505  502 -0.00000000000E+00 -0.00000000000E+00 -0.80683890581E+02  0.80683890581E+02  0.00000000000E+00 0.  1.
         21    1    1    2  503  502 -0.27000223485E+02  0.66762661844E+02 -0.16362905978E+02  0.73851267943E+02  0.00000000000E+00 0.  1.
         21    1    1    2  504  503 -0.23493895756E+02 -0.10467130868E+03  0.63116913407E+03  0.64022068211E+03  0.00000000000E+00 0.  1.
         21    1    1    2  505  501  0.28234576559E+02  0.10577119469E+03  0.78199742867E+02  0.13453600530E+03  0.00000000000E+00 0.  1.
         21    1    1    2  506  504  0.22259542682E+02 -0.67862547849E+02  0.43945081971E+03  0.44521661648E+03  0.00000000000E+00 0. -1.
<scales pt_clust_3="72.01573" pt_clust_4="38.07565" pt_clust_5="158.77903" pt_clust_6="38.07565"></scales>
<clustering>
<clus scale="   38.076">  4  6 -1 -1</clus>
<clus scale="   72.016">  2  3  1 -1</clus>
<clus scale="  158.779">  2  5  1 -1</clus>
<clus scale="  165.494">  1  3  2 -1</clus>
</clustering>
</event>
<event>
 6    0  0.2036847E+002  0.1432033E+03  0.7546771E-02  0.1209083E+00
         21   -1    0    0  503  501  0.00000000000E+00  0.00000000000E+00  0.54766311709E+03  0.54766311709E+03  0.00000000000E+00 0. -1.
         21   -1    0    0  505  502 -0.00000000000E+00 -0.00000000000E+00 -0.29118629048E+03  0.29118629048E+03  0.00000000000E+00 0. -1.
         21    1    1    2  503  502 -0.41353928639E+02  0.55766181676E+02 -0.20414831928E+03  0.21563058850E+03  0.00000000000E+00 0. -1.
         21    1    1    2  504  501  0.31095134624E+02 -0.94837836253E+02  0.27855254878E+03  0.29589296209E+03  0.00000000000E+00 0. -1.
         21    1    1    2  505  506  0.20291910050E+02  0.84661406057E+02 -0.43255682172E+02  0.97213010082E+02  0.00000000000E+00 0. -1.
         21    1    1    2  506  504 -0.10033116035E+02 -0.45589751480E+02  0.22532827929E+03  0.23011284690E+03  0.00000000000E+00 0. -1.
<scales pt_clust_3="69.42632" pt_clust_4="35.02406" pt_clust_5="133.73288" pt_clust_6="35.02406"></scales>
<clustering>
<clus scale="   35.024">  4  6 -1 -1</clus>
<clus scale="   69.426">  2  3  1 -1</clus>
<clus scale="  133.733">  2  5  1 -1</clus>
<clus scale="  143.203">  1  3  2 -1</clus>
</clustering>
</event>
<event>
 6    0  0.2036847E+002  0.7495333E+02  0.7546771E-02  0.1344016E+00
         21   -1    0    0  504  501  0.00000000000E+00  0.00000000000E+00  0.29756001012E+03  0.29756001012E+03  0.00000000000E+00 0. -1.
         21   -1    0    0  506  502 -0.00000000000E+00 -0.00000000000E+00 -0.17188580806E+04  0.17188580806E+04  0.00000000000E+00 0. -1.
         21    1    1    2  503  501  0.64503229444E+01 -0.43394527937E+02  0.25946997193E+03  0.26315272762E+03  0.00000000000E+00 0. -1.
         21    1    1    2  504  502  0.70602637090E+02 -0.34210904623E+02 -0.86584168212E+03  0.86938882950E+03  0.00000000000E+00 0. -1.
         21    1    1    2  505  503 -0.45918730559E+02  0.14040398055E+01  0.16178068585E+02  0.48705554581E+02  0.00000000000E+00 0.  1.
         21    1    1    2  506  505 -0.31134229476E+02  0.76201392755E+02 -0.83110442883E+03  0.83517097898E+03  0.00000000000E+00 0. -1.
<scales pt_clust_3="43.87131" pt_clust_4="14000.00000" pt_clust_5="54.89016" pt_clust_6="74.95333"></scales>
<clustering>
<clus scale="   43.871">  1  3  2 -1</clus>
<clus scale="   54.890">  1  5  2 -1</clus>
<clus scale="   74.953">  1  6  2 -1</clus>
<clus scale="   43.871">  1  3  2 -1</clus>
</clustering>
</event>
<event>
 6    0  0.2036847E+002  0.9045869E+02  0.7546771E-02  0.1301745E+00
         21   -1    0    0  502  501  0.00000000000E+00  0.00000000000E+00  0.32328112297E+03  0.32328112297E+03  0.00000000000E+00 0.  1.
         21   -1    0    0  506  502 -0.00000000000E+00 -0.00000000000E+00 -0.74898496163E+03  0.74898496163E+03  0.00000000000E+00 0. -1.
         21    1    1    2  503  504 -0.70992119976E+02  0.16860564545E+02  0.17591965671E+03  0.19045179273E+03  0.00000000000E+00 0.  1.
         21    1    1    2  504  501 -0.21746772006E+02 -0.32420681436E+02  0.10475329897E+03  0.11179121756E+03  0.00000000000E+00 0.  1.
         21    1    1    2  505  503  0.85214816770E+02  0.72152158293E+02 -0.71508869297E+02  0.13259342869E+03  0.00000000000E+00 0. -1.
         21    1    1    2  506  505  0.75240752119E+01 -0.56592041402E+02 -0.63486792506E+03  0.63742964563E+03  0.00000000000E+00 0. -1.
<scales pt_clust_3="14000.00000" pt_clust_4="39.03873" pt_clust_5="90.45869" pt_clust_6="57.26461"></scales>
<clustering>
<clus scale="   39.039">  1  4  2 -1</clus>
<clus scale="   57.265">  2  6  1 -1</clus>
<clus scale="   90.459">  2  5  1 -1</clus>
<clus scale="   39.039">  1  3  2 -1</clus>
</clustering>
</event>
<event>
 6    0  0.2036847E+002  0.1619569E+03  0.7546771E-02  0.1186505E+00
         21   -1    0    0  506  501  0.00000000000E+00  0.00000000000E+00  0.21209082931E+03  0.21209082931E+03  0.00000000000E+00 0.  1.
         21   -1    0    0  504  502 -0.00000000000E+00 -0.00000000000E+00 -0.22455083588E+03  0.22455083588E+03  0.00000000000E+00 0.  1.
         21    1    1    2  503  502  0.20297374151E+02  0.63365584160E+02 -0.13436595434E+02  0.67880208825E+02  0.00000000000E+00 0.  1.
         21    1    1    2  504  505  0.11918866272E+02 -0.40025974813E+02 -0.29029952200E+02  0.50861342468E+02  0.00000000000E+00 0. -1.
         21    1    1    2  505  501  0.34612962253E+01 -0.14126531308E+03  0.10284848294E+03  0.17477322362E+03  0.00000000000E+00 0.  1.
         21    1    1    2  506  503 -0.35677536649E+02  0.11792570374E+03 -0.72841941873E+02  0.14312689027E+03  0.00000000000E+00 0.  1.
<scales pt_clust_3="48.80917" pt_clust_4="41.76288" pt_clust_5="149.17479" pt_clust_6="48.80917"></scales>
<clustering>
<clus scale="   41.763">  2  4  1 -1</clus>
<clus scale="   48.809">  3  6 -1 -1</clus>
<clus scale="  149.175">  1  5  2 -1</clus>
<clus scale="  149.175">  1  3  2 -1</clus>
</clustering>
</event>
<event>
 6    0  0.2036847E+002  0.1068394E+03  0.7546771E-02  0.1266537E+00
         21   -1    0    0  506  501  0.00000000000E+00  0.00000000000E+00  0.48580600384E+03  0.48580600384E+03  0.00000000000E+00 0. -1.
         21   -1    0    0  503  502 -0.00000000000E+00 -0.00000000000E+00 -0.94977884538E+02  0.94977884538E+02  0.00000000000E+00 0.  1.
         21    1    1    2  503  505  0.15092060435E+00  0.40023972590E+02 -0.19761860951E+02  0.44637118043E+02  0.00000000000E+00 0.  1.
         21    1    1    2  504  501  0.22475911316E+02 -0.22866382784E+02  0.45127453589E+02  0.55358153135E+02  0.00000000000E+00 0. -1.
         21    1    1    2  505  504  0.99283453801E+02  0.10811780572E+01  0.45360501743E+01  0.99392901637E+02  0.00000000000E+00 0.  1.
         21    1    1    2  506  502 -0.12191028572E+03 -0.18238767863E+02  0.36092647649E+03  0.38139571557E+03  0.00000000000E+00 0. -1.
<scales pt_clust_3="39.37900" pt_clust_4="32.06303" pt_clust_5="14000.00000" pt_clust_6="106.83944"></scales>
<clustering>
<clus scale="   32.063">  1  4  2 -1</clus>
<clus scale="   39.379">  2  3  1 -1</clus>
<clus scale="  106.839">  1  6  2 -1</clus>
<clus scale="   32.063">  1  3  2 -1</clus>
</clustering>
</event>
<event>
 6    0  0.2036847E+002  0.3332061E+03  0.7546771E-02  0.1069727E+00
         21   -1    0    0  502  501  0.00000000000E+00  0.00000000000E+00  0.36999516870E+03  0.36999516870E+03  0.00000000000E+00 0.  1.
         21   -1    0    0  506  502 -0.00000000000E+00 -0.00000000000E+00 -0.10189932397E+04  0.10189932397E+04  0.00000000000E+00 0.  1.
         21    1    1    2  503  505  0.28431820778E+02  0.39523464299E+02  0.47993828956E+02  0.68365782968E+02  0.00000000000E+00 0.  1.
         21    1    1    2  504  503 -0.26185254327E+03 -0.64675767011E+02 -0.63115608017E+03  0.68637286280E+03  0.00000000000E+00 0.  1.
         21    1    1    2  505  501  0.27985592614E+03  0.19805595566E+02  0.21254264090E+03  0.35197439568E+03  0.00000000000E+00 0.  1.
         21    1    1    2  506  504 -0.46435203648E+02  0.53467071459E+01 -0.27837846072E+03  0.28227536699E+03  0.00000000000E+00 0.  1.
<scales pt_clust_3="42.16599" pt_clust_4="46.47749" pt_clust_5="329.85848" pt_clust_6="46.47749"></scales>
<clustering>
<clus scale="   42.166">  3  5 -1 -1</clus>
<clus scale="   46.477">  4  6 -1 -1</clus>
<clus scale="  329.858">  1  3  2 -1</clus>
<clus scale="  329.858">  1  3  2 -1</clus>
</clustering>
</event>
<event>
 6    0  0.2036847E+002  0.1766254E+03  0.7546771E-02  0.1171110E+00
         21   -1    0    0  506  501  0.00000000000E+00  0.00000000000E+00  0.25591667139E+03  0.25591667139E+03  0.00000000000E+00 0. -1.
         21   -1    0    0  501  502 -0.00000000000E+00 -0.00000000000E+00 -0.44712951398E+03  0.44712951398E+03  0.00000000000E+00 0. -1.
         21    1    1    2  503  505 -0.15521932944E+02 -0.81697332736E+02  0.61803526446E+02  0.10361013686E+03  0.00000000000E+00 0. -1.
         21    1    1    2  504  502  0.23349063040E+02  0.31330596001E+02 -0.25839100736E+02  0.46844894252E+02  0.00000000000E+00 0. -1.
         21    1    1    2  505  504  0.16307247232E+02  0.13787778819E+03 -0.36332832513E+03  0.38895203127E+03  0.00000000000E+00 0. -1.
         21    1    1    2  506  503 -0.24134377328E+02 -0.87511051458E+02  0.13615105684E+03  0.16363912299E+03  0.00000000000E+00 0. -1.
<scales pt_clust_3="42.96888" pt_clust_4="39.07410" pt_clust_5="170.77613" pt_clust_6="42.96888"></scales>
<clustering>
<clus scale="   39.074">  2  4  1 -1</clus>
<clus scale="   42.969">  3  6 -1 -1</clus>
<clus scale="  170.776">  2  5  1 -1</clus>
<clus scale="  176.625">  1  3  2 -1</clus>
</clustering>
</event>
<event>
 6    0  0.2036847E+002  0.1428224E+03  0.7546771E-02  0.1209581E+00
         21   -1    0    0  503  501  0.00000000000E+00  0.00000000000E+00  0.26803025172E+03  0.26803025172E+03  0.00000000000E+00 0.  1.
         21   -1    0    0  501  502 -0.00000000000E+00 -0.00000000000E+00 -0.16789619393E+03  0.16789619393E+03  0.00000000000E+00 0.  1.
         21    1    1    2  503  504 -0.57332698395E+02 -0.16118693868E+02  0.13311225788E+03  0.14582771957E+03  0.00000000000E+00 0.  1.
         21    1    1    2  504  506 -0.80197258053E+02 -0.48559490050E+02  0.50225733315E+02  0.10635905490E+03  0.00000000000E+00 0.  1.
         21    1    1    2  505  502  0.51140403274E+02  0.32300919792E+02 -0.66656625578E+02  0.90009977224E+02  0.00000000000E+00 0.  1.
         21    1    1    2  506  505  0.86389553174E+02  0.32377264126E+02 -0.16547307833E+02  0.93729693942E+02  0.00000000000E+00 0.  1.
<scales pt_clust_3="59.55544" pt_clust_4="129.06824" pt_clust_5="49.51584" pt_clust_6="49.51584"></scales>
<clustering>
<clus scale="   49.516">  5  6 -1 -1</clus>
<clus scale="   59.555">  1  3  2 -1</clus>
<clus scale="  129.068">  1  4  2 -1</clus>
<clus scale="   59.555">  1  3  2 -1</clus>
</clustering>
</event>
<event>
 6    0  0.2036847E+002  0.8856740E+02  0.7546771E-02  0.1306359E+00
         21   -1    0    0  504  501  0.00000000000E+00  0.00000000000E+00  0.22187351299E+03  0.22187351299E+03  0.00000000000E+00 0.  1.
         21   -1    0    0  506  502 -0.00000000000E+00 -0.00000000000E+00 -0.60679085919E+03  0.60679085919E+03  0.00000000000E+00 0.  1.
         21    1    1    2  503  502 -0.59559085096E+02 -0.71119860182E+02 -0.35696902192E+03  0.36882543532E+03  0.00000000000E+00 0.  1.
         21    1    1    2  504  503  0.12202100244E+03  0.91956478450E+01  0.15966241764E+03  0.20116106130E+03  0.00000000000E+00 0.  1.
         21    1    1    2  505  501 -0.46932800771E+02  0.36247386781E+02  0.88335508098E+01  0.59954920203E+02  0.00000000000E+00 0.  1.
         21    1    1    2  506  505 -0.15529116577E+02  0.25676825556E+02 -0.19644429274E+03  0.19872295535E+03  0.00000000000E+00 0.  1.
<scales pt_clust_3="14000.00000" pt_clust_4="88.56740" pt_clust_5="61.05241" pt_clust_6="30.00755"></scales>
<clustering>
<clus scale="   30.008">  2  6  1 -1</clus>
<clus scale="   61.052">  1  5  2 -1</clus>
<clus scale="   88.567">  1  4  2 -1</clus>
<clus scale="   61.052">  1  3  2 -1</clus>
</clustering>
</event>
<event>
 6    0  0.2036847E+002  0.1955416E+03  0.7546771E-02  0.1153556E+00
         21   -1    0    0  502  501  0.00000000000E+00  0.00000000000E+00  0.76564457441E+02  0.76564457441E+02  0.00000000000E+00 0. -1.
         21   -1    0    0  506  502 -0.00000000000E+00 -0.00000000000E+00 -0.55185627116E+03  0.55185627116E+03  0.00000000000E+00 0. -1.
         21    1    1    2  503  505 -0.29579585140E+02  0.64483649666E+02 -0.84869476459E+02  0.11061609723E+03  0.00000000000E+00 0. -1.
         21    1    1    2  504  501  0.45428717858E+02 -0.15170371549E+02 -0.13712361679E+02  0.49819046980E+02  0.00000000000E+00 0. -1.
         21    1    1    2  505  504  0.81727791518E+02 -0.11721107899E+03 -0.12595448746E+03  0.19047940009E+03  0.00000000000E+00 0. -1.
         21    1    1    2  506  503 -0.97576924236E+02  0.67897800877E+02 -0.25075548812E+03  0.27750618431E+03  0.00000000000E+00 0. -1.
<scales pt_clust_3="50.66471" pt_clust_4="39.02182" pt_clust_5="39.02182" pt_clust_6="194.92252"></scales>
<clustering>
<clus scale="   39.022">  4  5 -1 -1</clus>
<clus scale="   50.665">  3  6 -1 -1</clus>
<clus scale="  194.923">  2  3  1 -1</clus>
<clus scale="  195.542">  1  3  2 -1</clus>
</clustering>
</event>
<event>
 6    0  0.2036847E+002  0.1563791E+03  0.7546771E-02  0.1192846E+00
         21   -1    0    0  505  501  0.00000000000E+00  0.00000000000E+00  0.35175119982E+03  0.35175119982E+03  0.00000000000E+00 0.  1.
         21   -1    0    0  504  502 -0.00000000000E+00 -0.00000000000E+00 -0.20398876951E+03  0.20398876951E+03  0.00000000000E+00 0.  1.
         21    1    1    2  503  506 -0.24599047524E+02 -0.97320591068E+02 -0.10673765860E+03  0.14652419032E+03  0.00000000000E+00 0.  1.
         21    1    1    2  504  501 -0.38576228608E+02  0.12629356667E+03  0.25344429655E+03  0.28578348771E+03  0.00000000000E+00 0.  1.
         21    1    1    2  505  503  0.33220841225E+02  0.18728492345E+02  0.39757416817E+02  0.55091132763E+02  0.00000000000E+00 0.  1.
         21    1    1    2  506  502  0.29954434907E+02 -0.47701467947E+02 -0.38701624453E+02  0.68341158537E+02  0.00000000000E+00 0.  1.
<scales pt_clust_3="47.56033" pt_clust_4="143.17813" pt_clust_5="38.13634" pt_clust_6="47.56033"></scales>
<clustering>
<clus scale="   38.136">  1  5  2 -1</clus>
<clus scale="   47.560">  3  6 -1 -1</clus>
<clus scale="  143.178">  1  4  2 -1</clus>
<clus scale="   38.136">  1  3  2 -1</clus>
</clustering>
</event>
<event>
 6    0  0.2036847E+002  0.1657419E+03  0.7546771E-02  0.1182363E+00
         21   -1    0    0  502  501  0.00000000000E+00  0.00000000000E+00  0.25097771178E+03  0.25097771178E+03  0.00000000000E+00 0. -1.
         21   -1    0    0  506  502 -0.00000000000E+00 -0.00000000000E+00 -0.23663842378E+03  0.23663842378E+03  0.00000000000E+00 0. -1.
         21    1    1    2  503  504 -0.14208103136E+03 -0.14426313049E+03 -0.63850499438E+02  0.21231051921E+03  0.00000000000E+00 0. -1.
         21    1    1    2  504  501  0.10573266747E+03  0.11250297531E+03  0.96817483833E+02  0.18223595035E+03  0.00000000000E+00 0. -1.
         21    1    1    2  505  503  0.11336951865E+02  0.55403911900E+02 -0.14678589650E+02  0.58425858363E+02  0.00000000000E+00 0. -1.
         21    1    1    2  506  505  0.25011412021E+02 -0.23643756720E+02 -0.39491067462E+01  0.34643807632E+02  0.00000000000E+00 0.  1.
<scales pt_clust_3="14000.00000" pt_clust_4="165.74186" pt_clust_5="53.72511" pt_clust_6="34.41799"></scales>
<clustering>
<clus scale="   34.418">  2  6  1 -1</clus>
<clus scale="   53.725">  2  5  1 -1</clus>
<clus scale="  165.742">  1  4  2 -1</clus>
<clus scale="  165.742">  1  3  2 -1</clus>
</clustering>
</event>
<event>
 6    0  0.2036847E+002  0.1062788E+03  0.7546771E-02  0.1267620E+00
         21   -1    0    0  503  501  0.00000000000E+00  0.00000000000E+00  0.20668744716E+03  0.20668744716E+03  0.00000000000E+00 0.  1.
         21   -1    0    0  501  502 -0.00000000000E+00 -0.00000000000E+00 -0.16011611853E+03  0.16011611853E+03  0.00000000000E+00 0.  1.
         21    1    1    2  503  505  0.82971097738E+02  0.16896491185E+02  0.10526601221E+03  0.13509488443E+03  0.00000000000E+00 0.  1.
         21    1    1    2  504  502 -0.47691454059E+02  0.35267407860E+02 -0.94010873457E+02  0.11115893655E+03  0.00000000000E+00 0.  1.
         21    1    1    2  505  506  0.32238758075E+02 -0.18598210449E+02  0.24045662469E+02  0.44310549959E+02  0.00000000000E+00 0. -1.
         21    1    1    2  506  504 -0.67518401754E+02 -0.33565688596E+02  0.11270527410E+02  0.76239194739E+02  0.00000000000E+00 0.  1.
<scales pt_clust_3="31.01616" pt_clust_4="59.31496" pt_clust_5="31.01616" pt_clust_6="95.42846"></scales>
<clustering>
<clus scale="   31.016">  3  5 -1 -1</clus>
<clus scale="   59.315">  2  4  1 -1</clus>
<clus scale="   95.428">  2  6  1 -1</clus>
<clus scale="  106.279">  1  3  2 -1</clus>
</clustering>
</event>
<event>
 6    0  0.2036847E+002  0.1938498E+03  0.7546771E-02  0.1155034E+00
         21   -1    0    0  506  501  0.00000000000E+00  0.00000000000E+00  0.26523683193E+04  0.26523683193E+04  0.00000000000E+00 0.  1.
         21   -1    0    0  505  502 -0.00000000000E+00 -0.00000000000E+00 -0.10627743988E+04  0.10627743988E+04  0.00000000000E+00 0. -1.
         21    1    1    2  503  502 -0.98800334336E+02  0.11234362570E+03 -0.10052948160E+04  0.10163662054E+04  0.00000000000E+00 0. -1.
         21    1    1    2  504  501  0.82799843646E+02 -0.12281531881E+03  0.14818300098E+04  0.14892144220E+04  0.00000000000E+00 0.  1.
         21    1    1    2  505  504 -0.44847788265E+02  0.19246373198E+02 -0.34874926779E+02  0.59983393630E+02  0.00000000000E+00 0.  1.
         21    1    1    2  506  503  0.60848278955E+02 -0.87746800886E+01  0.11479336535E+04  0.11495786971E+04  0.00000000000E+00 0.  1.
<scales pt_clust_3="193.84979" pt_clust_4="14000.00000" pt_clust_5="48.80315" pt_clust_6="61.43952"></scales>
<clustering>
<clus scale="   48.803">  2  5  1 -1</clus>
<clus scale="   61.440">  1  6  2 -1</clus>
<clus scale="  193.850">  2  3  1 -1</clus>
<clus scale="   61.440">  1  3  2 -1</clus>
</clustering>
</event>
<event>
 6    0  0.2036847E+002  0.1284759E+03  0.7546771E-02  0.1229735E+00
         21   -1    0    0  506  501  0.00000000000E+00  0.00000000000E+00  0.20387721789E+03  0.20387721789E+03  0.00000000000E+00 0.  1.
         21   -1    0    0  505  502 -0.00000000000E+00 -0.00000000000E+00 -0.28677466539E+03  0.28677466539E+03  0.00000000000E+00 0. -1.
         21    1    1    2  503  501  0.18371957793E+01  0.79754047993E+02 -0.21882481128E+03  0.23291281950E+03  0.00000000000E+00 0. -1.
         21    1    1    2  504  502 -0.75466586217E+01 -0.37844361294E+02  0.18009771542E+02  0.42585204110E+02  0.00000000000E+00 0.  1.
         21    1    1    2  505  503  0.23965055051E+02  0.40937313294E+02 -0.21399738125E+02  0.52039756678E+02  0.00000000000E+00 0.  1.
         21    1    1    2  506  504 -0.18255592209E+02 -0.82846999993E+02  0.13931733036E+03  0.16311410299E+03  0.00000000000E+00 0.  1.
<scales pt_clust_3="119.07064" pt_clust_4="32.54325" pt_clust_5="47.43614" pt_clust_6="32.54325"></scales>
<clustering>
<clus scale="   32.543">  4  6 -1 -1</clus>
<clus scale="   47.436">  2  5  1 -1</clus>
<clus scale="  119.071">  2  3  1 -1</clus>
<clus scale="  128.476">  1  3  2 -1</clus>
</clustering>
</event>
<event>
 6    0  0.2036847E+002  0.1183833E+03  0.7546771E-02  0.1245788E+00
         21   -1    0    0  503  501  0.00000000000E+00  0.00000000000E+00  0.23332796768E+03  0.23332796768E+03  0.00000000000E+00 0. -1.
         21   -1    0    0  505  502 -0.00000000000E+00 -0.00000000000E+00 -0.59693816583E+03  0.59693816583E+03  0.00000000000E+00 0. -1.
         21    1    1    2  503  504 -0.20366831730E+02  0.59283781880E+02  0.14611331360E+03  0.15899205967E+03  0.00000000000E+00 0. -1.
         21    1    1    2  504  502 -0.51845986277E+02 -0.25169880449E+02 -0.39219551253E+02  0.69711565578E+02  0.00000000000E+00 0. -1.
         21    1    1    2  505  506  0.98420460793E+02 -0.10352103716E+03 -0.50128611698E+03  0.52123983282E+03  0.00000000000E+00 0. -1.
         21    1    1    2  506  501 -0.26207642785E+02  0.69407135733E+02  0.30782156483E+02  0.80322675433E+02  0.00000000000E+00 0.  1.
<scales pt_clust_3="62.60580" pt_clust_4="57.63271" pt_clust_5="118.38334" pt_clust_6="14000.00000"></scales>
<clustering>
<clus scale="   57.633">  2  4  1 -1</clus>
<clus scale="   62.606">  1  3  2 -1</clus>
<clus scale="  118.383">  2  5  1 -1</clus>
<clus scale="   62.606">  1  3  2 -1</clus>
</clustering>
</event>
<event>
 6    0  0.2036847E+002  0.1644095E+03  0.7546771E-02  0.1183806E+00
         21   -1    0    0  504  501  0.00000000000E+00  0.00000000000E+00  0.14591194710E+04  0.14591194710E+04  0.00000000000E+00 0.  1.
         21   -1    0    0  505  502 -0.00000000000E+00 -0.00000000000E+00 -0.16965770138E+03  0.16965770138E+03  0.00000000000E+00 0.  1.
         21    1    1    2  503  502  0.12035928068E+03  0.22285266462E+02 -0.10826009779E+03  0.16341125519E+03  0.00000000000E+00 0.  1.
         21    1    1    2  504  503 -0.75223256631E+02  0.25019729278E+02  0.52323701907E+03  0.52920837419E+03  0.00000000000E+00 0.  1.
         21    1    1    2  505  506  0.41689365522E+02  0.36679068233E+02  0.22245683212E+01  0.55572528720E+02  0.00000000000E+00 0.  1.
         21    1    1    2  506  501 -0.86825389574E+02 -0.83984063974E+02  0.87226028003E+03  0.88058501429E+03  0.00000000000E+00 0.  1.
<scales pt_clust_3="14000.00000" pt_clust_4="78.69706" pt_clust_5="55.52799" pt_clust_6="164.40952"></scales>
<clustering>
<clus scale="   55.528">  2  5  1 -1</clus>
<clus scale="   78.697">  1  4  2 -1</clus>
<clus scale="  164.410">  1  6  2 -1</clus>
<clus scale="   78.697">  1  3  2 -1</clus>
</clustering>
</event>
<event>
 6    0  0.2237811E+002  0.1453778E+03  0.7546771E-02  0.1206271E+00
         21   -1    0    0  504  501  0.00000000000E+00  0.00000000000E+00  0.64263837071E+03  0.64263837071E+03  0.00000000000E+00 0. -1.
         21   -1    0    0  506  502 -0.00000000000E+00 -0.00000000000E+00 -0.86941852385E+03  0.86941852385E+03  0.00000000000E+00 0.  1.
         21    1    1    2  503  502 -0.56407384416E+02 -0.77424663482E+02 -0.80640457132E+03  0.81207432183E+03  0.00000000000E+00 0.  1.
         21    1    1    2  504  505  0.60697761723E+02  0.63439589939E+02  0.44342311545E+03  0.45203192273E+03  0.00000000000E+00 0. -1.
         21    1    1    2  505  503  0.11506000251E+02  0.53712813353E+02  0.17913066154E+03  0.18736394600E+03  0.00000000000E+00 0. -1.
         21    1    1    2  506  501 -0.15796377558E+02 -0.39727739811E+02 -0.42929358803E+02  0.60586704001E+02  0.00000000000E+00 0. -1.
<scales pt_clust_3="137.18201" pt_clust_4="38.06399" pt_clust_5="38.06399" pt_clust_6="42.75300"></scales>
<clustering>
<clus scale="   38.064">  4  5 -1 -1</clus>
<clus scale="   42.753">  2  6  1 -1</clus>
<clus scale="  137.182">  2  3  1 -1</clus>
<clus scale="  145.378">  1  3  2 -1</clus>
</clustering>
</event>
<event>
 6    0  0.2036847E+002  0.3778283E+03  0.7546771E-02  0.1051739E+00
         21   -1    0    0  503  501  0.00000000000E+00  0.00000000000E+00  0.52837312457E+03  0.52837312457E+03  0.00000000000E+00 0.  1.
         21   -1    0    0  506  502 -0.00000000000E+00 -0.00000000000E+00 -0.25036888848E+04  0.25036888848E+04  0.00000000000E+00 0. -1.
         21    1    1    2  503  504  0.15686382038E+03 -0.23066183892E+02  0.16250384908E+03  0.22703701890E+03  0.00000000000E+00 0. -1.
         21    1    1    2  504  502  0.19697322436E+03  0.14813541451E+02  0.28840120185E+03  0.34956136136E+03  0.00000000000E+00 0.  1.
         21    1    1    2  505  501 -0.92048642223E+02  0.45210641166E+02 -0.44402946177E+03  0.45571824358E+03  0.00000000000E+00 0.  1.
         21    1    1    2  506  505 -0.26178840251E+03 -0.36957998724E+02 -0.19821913494E+04  0.19997453855E+04  0.00000000000E+00 0. -1.
<scales pt_clust_3="55.81766" pt_clust_4="359.37491" pt_clust_5="82.35559" pt_clust_6="82.35559"></scales>
<clustering>
<clus scale="   55.818">  3  4 -1 -1</clus>
<clus scale="   82.356">  5  6 -1 -1</clus>
<clus scale="  359.375">  1  3  2 -1</clus>
<clus scale="  359.375">  1  3  2 -1</clus>
</clustering>
</event>
<event>
 6    0  0.2036847E+002  0.1293165E+03  0.7546771E-02  0.1228473E+00
         21   -1    0    0  506  501  0.00000000000E+00  0.00000000000E+00  0.39384462717E+03  0.39384462717E+03  0.00000000000E+00 0. -1.
         21   -1    0    0  505  502 -0.00000000000E+00 -0.00000000000E+00 -0.38066342612E+03  0.38066342612E+03  0.00000000000E+00 0. -1.
         21    1    1    2  503  504 -0.34253651659E+02 -0.38690669294E+02 -0.17637248277E+03  0.18378665137E+03  0.00000000000E+00 0. -1.
         21    1    1    2  504  501  0.40435556569E+02  0.64854125419E+02  0.28752498821E+03  0.29750917744E+03  0.00000000000E+00 0. -1.
         21    1    1    2  505  503 -0.22117425155E+01 -0.77298999985E+02 -0.18031713751E+03  0.19619963629E+03  0.00000000000E+00 0. -1.
         21    1    1    2  506  502 -0.39701623944E+01  0.51135543859E+02  0.82345833123E+02  0.97012588194E+02  0.00000000000E+00 0.  1.
<scales pt_clust_3="39.86936" pt_clust_4="119.76641" pt_clust_5="39.86936" pt_clust_6="51.28943"></scales>
<clustering>
<clus scale="   39.869">  3  5 -1 -1</clus>
<clus scale="   51.289">  1  6  2 -1</clus>
<clus scale="  119.766">  1  4  2 -1</clus>
<clus scale="   51.289">  1  3  2 -1</clus>
</clustering>
</event>
<event>
 6    0  0.2036847E+002  0.1563678E+03  0.7546771E-02  0.1192860E+00
         21   -1    0    0  506  501  0.00000000000E+00  0.00000000000E+00  0.28888356969E+03  0.28888356969E+03  0.00000000000E+00 0.  1.
         21   -1    0    0  503  502 -0.00000000000E+00 -0.00000000000E+00 -0.28679976130E+04  0.28679976130E+04  0.00000000000E+00 0.  1.
         21    1    1    2  503  501 -0.29689633648E+02  0.16775279890E+02 -0.24658733140E+02  0.42082508025E+02  0.00000000000E+00 0. -1.
         21    1    1    2  504  502 -0.63295711746E+02  0.48060400685E+02 -0.15431173183E+04  0.15451625181E+04  0.00000000000E+00 0. -1.
         21    1    1    2  505  504 -0.30846690612E+02  0.69629466870E+02 -0.12592869017E+04  0.12615876037E+04  0.00000000000E+00 0.  1.
         21    1    1    2  506  505  0.12383203601E+03 -0.13446514745E+03  0.24794890987E+03  0.30804855287E+03  0.00000000000E+00 0.  1.
<scales pt_clust_3="34.10109" pt_clust_4="39.91971" pt_clust_5="39.91971" pt_clust_6="150.95611"></scales>
<clustering>
<clus scale="   34.101">  1  3  2 -1</clus>
<clus scale="   39.920">  4  5 -1 -1</clus>
<clus scale="  150.956">  1  6  2 -1</clus>
<clus scale="   34.101">  1  3  2 -1</clus>
</clustering>
</event>
<event>
 6    0  0.2036847E+002  0.1543121E+03  0.7546771E-02  0.1195272E+00
         21   -1    0    0  503  501  0.00000000000E+00  0.00000000000E+00  0.40971588592E+02  0.40971588592E+02  0.00000000000E+00 0.  1.
         21   -1    0    0  505  502 -0.00000000000E+00 -0.00000000000E+00 -0.64253499026E+03  0.64253499026E+03  0.00000000000E+00 0.  1.
         21    1    1    2  503  504  0.31688261502E+02 -0.77978283172E+02 -0.22297118475E+03  0.23832941026E+03  0.00000000000E+00 0.  1.
         21    1    1    2  504  502 -0.11964166781E+02 -0.64780501133E+02 -0.19232062952E+03  0.20329013540E+03  0.00000000000E+00 0.  1.
         21    1    1    2  505  506 -0.69613629247E+01  0.42040509804E+02 -0.20004682607E+02  0.47074965369E+02  0.00000000000E+00 0.  1.
         21    1    1    2  506  501 -0.12762731796E+02  0.10071827450E+03 -0.16626690479E+03  0.19481206783E+03  0.00000000000E+00 0.  1.
<scales pt_clust_3="150.20164" pt_clust_4="37.44393" pt_clust_5="35.73937" pt_clust_6="35.73937"></scales>
<clustering>
<clus scale="   35.739">  5  6 -1 -1</clus>
<clus scale="   37.444">  3  4 -1 -1</clus>
<clus scale="  150.202">  2  3  1 -1</clus>
<clus scale="  154.312">  1  3  2 -1</clus>
</clustering>
</event>
<event>
 6    0  0.2036847E+002  0.1878043E+03  0.7546771E-02  0.1160457E+00
         21   -1    0    0  506  501  0.00000000000E+00  0.00000000000E+00  0.49044170819E+03  0.49044170819E+03  0.00000000000E+00 0. -1.
         21   -1    0    0  504  502 -0.00000000000E+00 -0.00000000000E+00 -0.53876164634E+03  0.53876164634E+03  0.00000000000E+00 0.  1.
         21    1    1    2  503  501 -0.25951550572E+02 -0.42623426985E+02  0.42137674393E+02  0.65313269006E+02  0.00000000000E+00 0.  1.
         21    1    1    2  504  503  0.48045867960E+02 -0.14309834817E+02 -0.23890187692E+03  0.24410506671E+03  0.00000000000E+00 0.  1.
         21    1    1    2  505  502  0.14643642015E+03  0.58798432028E+01 -0.24683028262E+03  0.28705989989E+03  0.00000000000E+00 0.  1.
         21    1    1    2  506  505 -0.16853073754E+03  0.51053418598E+02  0.39527454700E+03  0.43272511893E+03  0.00000000000E+00 0. -1.
<scales pt_clust_3="49.90230" pt_clust_4="50.05673" pt_clust_5="187.80434" pt_clust_6="14000.00000"></scales>
<clustering>
<clus scale="   49.902">  1  3  2 -1</clus>
<clus scale="   50.057">  2  4  1 -1</clus>
<clus scale="  187.804">  2  5  1 -1</clus>
<clus scale="   49.902">  1  3  2 -1</clus>
</clustering>
</event>
<event>
 6    0  0.2036847E+002  0.7782947E+02  0.7546771E-02  0.1335326E+00
         21   -1    0    0  506  501  0.00000000000E+00  0.00000000000E+00  0.45259025196E+03  0.45259025196E+03  0.00000000000E+00 0. -1.
         21   -1    0    0  504  502 -0.00000000000E+00 -0.00000000000E+00 -0.40483536366E+02  0.40483536366E+02  0.00000000000E+00 0. -1.
         21    1    1    2  503  501  0.54382380658E+02 -0.46009716580E+02  0.12011229531E+03  0.13964705808E+03  0.00000000000E+00 0. -1.
         21    1    1    2  504  503 -0.25899213252E+02 -0.57506704720E+02  0.12728984467E+03  0.14205806873E+03  0.00000000000E+00 0. -1.
         21    1    1    2  505  502  0.19625422628E+02  0.30028340588E+02  0.17412343904E+02  0.39875408111E+02  0.00000000000E+00 0. -1.
         21    1    1    2  506  505 -0.48108590034E+02  0.73488080712E+02  0.14729223171E+03  0.17149325341E+03  0.00000000000E+00 0. -1.
<scales pt_clust_3="14000.00000" pt_clust_4="54.14210" pt_clust_5="35.87281" pt_clust_6="77.82947"></scales>
<clustering>
<clus scale="   35.873">  2  5  1 -1</clus>
<clus scale="   54.142">  2  4  1 -1</clus>
<clus scale="   77.829">  2  6  1 -1</clus>
<clus scale="   77.829">  1  3  2 -1</clus>
</clustering>
</event>
<event>
 6    0  0.2036847E+002  0.9790674E+02  0.7546771E-02  0.1284760E+00
         21   -1    0    0  506  501  0.00000000000E+00  0.00000000000E+00  0.11707611493E+03  0.11707611493E+03  0.00000000000E+00 0.  1.
         21   -1    0    0  505  502 -0.00000000000E+00 -0.00000000000E+00 -0.27593765210E+03  0.27593765210E+03  0.00000000000E+00 0.  1.
         21    1    1    2  503  504 -0.36012000276E+02 -0.68270970449E+02 -0.16145347278E+03  0.17895533924E+03  0.00000000000E+00 0.  1.
         21    1    1    2  504  502 -0.11865379194E+01  0.44822358112E+02 -0.24408362129E+02  0.51051148868E+02  0.00000000000E+00 0.  1.
         21    1    1    2  505  501  0.64183443765E+02  0.56451581203E+02  0.63822803917E+02  0.10667542254E+03  0.00000000000E+00 0.  1.
         21    1    1    2  506  503 -0.26984905570E+02 -0.33002968866E+02 -0.36822506173E+02  0.56331856382E+02  0.00000000000E+00 0.  1.
<scales pt_clust_3="31.71949" pt_clust_4="44.83806" pt_clust_5="88.11385" pt_clust_6="31.71949"></scales>
<clustering>
<clus scale="   31.719">  3  6 -1 -1</clus>
<clus scale="   44.838">  2  4  1 -1</clus>
<clus scale="   88.114">  1  5  2 -1</clus>
<clus scale="   88.114">  1  3  2 -1</clus>
</clustering>
</event>
<event>
 6    0  0.2036847E+002  0.1687390E+03  0.7546771E-02  0.1179169E+00
         21   -1    0    0  505  501  0.00000000000E+00  0.00000000000E+00  0.27138362463E+03  0.27138362463E+03  0.00000000000E+00 0.  1.
         21   -1    0    0  504  502 -0.00000000000E+00 -0.00000000000E+00 -0.11050520153E+03  0.11050520153E+03  0.00000000000E+00 0.  1.
         21    1    1    2  503  502 -0.10490112437E+03  0.14258760693E+02  0.53499580829E+02  0.11861603307E+03  0.00000000000E+00 0.  1.
         21    1    1    2  504  506  0.44235586599E+02 -0.81512595460E+01  0.37552936323E+02  0.58595675441E+02  0.00000000000E+00 0.  1.
         21    1    1    2  505  503 -0.52644611280E+02 -0.12368059047E+02  0.73361494268E+02  0.91139085043E+02  0.00000000000E+00 0.  1.
         21    1    1    2  506  501  0.11331014905E+03  0.62605579008E+01 -0.35355883241E+01  0.11353803261E+03  0.00000000000E+00 0.  1.
<scales pt_clust_3="167.04334" pt_clust_4="38.02849" pt_clust_5="39.66015" pt_clust_6="38.02849"></scales>
<clustering>
<clus scale="   38.028">  4  6 -1 -1</clus>
<clus scale="   39.660">  3  5 -1 -1</clus>
<clus scale="  167.043">  1  3  2 -1</clus>
<clus scale="  167.043">  1  3  2 -1</clus>
</clustering>
</event>
<event>
 6    0  0.2036847E+002  0.1511916E+03  0.7546771E-02  0.1199016E+00
         21   -1    0    0  505  501  0.00000000000E+00  0.00000000000E+00  0.15979660352E+03  0.15979660352E+03  0.00000000000E+00 0. -1.
         21   -1    0    0  504  502 -0.00000000000E+00 -0.00000000000E+00 -0.22870409432E+03  0.22870409432E+03  0.00000000000E+00 0. -1.
         21    1    1    2  503  502  0.92093121784E+02 -0.89159123866E+02 -0.71230413619E+02  0.14664332331E+03  0.00000000000E+00 0. -1.
         21    1    1    2  504  506 -0.85222981386E+02  0.64269023779E+02 -0.47236736073E+01  0.10684463986E+03  0.00000000000E+00 0. -1.
         21    1    1    2  505  503  0.25096012447E+02 -0.45156881406E+02  0.22720549551E+02  0.56437373707E+02  0.00000000000E+00 0. -1.
         21    1    1    2  506  501 -0.31966152845E+02  0.70046981493E+02 -0.15673953123E+02  0.78575360963E+02  0.00000000000E+00 0. -1.
<scales pt_clust_3="143.76535" pt_clust_4="39.74985" pt_clust_5="51.66192" pt_clust_6="39.74985"></scales>
<clustering>
<clus scale="   39.750">  4  6 -1 -1</clus>
<clus scale="   51.662">  1  5  2 -1</clus>
<clus scale="  143.765">  2  3  1 -1</clus>
<clus scale="   51.662">  1  3  2 -1</clus>
</clustering>
</event>
<event>
 6    0  0.2036847E+002  0.1779135E+03  0.7546771E-02  0.1169838E+00
         21   -1    0    0  505  501  0.00000000000E+00  0.00000000000E+00  0.20846206038E+03  0.20846206038E+03  0.00000000000E+00 0.  1.
         21   -1    0    0  504  502 -0.00000000000E+00 -0.00000000000E+00 -0.19128901138E+04  0.19128901138E+04  0.00000000000E+00 0. -1.
         21    1    1    2  503  506 -0.14744751649E+03 -0.50481754106E+02 -0.36726762016E+03  0.39896701924E+03  0.00000000000E+00 0. -1.
         21    1    1    2  504  501  0.36369599223E+02 -0.42776067240E+01 -0.17200706705E+03  0.17586209593E+03  0.00000000000E+00 0.  1.
         21    1    1    2  505  503  0.15007967476E+03  0.10107875448E+03  0.14690350339E+03  0.23306965202E+03  0.00000000000E+00 0.  1.
         21    1    1    2  506  502 -0.39001757492E+02 -0.46319393653E+02 -0.13120568696E+04  0.13134534070E+04  0.00000000000E+00 0. -1.
<scales pt_clust_3="177.91352" pt_clust_4="36.62029" pt_clust_5="14000.00000" pt_clust_6="50.87606"></scales>
<clustering>
<clus scale="   36.620">  2  4  1 -1</clus>
<clus scale="   50.876">  2  6  1 -1</clus>
<clus scale="  177.914">  2  3  1 -1</clus>
<clus scale="  177.914">  1  3  2 -1</clus>
</clustering>
</event>
<event>
 6    0  0.5449715E+002  0.1759348E+03  0.7546771E-02  0.1171796E+00
         21   -1    0    0  505  501  0.00000000000E+00  0.00000000000E+00  0.98508046633E+03  0.98508046633E+03  0.00000000000E+00 0. -1.
         21   -1    0    0  504  502 -0.00000000000E+00 -0.00000000000E+00 -0.11224250276E+04  0.11224250276E+04  0.00000000000E+00 0.  1.
         21    1    1    2  503  502 -0.29577881816E+02  0.65523734798E+01 -0.41078644989E+01  0.30572197201E+02  0.00000000000E+00 0.  1.
         21    1    1    2  504  506  0.12245778366E+02 -0.49884480682E+02  0.18295813950E+03  0.19003184289E+03  0.00000000000E+00 0. -1.
         21    1    1    2  505  503 -0.21287975087E+02  0.15507142170E+03 -0.10914838154E+04  0.11026501000E+04  0.00000000000E+00 0.  1.
         21    1    1    2  506  501  0.38620078537E+02 -0.11173931450E+03  0.77528897913E+03  0.78425135386E+03  0.00000000000E+00 0. -1.
<scales pt_clust_3="30.29496" pt_clust_4="31.47345" pt_clust_5="169.32937" pt_clust_6="31.47345"></scales>
<clustering>
<clus scale="   30.295">  2  3  1 -1</clus>
<clus scale="   31.473">  4  6 -1 -1</clus>
<clus scale="  169.329">  2  5  1 -1</clus>
<clus scale="  175.935">  1  3  2 -1</clus>
</clustering>
</event>
<event>
 6    0  0.2036847E+002  0.2186543E+03  0.7546771E-02  0.1134890E+00
         21   -1    0    0  504  501  0.00000000000E+00  0.00000000000E+00  0.10870741975E+03  0.10870741975E+03  0.00000000000E+00 0.  1.
         21   -1    0    0  501  502 -0.00000000000E+00 -0.00000000000E+00 -0.14491469356E+04  0.14491469356E+04  0.00000000000E+00 0.  1.
         21    1    1    2  503  506  0.24085621884E+03 -0.70864000811E+01 -0.70882301772E+03  0.74866014029E+03  0.00000000000E+00 0.  1.
         21    1    1    2  504  505 -0.17320700753E+03 -0.93670473270E+02 -0.10149096185E+03  0.22152932166E+03  0.00000000000E+00 0.  1.
         21    1    1    2  505  503  0.81421432648E+02  0.26134050910E+02 -0.20977138215E+03  0.22653139094E+03  0.00000000000E+00 0. -1.
         21    1    1    2  506  502 -0.14907064396E+03  0.74622822441E+02 -0.32035415417E+03  0.36113350248E+03  0.00000000000E+00 0.  1.
<scales pt_clust_3="32.39512" pt_clust_4="211.78416" pt_clust_5="32.39512" pt_clust_6="166.70520"></scales>
<clustering>
<clus scale="   32.395">  3  5 -1 -1</clus>
<clus scale="  166.705">  2  6  1 -1</clus>
<clus scale="  211.784">  1  4  2 -1</clus>
<clus scale="  211.784">  1  3  2 -1</clus>
</clustering>
</event>
<event>
 6    0  0.2036847E+002  0.1051929E+03  0.7546771E-02  0.1269740E+00
         21   -1    0    0  504  501  0.00000000000E+00  0.00000000000E+00  0.14219798519E+03  0.14219798519E+03  0.00000000000E+00 0.  1.
         21   -1    0    0  506  502 -0.00000000000E+00 -0.00000000000E+00 -0.26448360481E+03  0.26448360481E+03  0.00000000000E+00 0. -1.
         21    1    1    2  503  501 -0.55769802855E+02  0.46825133776E+02  0.48312253448E+02  0.87389575448E+02  0.00000000000E+00 0.  1.
         21    1    1    2  504  505  0.32132014267E+02  0.39314835292E+01  0.11549714312E+02  0.34370318653E+02  0.00000000000E+00 0.  1.
         21    1    1    2  505  502  0.79874287796E+02 -0.10145725042E+03 -0.16084786600E+03  0.20626563337E+03  0.00000000000E+00 0. -1.
         21    1    1    2  506  503 -0.56236499208E+02  0.50700633114E+02 -0.21299721382E+02  0.78656062527E+02  0.00000000000E+00 0. -1.
<scales pt_clust_3="61.74358" pt_clust_4="32.37164" pt_clust_5="14000.00000" pt_clust_6="105.19293"></scales>
<clustering>
<clus scale="   32.372">  1  4  2 -1</clus>
<clus scale="   61.744">  1  3  2 -1</clus>
<clus scale="  105.193">  1  6  2 -1</clus>
<clus scale="   32.372">  1  3  2 -1</clus>
</clustering>
</event>
<event>
 6    0  0.2036847E+002  0.1925462E+03  0.7546771E-02  0.1156185E+00
         21   -1    0    0  503  501  0.00000000000E+00  0.00000000000E+00  0.62410108535E+03  0.62410108535E+03  0.00000000000E+00 0.  1.
         21   -1    0    0  506  502 -0.00000000000E+00 -0.00000000000E+00 -0.13463031819E+03  0.13463031819E+03  0.00000000000E+00 0. -1.
         21    1    1    2  503  502 -0.44678329659E+02  0.18272738410E+03  0.41132562469E+03  0.45229881667E+03  0.00000000000E+00 0.  1.
         21    1    1    2  504  505  0.90334296385E+02 -0.12307283147E+03  0.66170110196E+02  0.16639017529E+03  0.00000000000E+00 0. -1.
         21    1    1    2  505  501  0.35742811335E+02  0.11651391271E+01  0.14017482978E+02  0.38410883098E+02  0.00000000000E+00 0. -1.
         21    1    1    2  506  504 -0.81398778061E+02 -0.60819691755E+02 -0.20424507035E+01  0.10163152847E+03  0.00000000000E+00 0. -1.
<scales pt_clust_3="179.77076" pt_clust_4="33.37958" pt_clust_5="33.37958" pt_clust_6="101.61100"></scales>
<clustering>
<clus scale="   33.380">  4  5 -1 -1</clus>
<clus scale="  101.611">  2  6  1 -1</clus>
<clus scale="  179.771">  1  3  2 -1</clus>
<clus scale="  179.771">  1  3  2 -1</clus>
</clustering>
</event>
<event>
 6    0  0.2036847E+002  0.1290383E+03  0.7546771E-02  0.1228890E+00
         21   -1    0    0  505  501  0.00000000000E+00  0.00000000000E+00  0.16972579471E+03  0.16972579471E+03  0.00000000000E+00 0.  1.
         21   -1    0    0  506  502 -0.00000000000E+00 -0.00000000000E+00 -0.31515068012E+03  0.31515068012E+03  0.00000000000E+00 0. -1.
         21    1    1    2  503  502  0.28269281529E+02 -0.68393174229E+02 -0.77621761416E+02  0.10724698786E+03  0.00000000000E+00 0. -1.
         21    1    1    2  504  501  0.72439814567E+02  0.11199222593E+03  0.74076168266E+02  0.15256822771E+03  0.00000000000E+00 0.  1.
         21    1    1    2  505  503 -0.73899442343E+02 -0.91265593471E+02 -0.78036654687E+02  0.14099736028E+03  0.00000000000E+00 0. -1.
         21    1    1    2  506  504 -0.26809653753E+02  0.47666541772E+02 -0.63842637572E+02  0.84063898976E+02  0.00000000000E+00 0. -1.
<scales pt_clust_3="53.25807" pt_clust_4="129.03826" pt_clust_5="14000.00000" pt_clust_6="54.68873"></scales>
<clustering>
<clus scale="   54.689">  2  6  1 -1</clus>
<clus scale="   53.258">  2  3  1 -1</clus>
<clus scale="  129.038">  1  4  2 -1</clus>
<clus scale="  129.038">  1  3  2 -1</clus>
</clustering>
</event>
<event>
 6    0  0.2036847E+002  0.2086237E+03  0.7546771E-02  0.1142661E+00
         21   -1    0    0  505  501  0.00000000000E+00  0.00000000000E+00  0.13702380592E+04  0.13702380592E+04  0.00000000000E+00 0. -1.
         21   -1    0    0  506  502 -0.00000000000E+00 -0.00000000000E+00 -0.39544280769E+03  0.39544280769E+03  0.00000000000E+00 0.  1.
         21    1    1    2  503  501 -0.20665527377E+03  0.52810293666E+02  0.12195852803E+04  0.12380967593E+04  0.00000000000E+00 0. -1.
         21    1    1    2  504  503  0.86783189483E+02  0.42564337410E+02  0.86740487392E+02  0.12987284916E+03  0.00000000000E+00 0.  1.
         21    1    1    2  505  502  0.12221985927E+03 -0.62333903913E+02 -0.11604059649E+03  0.17969037151E+03  0.00000000000E+00 0.  1.
         21    1    1    2  506  504 -0.23477749892E+01 -0.33040727164E+02 -0.21548991967E+03  0.21802088702E+03  0.00000000000E+00 0.  1.
<scales pt_clust_3="208.62372" pt_clust_4="94.71205" pt_clust_5="14000.00000" pt_clust_6="33.12404"></scales>
<clustering>
<clus scale="   33.124">  2  6  1 -1</clus>
<clus scale="   94.712">  2  4  1 -1</clus>
<clus scale="  208.624">  1  3  2 -1</clus>
<clus scale="  208.624">  1  3  2 -1</clus>
</clustering>
</event>
<event>
 6    0  0.2036847E+002  0.1684675E+03  0.7546771E-02  0.1179456E+00
         21   -1    0    0  505  501  0.00000000000E+00  0.00000000000E+00  0.10312200028E+03  0.10312200028E+03  0.00000000000E+00 0.  1.
         21   -1    0    0  504  502 -0.00000000000E+00 -0.00000000000E+00 -0.39355866959E+03  0.39355866959E+03  0.00000000000E+00 0.  1.
         21    1    1    2  503  501  0.60108572777E+02  0.28375347550E+02  0.17411866510E+02  0.68712254840E+02  0.00000000000E+00 0.  1.
         21    1    1    2  504  503  0.63862907854E+02  0.72392556548E+02 -0.25991507446E+02  0.99973555016E+02  0.00000000000E+00 0.  1.
         21    1    1    2  505  506 -0.95114127249E+02 -0.51371187056E+02 -0.20958408828E+03  0.23582024112E+03  0.00000000000E+00 0.  1.
         21    1    1    2  506  502 -0.28857353382E+02 -0.49396717042E+02 -0.72272940097E+02  0.92174618898E+02  0.00000000000E+00 0.  1.
<scales pt_clust_3="44.36220" pt_clust_4="44.36220" pt_clust_5="167.74160" pt_clust_6="37.19465"></scales>
<clustering>
<clus scale="   37.195">  5  6 -1 -1</clus>
<clus scale="   44.362">  3  4 -1 -1</clus>
<clus scale="  167.742">  2  5  1 -1</clus>
<clus scale="  168.467">  1  3  2 -1</clus>
</clustering>
</event>
<event>
 6    0  0.2036847E+002  0.2318957E+03  0.7546771E-02  0.1125313E+00
         21   -1    0    0  505  501  0.00000000000E+00  0.00000000000E+00  0.10917059930E+04  0.10917059930E+04  0.00000000000E+00 0. -1.
         21   -1    0    0  504  502 -0.00000000000E+00 -0.00000000000E+00 -0.11085557260E+03  0.11085557260E+03  0.00000000000E+00 0. -1.
         21    1    1    2  503  502 -0.63658595170E+02  0.92858977999E+02 -0.16764046994E+02  0.11382547960E+03  0.00000000000E+00 0. -1.
         21    1    1    2  504  506  0.57460448707E+02 -0.37528418716E+02  0.19107076158E+03  0.20302246503E+03  0.00000000000E+00 0.  1.
         21    1    1    2  505  503 -0.64986285536E+02  0.84381482182E+02  0.58704595566E+02  0.12161283396E+03  0.00000000000E+00 0.  1.
         21    1    1    2  506  501  0.71184431999E+02 -0.13971204146E+03  0.74783911025E+03  0.76410078701E+03  0.00000000000E+00 0. -1.
<scales pt_clust_3="231.67259" pt_clust_4="50.43630" pt_clust_5="73.48669" pt_clust_6="50.43630"></scales>
<clustering>
<clus scale="   50.436">  4  6 -1 -1</clus>
<clus scale="   73.487">  3  5 -1 -1</clus>
<clus scale="  231.673">  2  3  1 -1</clus>
<clus scale="  231.896">  1  3  2 -1</clus>
</clustering>
</event>
<event>
 6    0  0.2036847E+002  0.1693490E+03  0.7546771E-02  0.1178528E+00
         21   -1    0    0  506  501  0.00000000000E+00  0.00000000000E+00  0.21766998820E+04  0.21766998820E+04  0.00000000000E+00 0.  1.
         21   -1    0    0  505  502 -0.00000000000E+00 -0.00000000000E+00 -0.28304925713E+03  0.28304925713E+03  0.00000000000E+00 0.  1.
         21    1    1    2  503  501 -0.16520077508E+02  0.27379274518E+02  0.14182508446E+03  0.14538532325E+03  0.00000000000E+00 0.  1.
         21    1    1    2  504  503 -0.17350991431E+03 -0.13363354749E+03 -0.14795293522E+03  0.26429847979E+03  0.00000000000E+00 0.  1.
         21    1    1    2  505  504  0.12164651974E+03  0.37903877811E+02 -0.19024974043E+02  0.12882751785E+03  0.00000000000E+00 0.  1.
         21    1    1    2  506  502  0.68383472077E+02  0.68350395160E+02  0.19188034497E+04  0.19212378183E+04  0.00000000000E+00 0.  1.
<scales pt_clust_3="31.97714" pt_clust_4="169.34900" pt_clust_5="14000.00000" pt_clust_6="107.98567"></scales>
<clustering>
<clus scale="   31.977">  1  3  2 -1</clus>
<clus scale="  107.986">  1  6  2 -1</clus>
<clus scale="  169.349">  1  4  2 -1</clus>
<clus scale="   31.977">  1  3  2 -1</clus>
</clustering>
</event>
<event>
 6    0  0.2036847E+002  0.1447000E+03  0.7546771E-02  0.1207141E+00
         21   -1    0    0  506  501  0.00000000000E+00  0.00000000000E+00  0.60592740116E+03  0.60592740116E+03  0.00000000000E+00 0. -1.
         21   -1    0    0  504  502 -0.00000000000E+00 -0.00000000000E+00 -0.45913656500E+03  0.45913656500E+03  0.00000000000E+00 0.  1.
         21    1    1    2  503  505 -0.39066153347E+02  0.33537803525E+02 -0.10189510628E+03  0.11416462362E+03  0.00000000000E+00 0.  1.
         21    1    1    2  504  501  0.19512790357E+02 -0.10187645998E+03  0.52051516858E+03  0.53075003797E+03  0.00000000000E+00 0. -1.
         21    1    1    2  505  502 -0.47390392189E+02  0.75224961878E+02 -0.32337844481E+03  0.33537779105E+03  0.00000000000E+00 0.  1.
         21    1    1    2  506  503  0.66943755178E+02 -0.68863054223E+01  0.51549218665E+02  0.84771513521E+02  0.00000000000E+00 0.  1.
<scales pt_clust_3="33.40324" pt_clust_4="137.88178" pt_clust_5="33.40324" pt_clust_6="67.29701"></scales>
<clustering>
<clus scale="   33.403">  3  5 -1 -1</clus>
<clus scale="   67.297">  1  6  2 -1</clus>
<clus scale="  137.882">  1  4  2 -1</clus>
<clus scale="   67.297">  1  3  2 -1</clus>
</clustering>
</event>
<event>
 6    0  0.2036847E+002  0.1257881E+03  0.7546771E-02  0.1233843E+00
         21   -1    0    0  503  501  0.00000000000E+00  0.00000000000E+00  0.29143222087E+03  0.29143222087E+03  0.00000000000E+00 0. -1.
         21   -1    0    0  505  502 -0.00000000000E+00 -0.00000000000E+00 -0.82284919702E+02  0.82284919702E+02  0.00000000000E+00 0. -1.
         21    1    1    2  503  506 -0.13705895738E+02  0.62928042382E+02  0.12920446337E+03  0.14436614371E+03  0.00000000000E+00 0. -1.
         21    1    1    2  504  502  0.87617120250E+02 -0.73522857193E+02  0.23045485457E+02  0.11667675300E+03  0.00000000000E+00 0. -1.
         21    1    1    2  505  501 -0.30185496271E+02 -0.23616215947E+02  0.90447059887E+01  0.39378884535E+02  0.00000000000E+00 0.  1.
         21    1    1    2  506  504 -0.43725728240E+02  0.34211030758E+02  0.47852646357E+02  0.73295359328E+02  0.00000000000E+00 0. -1.
<scales pt_clust_3="55.07247" pt_clust_4="111.93628" pt_clust_5="38.32610" pt_clust_6="55.07247"></scales>
<clustering>
<clus scale="   38.326">  2  5  1 -1</clus>
<clus scale="   55.072">  3  6 -1 -1</clus>
<clus scale="  111.936">  2  4  1 -1</clus>
<clus scale="  125.788">  1  3  2 -1</clus>
</clustering>
</event>
<event>
 6    0  0.2036847E+002  0.1108862E+03  0.7546771E-02  0.1258938E+00
         21   -1    0    0  506  501  0.00000000000E+00  0.00000000000E+00  0.38025030039E+02  0.38025030039E+02  0.00000000000E+00 0.  1.
         21   -1    0    0  503  502 -0.00000000000E+00 -0.00000000000E+00 -0.10146102007E+04  0.10146102007E+04  0.00000000000E+00 0. -1.
         21    1    1    2  503  501 -0.24641803200E+02 -0.20639094381E+02 -0.51492827722E+02  0.60701746175E+02  0.00000000000E+00 0. -1.
         21    1    1    2  504  505 -0.15833156596E+02  0.53554143932E+02 -0.45208976059E+03  0.45552594527E+03  0.00000000000E+00 0. -1.
         21    1    1    2  505  502 -0.44671040085E+02  0.32323535865E+02 -0.40644991942E+03  0.41017295107E+03  0.00000000000E+00 0. -1.
         21    1    1    2  506  504  0.85145999881E+02 -0.65238585415E+02 -0.66552662933E+02  0.12623458823E+03  0.00000000000E+00 0.  1.
<scales pt_clust_3="32.14328" pt_clust_4="36.04363" pt_clust_5="36.04363" pt_clust_6="104.82024"></scales>
<clustering>
<clus scale="   32.143">  1  3  2 -1</clus>
<clus scale="   36.044">  4  5 -1 -1</clus>
<clus scale="  104.820">  1  6  2 -1</clus>
<clus scale="   32.143">  1  3  2 -1</clus>
</clustering>
</event>
<event>
 6    0  0.2036847E+002  0.1645181E+03  0.7546771E-02  0.1183688E+00
         21   -1    0    0  504  501  0.00000000000E+00  0.00000000000E+00  0.17070805030E+04  0.17070805030E+04  0.00000000000E+00 0. -1.
         21   -1    0    0  506  502 -0.00000000000E+00 -0.00000000000E+00 -0.50207148929E+02  0.50207148929E+02  0.00000000000E+00 0. -1.
         21    1    1    2  503  505  0.54296208680E+02 -0.14824540390E+03  0.13349920905E+03  0.20675303352E+03  0.00000000000E+00 0. -1.
         21    1    1    2  504  503 -0.48700871550E+02  0.91404099506E+02  0.11137863836E+04  0.11185913429E+04  0.00000000000E+00 0. -1.
         21    1    1    2  505  502 -0.16831813684E+02 -0.35762220552E+02  0.77421338961E+02  0.86927038930E+02  0.00000000000E+00 0.  1.
         21    1    1    2  506  501  0.11236476554E+02  0.92603524943E+02  0.33216642247E+03  0.34501623651E+03  0.00000000000E+00 0. -1.
<scales pt_clust_3="14000.00000" pt_clust_4="164.51814" pt_clust_5="39.52526" pt_clust_6="87.99549"></scales>
<clustering>
<clus scale="   39.525">  2  5  1 -1</clus>
<clus scale="   87.995">  1  6  2 -1</clus>
<clus scale="  164.518">  1  4  2 -1</clus>
<clus scale="   87.995">  1  3  2 -1</clus>
</clustering>
</event>
<event>
 6    0  0.2036847E+002  0.1182498E+03  0.7546771E-02  0.1246013E+00
         21   -1    0    0  504  501  0.00000000000E+00  0.00000000000E+00  0.14424221320E+03  0.14424221320E+03  0.00000000000E+00 0.  1.
         21   -1    0    0  503  502 -0.00000000000E+00 -0.00000000000E+00 -0.41684870852E+03  0.41684870852E+03  0.00000000000E+00 0.  1.
         21    1    1    2  503  505 -0.49768394770E+02  0.37341178418E+02  0.64793645074E+02  0.89830246385E+02  0.00000000000E+00 0.  1.
         21    1    1    2  504  506  0.15758139373E+02 -0.27209794393E+02 -0.15345788026E+02  0.34988356314E+02  0.00000000000E+00 0.  1.
         21    1    1    2  505  501 -0.65305952717E+02  0.32631049142E+02  0.21498756475E+02  0.76104200662E+02  0.00000000000E+00 0.  1.
         21    1    1    2  506  502  0.99316208114E+02 -0.42762433167E+02 -0.34355310885E+03  0.36016811836E+03  0.00000000000E+00 0.  1.
<scales pt_clust_3="37.54871" pt_clust_4="31.44347" pt_clust_5="37.54871" pt_clust_6="109.69675"></scales>
<clustering>
<clus scale="   31.443">  1  4  2 -1</clus>
<clus scale="   37.549">  3  5 -1 -1</clus>
<clus scale="  109.697">  2  6  1 -1</clus>
<clus scale="   31.443">  1  3  2 -1</clus>
</clustering>
</event>
<event>
 6    0  0.2036847E+002  0.1276784E+03  0.7546771E-02  0.1230942E+00
         21   -1    0    0  504  501  0.00000000000E+00  0.00000000000E+00  0.19546263921E+03  0.19546263921E+03  0.00000000000E+00 0. -1.
         21   -1    0    0  505  502 -0.00000000000E+00 -0.00000000000E+00 -0.24952476696E+04  0.24952476696E+04  0.00000000000E+00 0.  1.
         21    1    1    2  503  502  0.12247298242E+02 -0.63302769867E+02 -0.98521307554E+03  0.98732063748E+03  0.00000000000E+00 0.  1.
         21    1    1    2  504  506  0.12270226946E+02  0.72834836354E+02  0.14231169834E+03  0.16033742963E+03  0.00000000000E+00 0. -1.
         21    1    1    2  505  501 -0.22316209175E+02  0.50641091822E+02  0.24446154216E+02  0.60499155604E+02  0.00000000000E+00 0.  1.
         21    1    1    2  506  503 -0.22013160130E+01 -0.60173158309E+02 -0.14813298074E+04  0.14825530861E+04  0.00000000000E+00 0.  1.
<scales pt_clust_3="31.98087" pt_clust_4="123.31493" pt_clust_5="55.34016" pt_clust_6="31.98087"></scales>
<clustering>
<clus scale="   31.981">  3  6 -1 -1</clus>
<clus scale="   55.340">  1  5  2 -1</clus>
<clus scale="  123.315">  1  4  2 -1</clus>
<clus scale="   55.340">  1  3  2 -1</clus>
</clustering>
</event>
<event>
 6    0  0.2036847E+002  0.7355256E+02  0.7546771E-02  0.1348413E+00
         21   -1    0    0  502  501  0.00000000000E+00  0.00000000000E+00  0.49542846453E+03  0.49542846453E+03  0.00000000000E+00 0.  1.
         21   -1    0    0  506  502 -0.00000000000E+00 -0.00000000000E+00 -0.14699126742E+03  0.14699126742E+03  0.00000000000E+00 0.  1.
         21    1    1    2  503  501  0.14362095953E+02  0.39047616418E+02  0.24570437581E+03  0.24920197920E+03  0.00000000000E+00 0.  1.
         21    1    1    2  504  505 -0.53194938499E+01 -0.13352091379E+03 -0.62193058746E+02  0.14739100376E+03  0.00000000000E+00 0.  1.
         21    1    1    2  505  503 -0.31336579998E+02  0.37256353950E+02  0.17671530137E+03  0.18329843123E+03  0.00000000000E+00 0.  1.
         21    1    1    2  506  504  0.22293977895E+02  0.57216943423E+02 -0.11789421325E+02  0.62528317747E+02  0.00000000000E+00 0.  1.
<scales pt_clust_3="41.60512" pt_clust_4="73.55256" pt_clust_5="14000.00000" pt_clust_6="65.66258"></scales>
<clustering>
<clus scale="   41.605">  1  3  2 -1</clus>
<clus scale="   65.663">  2  6  1 -1</clus>
<clus scale="   73.553">  2  4  1 -1</clus>
<clus scale="   41.605">  1  3  2 -1</clus>
</clustering>
</event>
<event>
 6    0  0.2036847E+002  0.7776818E+02  0.7546771E-02  0.1335507E+00
         21   -1    0    0  506  501  0.00000000000E+00  0.00000000000E+00  0.25070645895E+04  0.25070645895E+04  0.00000000000E+00 0.  1.
         21   -1    0    0  505  502 -0.00000000000E+00 -0.00000000000E+00 -0.34523348221E+03  0.34523348221E+03  0.00000000000E+00 0.  1.
         21    1    1    2  503  504 -0.92536559284E+02  0.59515786742E+02 -0.12417096607E+03  0.16590229802E+03  0.00000000000E+00 0.  1.
         21    1    1    2  504  502  0.70706871436E+02 -0.44740034623E+01 -0.19075261025E+03  0.20348473332E+03  0.00000000000E+00 0.  1.
         21    1    1    2  505  501  0.33652461329E+02 -0.85316197147E+00  0.10009146579E+03  0.10560074603E+03  0.00000000000E+00 0.  1.
         21    1    1    2  506  503 -0.11822773481E+02 -0.54188621309E+02  0.23766632178E+04  0.23773102943E+04  0.00000000000E+00 0.  1.
<scales pt_clust_3="77.76818" pt_clust_4="14000.00000" pt_clust_5="33.66327" pt_clust_6="59.06414"></scales>
<clustering>
<clus scale="   33.663">  1  5  2 -1</clus>
<clus scale="   59.064">  1  6  2 -1</clus>
<clus scale="   77.768">  1  3  2 -1</clus>
<clus scale="   33.663">  1  3  2 -1</clus>
</clustering>
</event>
<event>
 6    0  0.2036847E+002  0.1236249E+03  0.7546771E-02  0.1237234E+00
         21   -1    0    0  502  501  0.00000000000E+00  0.00000000000E+00  0.27682837704E+02  0.27682837704E+02  0.00000000000E+00 0.  1.
         21   -1    0    0  505  502 -0.00000000000E+00 -0.00000000000E+00 -0.96998168788E+03  0.96998168788E+03  0.00000000000E+00 0.  1.
         21    1    1    2  503  504  0.61447755494E+02 -0.44659340706E+02 -0.55149223680E+03  0.55669917426E+03  0.00000000000E+00 0.  1.
         21    1    1    2  504  506 -0.59347154705E+02  0.24441221731E+02 -0.16017602786E+03  0.17255670949E+03  0.00000000000E+00 0.  1.
         21    1    1    2  505  503  0.57795665201E+02  0.12156823875E+02 -0.18040500116E+03  0.18982647794E+03  0.00000000000E+00 0.  1.
         21    1    1    2  506  501 -0.59896265990E+02  0.80612951009E+01 -0.50225584361E+02  0.78582163896E+02  0.00000000000E+00 0.  1.
<scales pt_clust_3="108.42793" pt_clust_4="57.62490" pt_clust_5="59.06037" pt_clust_6="57.62490"></scales>
<clustering>
<clus scale="   57.625">  4  6 -1 -1</clus>
<clus scale="   59.060">  2  5  1 -1</clus>
<clus scale="  108.428">  2  3  1 -1</clus>
<clus scale="  123.625">  1  3  2 -1</clus>
</clustering>
</event>
<event>
 6    0  0.2036847E+002  0.3235569E+03  0.7546771E-02  0.1074024E+00
         21   -1    0    0  502  501  0.00000000000E+00  0.00000000000E+00  0.21618841398E+03  0.21618841398E+03  0.00000000000E+00 0.  1.
         21   -1    0    0  505  502 -0.00000000000E+00 -0.00000000000E+00 -0.64151766662E+03  0.64151766662E+03  0.00000000000E+00 0. -1.
         21    1    1    2  503  504 -0.81102582800E+01  0.78986348507E+02 -0.13055458583E+02  0.80467785720E+02  0.00000000000E+00 0.  1.
         21    1    1    2  504  501  0.92381679936E+02  0.23166835985E+03 -0.19843026935E+02  0.25019662160E+03  0.00000000000E+00 0.  1.
         21    1    1    2  505  506 -0.43013028265E+02 -0.82332081076E+01 -0.29385323441E+02  0.52739013547E+02  0.00000000000E+00 0. -1.
         21    1    1    2  506  503 -0.41258393392E+02 -0.30242150025E+03 -0.36304544368E+03  0.47430265972E+03  0.00000000000E+00 0. -1.
<scales pt_clust_3="38.46990" pt_clust_4="38.46990" pt_clust_5="43.79391" pt_clust_6="316.29173"></scales>
<clustering>
<clus scale="   38.470">  3  4 -1 -1</clus>
<clus scale="   43.794">  2  5  1 -1</clus>
<clus scale="  316.292">  2  6  1 -1</clus>
<clus scale="  323.557">  1  3  2 -1</clus>
</clustering>
</event>
<event>
 6    0  0.2036847E+002  0.2184068E+03  0.7546771E-02  0.1135076E+00
         21   -1    0    0  503  501  0.00000000000E+00  0.00000000000E+00  0.68621252613E+03  0.68621252613E+03  0.00000000000E+00 0.  1.
         21   -1    0    0  505  502 -0.00000000000E+00 -0.00000000000E+00 -0.24096606041E+03  0.24096606041E+03  0.00000000000E+00 0. -1.
         21    1    1    2  503  504  0.32417593077E+02 -0.43618038289E+02  0.24926685326E+03  0.25512231917E+03  0.00000000000E+00 0. -1.
         21    1    1    2  504  506  0.89013232524E+02  0.11681166812E+03 -0.12678517273E+03  0.19401752858E+03  0.00000000000E+00 0. -1.
         21    1    1    2  505  501 -0.16095818358E+03 -0.12993458232E+03  0.34765639276E+03  0.40454356993E+03  0.00000000000E+00 0.  1.
         21    1    1    2  506  502  0.39527357982E+02  0.56740952493E+02 -0.24891607562E+02  0.73495168861E+02  0.00000000000E+00 0. -1.
<scales pt_clust_3="54.34550" pt_clust_4="30.02053" pt_clust_5="213.98024" pt_clust_6="30.02053"></scales>
<clustering>
<clus scale="   30.021">  4  6 -1 -1</clus>
<clus scale="   54.346">  1  3  2 -1</clus>
<clus scale="  213.980">  1  5  2 -1</clus>
<clus scale="   54.346">  1  3  2 -1</clus>
</clustering>
</event>
<event>
 6    0  0.2036847E+002  0.1274094E+03  0.7546771E-02  0.1231351E+00
         21   -1    0    0  503  501  0.00000000000E+00  0.00000000000E+00  0.22809374357E+04  0.22809374357E+04  0.00000000000E+00 0.  1.
         21   -1    0    0  506  502 -0.00000000000E+00 -0.00000000000E+00 -0.23335590447E+02  0.23335590447E+02  0.00000000000E+00 0.  1.
         21    1    1    2  503  504 -0.38263810360E+02 -0.37223151629E+02  0.79148912859E+03  0.79328728899E+03  0.00000000000E+00 0.  1.
         21    1    1    2  504  502  0.16392808599E+03  0.88632863079E+01  0.65918294249E+03  0.67931813378E+03  0.00000000000E+00 0.  1.
         21    1    1    2  505  501 -0.23120382060E+02  0.73325800703E+02  0.47943538444E+03  0.48556102909E+03  0.00000000000E+00 0. -1.
         21    1    1    2  506  505 -0.10254389357E+03 -0.44965935382E+02  0.32749438970E+03  0.34610657425E+03  0.00000000000E+00 0.  1.
<scales pt_clust_3="53.38241" pt_clust_4="127.40938" pt_clust_5="70.81470" pt_clust_6="14000.00000"></scales>
<clustering>
<clus scale="   53.382">  1  3  2 -1</clus>
<clus scale="   70.815">  1  5  2 -1</clus>
<clus scale="  127.409">  1  4  2 -1</clus>
<clus scale="   53.382">  1  3  2 -1</clus>
</clustering>
</event>
<event>
 6    0  0.2036847E+002  0.1817327E+03  0.7546771E-02  0.1166137E+00
         21   -1    0    0  504  501  0.00000000000E+00  0.00000000000E+00  0.82064251596E+03  0.82064251596E+03  0.00000000000E+00 0.  1.
         21   -1    0    0  501  502 -0.00000000000E+00 -0.00000000000E+00 -0.50540925976E+02  0.50540925976E+02  0.00000000000E+00 0. -1.
         21    1    1    2  503  505  0.68100797122E+02 -0.56587757450E+02  0.73571881444E+02  0.11512043520E+03  0.00000000000E+00 0. -1.
         21    1    1    2  504  506 -0.12093495230E+03  0.40466127442E+02  0.37646164467E+03  0.39747470369E+03  0.00000000000E+00 0.  1.
         21    1    1    2  505  502  0.79098862964E+02 -0.27881545486E+02  0.90568266748E+02  0.12343671108E+03  0.00000000000E+00 0. -1.
         21    1    1    2  506  503 -0.26264707784E+02  0.44003175493E+02  0.22949979711E+03  0.23515159196E+03  0.00000000000E+00 0.  1.
<scales pt_clust_3="173.11130" pt_clust_4="41.19927" pt_clust_5="33.21499" pt_clust_6="41.19927"></scales>
<clustering>
<clus scale="   33.215">  3  5 -1 -1</clus>
<clus scale="   41.199">  4  6 -1 -1</clus>
<clus scale="  173.111">  2  3  1 -1</clus>
<clus scale="  181.733">  1  3  2 -1</clus>
</clustering>
</event>
<event>
 6    0  0.2036847E+002  0.9703049E+02  0.7546771E-02  0.1286667E+00
         21   -1    0    0  505  501  0.00000000000E+00  0.00000000000E+00  0.20172156570E+03  0.20172156570E+03  0.00000000000E+00 0. -1.
         21   -1    0    0  506  502 -0.00000000000E+00 -0.00000000000E+00 -0.46701250573E+03  0.46701250573E+03  0.00000000000E+00 0.  1.
         21    1    1    2  503  502 -0.11647053908E+03 -0.23923459869E+02  0.88366215938E+02  0.14814285850E+03  0.00000000000E+00 0. -1.
         21    1    1    2  504  501  0.78641896545E+02  0.87483256764E+01  0.47420525954E+02  0.92248508802E+02  0.00000000000E+00 0. -1.
         21    1    1    2  505  503  0.51633439118E+01 -0.31030021262E+02 -0.97326635103E+01  0.32927907296E+02  0.00000000000E+00 0. -1.
         21    1    1    2  506  504  0.32665298623E+02  0.46205155455E+02 -0.39134501841E+03  0.39541479684E+03  0.00000000000E+00 0.  1.
<scales pt_clust_3="14000.00000" pt_clust_4="97.03049" pt_clust_5="31.45667" pt_clust_6="56.34688"></scales>
<clustering>
<clus scale="   31.457">  1  5  2 -1</clus>
<clus scale="   56.347">  2  6  1 -1</clus>
<clus scale="   97.030">  1  4  2 -1</clus>
<clus scale="   31.457">  1  3  2 -1</clus>
</clustering>
</event>
<event>
 6    0  0.2036847E+002  0.2088701E+03  0.7546771E-02  0.1142464E+00
         21   -1    0    0  503  501  0.00000000000E+00  0.00000000000E+00  0.20094578280E+03  0.20094578280E+03  0.00000000000E+00 0. -1.
         21   -1    0    0  505  502 -0.00000000000E+00 -0.00000000000E+00 -0.25906912754E+04  0.25906912754E+04  0.00000000000E+00 0. -1.
         21    1    1    2  503  504 -0.13615851153E+03  0.28696033163E+02  0.73914141409E+02  0.15756237774E+03  0.00000000000E+00 0. -1.
         21    1    1    2  504  506 -0.68089562522E+02 -0.16892219236E+02  0.62658681386E+02  0.94061926135E+02  0.00000000000E+00 0. -1.
         21    1    1    2  505  501  0.11988405901E+03 -0.82179143259E+02 -0.17394334080E+04  0.17454953967E+04  0.00000000000E+00 0. -1.
         21    1    1    2  506  502  0.84364015042E+02  0.70375329331E+02 -0.78688490745E+03  0.79451735764E+03  0.00000000000E+00 0. -1.
<scales pt_clust_3="37.61247" pt_clust_4="37.61247" pt_clust_5="202.04121" pt_clust_6="109.86343"></scales>
<clustering>
<clus scale="   37.612">  3  4 -1 -1</clus>
<clus scale="  109.863">  2  6  1 -1</clus>
<clus scale="  202.041">  2  5  1 -1</clus>
<clus scale="  208.870">  1  3  2 -1</clus>
</clustering>
</event>
<event>
 6    0  0.2036847E+002  0.9342334E+02  0.7546771E-02  0.1294767E+00
         21   -1    0    0  504  501  0.00000000000E+00  0.00000000000E+00  0.98171089215E+02  0.98171089215E+02  0.00000000000E+00 0. -1.
         21   -1    0    0  506  502 -0.00000000000E+00 -0.00000000000E+00 -0.50748089157E+03  0.50748089157E+03  0.00000000000E+00 0. -1.
         21    1    1    2  503  505 -0.11995392994E+03 -0.13588849057E+02 -0.29017054293E+03  0.31428099865E+03  0.00000000000E+00 0. -1.
         21    1    1    2  504  503  0.27098264050E+02  0.52440146290E+02 -0.16820231288E+02  0.61377561356E+02  0.00000000000E+00 0. -1.
         21    1    1    2  505  502  0.34242445425E+02 -0.38275518286E+02 -0.14737157780E+03  0.15606390458E+03  0.00000000000E+00 0. -1.
         21    1    1    2  506  501  0.58613220466E+02 -0.57577894708E+00  0.45052549663E+02  0.73929516203E+02  0.00000000000E+00 0. -1.
<scales pt_clust_3="93.42334" pt_clust_4="57.26183" pt_clust_5="51.35718" pt_clust_6="14000.00000"></scales>
<clustering>
<clus scale="   51.357">  2  5  1 -1</clus>
<clus scale="   57.262">  1  4  2 -1</clus>
<clus scale="   93.423">  2  3  1 -1</clus>
<clus scale="   57.262">  1  3  2 -1</clus>
</clustering>
</event>
<event>
 6    0  0.2036847E+002  0.1485467E+03  0.7546771E-02  0.1202270E+00
         21   -1    0    0  503  501  0.00000000000E+00  0.00000000000E+00  0.37173563492E+03  0.37173563492E+03  0.00000000000E+00 0.  1.
         21   -1    0    0  506  502 -0.00000000000E+00 -0.00000000000E+00 -0.12288584555E+03  0.12288584555E+03  0.00000000000E+00 0.  1.
         21    1    1    2  503  505 -0.27096321775E+02  0.73485066223E+02  0.21053999987E+03  0.22463605489E+03  0.00000000000E+00 0.  1.
         21    1    1    2  504  501 -0.45217142049E+01 -0.10030482060E+03 -0.46714158420E+02  0.11074166123E+03  0.00000000000E+00 0.  1.
         21    1    1    2  505  502 -0.25615969516E+01  0.59201953557E+02  0.94186717087E+02  0.11127700014E+03  0.00000000000E+00 0.  1.
         21    1    1    2  506  504  0.34179632931E+02 -0.32382199179E+02 -0.91627691661E+01  0.47966764220E+02  0.00000000000E+00 0.  1.
<scales pt_clust_3="141.34783" pt_clust_4="40.97667" pt_clust_5="33.61805" pt_clust_6="40.97667"></scales>
<clustering>
<clus scale="   33.618">  3  5 -1 -1</clus>
<clus scale="   40.977">  4  6 -1 -1</clus>
<clus scale="  141.348">  1  3  2 -1</clus>
<clus scale="  141.348">  1  3  2 -1</clus>
</clustering>
</event>
<event>
 6    0  0.2036847E+002  0.1735756E+03  0.7546771E-02  0.1174170E+00
         21   -1    0    0  506  501  0.00000000000E+00  0.00000000000E+00  0.13568371083E+04  0.13568371083E+04  0.00000000000E+00 0.  1.
         21   -1    0    0  505  502 -0.00000000000E+00 -0.00000000000E+00 -0.46629675423E+02  0.46629675423E+02  0.00000000000E+00 0.  1.
         21    1    1    2  503  501 -0.27125476133E+02 -0.17879548244E+02  0.88712294616E+02  0.94474022444E+02  0.00000000000E+00 0. -1.
         21    1    1    2  504  502 -0.21130662603E+02  0.43210334757E+02  0.11079636987E+03  0.12078689295E+03  0.00000000000E+00 0.  1.
         21    1    1    2  505  503 -0.13562889411E+03  0.46196438306E+02  0.14992172249E+03  0.20737847214E+03  0.00000000000E+00 0.  1.
         21    1    1    2  506  504  0.18388503285E+03 -0.71527224819E+02  0.96077704595E+03  0.98082739624E+03  0.00000000000E+00 0.  1.
<scales pt_clust_3="32.48799" pt_clust_4="47.81193" pt_clust_5="14000.00000" pt_clust_6="173.57556"></scales>
<clustering>
<clus scale="   32.488">  1  3  2 -1</clus>
<clus scale="   47.812">  2  4  1 -1</clus>
<clus scale="  173.576">  1  6  2 -1</clus>
<clus scale="   32.488">  1  3  2 -1</clus>
</clustering>
</event>
<event>
 6    0  0.2036847E+002  0.2822784E+03  0.7546771E-02  0.1094451E+00
         21   -1    0    0  503  501  0.00000000000E+00  0.00000000000E+00  0.83786053428E+03  0.83786053428E+03  0.00000000000E+00 0. -1.
         21   -1    0    0  504  502 -0.00000000000E+00 -0.00000000000E+00 -0.98497726180E+02  0.98497726180E+02  0.00000000000E+00 0. -1.
         21    1    1    2  503  506 -0.25704397305E+02  0.23282118107E+03  0.23323167852E+03  0.33055019930E+03  0.00000000000E+00 0. -1.
         21    1    1    2  504  505 -0.53180258977E+01 -0.13987885293E+03  0.18126945019E+03  0.22902617421E+03  0.00000000000E+00 0. -1.
         21    1    1    2  505  501  0.70631615892E+02 -0.11717285833E+03  0.28268741223E+03  0.31405489476E+03  0.00000000000E+00 0. -1.
         21    1    1    2  506  502 -0.39609192689E+02  0.24230530189E+02  0.42174267162E+02  0.62726992191E+02  0.00000000000E+00 0. -1.
<scales pt_clust_3="280.74635" pt_clust_4="95.54294" pt_clust_5="95.54294" pt_clust_6="40.99290"></scales>
<clustering>
<clus scale="   40.993">  3  6 -1 -1</clus>
<clus scale="   95.543">  4  5 -1 -1</clus>
<clus scale="  280.746">  2  3  1 -1</clus>
<clus scale="  282.278">  1  3  2 -1</clus>
</clustering>
</event>
<event>
 6    0  0.2036847E+002  0.1961103E+03  0.7546771E-02  0.1153063E+00
         21   -1    0    0  504  501  0.00000000000E+00  0.00000000000E+00  0.27607246899E+02  0.27607246899E+02  0.00000000000E+00 0.  1.
         21   -1    0    0  506  502 -0.00000000000E+00 -0.00000000000E+00 -0.23756492255E+04  0.23756492255E+04  0.00000000000E+00 0.  1.
         21    1    1    2  503  501 -0.43424634906E+02  0.54359913224E+02 -0.41150340246E+03  0.41734368250E+03  0.00000000000E+00 0. -1.
         21    1    1    2  504  505 -0.20346496186E+01 -0.35477279975E+02 -0.75562033290E+02  0.83500886632E+02  0.00000000000E+00 0.  1.
         21    1    1    2  505  502  0.13118800210E+03 -0.89022231711E+02 -0.31668809131E+03  0.35415617574E+03  0.00000000000E+00 0.  1.
         21    1    1    2  506  503 -0.85728717573E+02  0.70139598462E+02 -0.15442884516E+04  0.15482557276E+04  0.00000000000E+00 0.  1.
<scales pt_clust_3="62.79926" pt_clust_4="35.11994" pt_clust_5="194.12250" pt_clust_6="62.79926"></scales>
<clustering>
<clus scale="   35.120">  4  5 -1 -1</clus>
<clus scale="   62.799">  3  6 -1 -1</clus>
<clus scale="  194.122">  1  4  2 -1</clus>
<clus scale="  194.122">  1  3  2 -1</clus>
</clustering>
</event>
<event>
 6    0  0.3680836E+002  0.1277047E+03  0.7546771E-02  0.1230902E+00
         21   -1    0    0  504  501  0.00000000000E+00  0.00000000000E+00  0.52327009405E+03  0.52327009405E+03  0.00000000000E+00 0.  1.
         21   -1    0    0  506  502 -0.00000000000E+00 -0.00000000000E+00 -0.77890680280E+03  0.77890680280E+03  0.00000000000E+00 0.  1.
         21    1    1    2  503  502  0.31201953851E+02  0.48256859633E+02 -0.90141334489E+02  0.10690063896E+03  0.00000000000E+00 0.  1.
         21    1    1    2  504  503 -0.25549075739E+02 -0.15601489106E+03  0.48025836013E+03  0.50561002164E+03  0.00000000000E+00 0.  1.
         21    1    1    2  505  501 -0.18259860292E+02  0.34198632958E+02  0.84234804041E+00  0.38777294185E+02  0.00000000000E+00 0.  1.
         21    1    1    2  506  505  0.12606982179E+02  0.73559398465E+02 -0.64659608243E+03  0.65088894208E+03  0.00000000000E+00 0.  1.
<scales pt_clust_3="57.78125" pt_clust_4="127.70467" pt_clust_5="38.76814" pt_clust_6="14000.00000"></scales>
<clustering>
<clus scale="   38.768">  1  5  2 -1</clus>
<clus scale="   57.781">  2  3  1 -1</clus>
<clus scale="  127.705">  1  4  2 -1</clus>
<clus scale="   38.768">  1  3  2 -1</clus>
</clustering>
</event>
<event>
 6    0  0.2036847E+002  0.1286863E+03  0.7546771E-02  0.1229418E+00
         21   -1    0    0  503  501  0.00000000000E+00  0.00000000000E+00  0.76173908424E+02  0.76173908424E+02  0.00000000000E+00 0. -1.
         21   -1    0    0  504  502 -0.00000000000E+00 -0.00000000000E+00 -0.50468586490E+03  0.50468586490E+03  0.00000000000E+00 0. -1.
         21    1    1    2  503  502  0.33354374577E+02 -0.75957154692E+01  0.26784064277E+01  0.34313015867E+02  0.00000000000E+00 0.  1.
         21    1    1    2  504  506  0.44913945002E+02 -0.11003853311E+02 -0.20911401115E+03  0.21416586307E+03  0.00000000000E+00 0. -1.
         21    1    1    2  505  501 -0.14053896927E+03 -0.17014659309E+02 -0.57402353715E+02  0.15276037027E+03  0.00000000000E+00 0. -1.
         21    1    1    2  506  505  0.62270649687E+02  0.35614228089E+02 -0.16467399804E+03  0.17962052412E+03  0.00000000000E+00 0.  1.
<scales pt_clust_3="34.20832" pt_clust_4="45.50788" pt_clust_5="115.34351" pt_clust_6="45.50788"></scales>
<clustering>
<clus scale="   34.208">  1  3  2 -1</clus>
<clus scale="   45.508">  4  6 -1 -1</clus>
<clus scale="  115.344">  1  5  2 -1</clus>
<clus scale="   34.208">  1  3  2 -1</clus>
</clustering>
</event>
<event>
 6    0  0.2036847E+002  0.1931273E+03  0.7546771E-02  0.1155671E+00
         21   -1    0    0  502  501  0.00000000000E+00  0.00000000000E+00  0.12053277369E+04  0.12053277369E+04  0.00000000000E+00 0. -1.
         21   -1    0    0  506  502 -0.00000000000E+00 -0.00000000000E+00 -0.84952309851E+02  0.84952309851E+02  0.00000000000E+00 0. -1.
         21    1    1    2  503  501  0.23387344184E+02 -0.37223405478E+02  0.48104957346E+03  0.48305407763E+03  0.00000000000E+00 0. -1.
         21    1    1    2  504  503  0.10666345583E+03 -0.83915459789E+02  0.60523488182E+03  0.62026458820E+03  0.00000000000E+00 0. -1.
         21    1    1    2  505  504 -0.41971931716E+02  0.37481501117E+02  0.33490631930E+02  0.65483802616E+02  0.00000000000E+00 0. -1.
         21    1    1    2  506  505 -0.88078868293E+02  0.83657364150E+02  0.60033980336E+00  0.12147757828E+03  0.00000000000E+00 0. -1.
<scales pt_clust_3="43.00780" pt_clust_4="43.00780" pt_clust_5="31.95638" pt_clust_6="183.82699"></scales>
<clustering>
<clus scale="   31.956">  5  6 -1 -1</clus>
<clus scale="   43.008">  3  4 -1 -1</clus>
<clus scale="  183.827">  2  5  1 -1</clus>
<clus scale="  193.127">  1  3  2 -1</clus>
</clustering>
</event>
<event>
 6    0  0.2036847E+002  0.1998764E+03  0.7546771E-02  0.1149843E+00
         21   -1    0    0  502  501  0.00000000000E+00  0.00000000000E+00  0.11024736178E+04  0.11024736178E+04  0.00000000000E+00 0.  1.
         21   -1    0    0  505  502 -0.00000000000E+00 -0.00000000000E+00 -0.11656606246E+03  0.11656606246E+03  0.00000000000E+00 0.  1.
         21    1    1    2  503  504  0.30390726992E+02 -0.28933466429E+02 -0.40177170724E+01  0.42153099734E+02  0.00000000000E+00 0.  1.
         21    1    1    2  504  506  0.23069317317E+02  0.41180684908E+02  0.23355132017E+03  0.23827350118E+03  0.00000000000E+00 0.  1.
         21    1    1    2  505  503 -0.55827774492E+01 -0.15721682084E+03 -0.95653051460E+01  0.15760644410E+03  0.00000000000E+00 0.  1.
         21    1    1    2  506  501 -0.47877266861E+02  0.14496960236E+03  0.76593925740E+03  0.78100663525E+03  0.00000000000E+00 0.  1.
<scales pt_clust_3="34.46004" pt_clust_4="38.05177" pt_clust_5="199.29721" pt_clust_6="38.05177"></scales>
<clustering>
<clus scale="   34.460">  3  5 -1 -1</clus>
<clus scale="   38.052">  4  6 -1 -1</clus>
<clus scale="  199.297">  2  3  1 -1</clus>
<clus scale="  199.876">  1  3  2 -1</clus>
</clustering>
</event>
<event>
 6    0  0.2036847E+002  0.1129970E+03  0.7546771E-02  0.1255118E+00
         21   -1    0    0  506  501  0.00000000000E+00  0.00000000000E+00  0.25571829609E+03  0.25571829609E+03  0.00000000000E+00 0.  1.
         21   -1    0    0  504  502 -0.00000000000E+00 -0.00000000000E+00 -0.82946851619E+03  0.82946851619E+03  0.00000000000E+00 0. -1.
         21    1    1    2  503  502 -0.29171927153E+02 -0.26589325128E+02 -0.12630355196E+03  0.13232755111E+03  0.00000000000E+00 0. -1.
         21    1    1    2  504  505  0.43845622245E+02 -0.88800451160E+02 -0.67655546121E+03  0.68376549402E+03  0.00000000000E+00 0. -1.
         21    1    1    2  505  501  0.24319543426E+02  0.62946999035E+02  0.16165754554E+03  0.17517684467E+03  0.00000000000E+00 0.  1.
         21    1    1    2  506  503 -0.38993238518E+02  0.52442777254E+02  0.67451247531E+02  0.93916922489E+02  0.00000000000E+00 0.  1.
<scales pt_clust_3="39.47143" pt_clust_4="14000.00000" pt_clust_5="112.99703" pt_clust_6="65.28065"></scales>
<clustering>
<clus scale="   39.471">  2  3  1 -1</clus>
<clus scale="   65.281">  1  6  2 -1</clus>
<clus scale="  112.997">  1  5  2 -1</clus>
<clus scale="   65.281">  1  3  2 -1</clus>
</clustering>
</event>
<event>
 6    0  0.2036847E+002  0.1213077E+03  0.7546771E-02  0.1240955E+00
         21   -1    0    0  505  501  0.00000000000E+00  0.00000000000E+00  0.66812429751E+02  0.66812429751E+02  0.00000000000E+00 0. -1.
         21   -1    0    0  504  502 -0.00000000000E+00 -0.00000000000E+00 -0.19960390970E+04  0.19960390970E+04  0.00000000000E+00 0.  1.
         21    1    1    2  503  502 -0.10461540563E+03  0.10274860902E+03 -0.13211387608E+04  0.13292514002E+04  0.00000000000E+00 0.  1.
         21    1    1    2  504  506 -0.46132392931E+01 -0.47539251062E+02 -0.57443956479E+03  0.57642178651E+03  0.00000000000E+00 0.  1.
         21    1    1    2  505  503  0.25886758300E+02 -0.21846929643E+02 -0.55284233286E+02  0.64836402122E+02  0.00000000000E+00 0.  1.
         21    1    1    2  506  501  0.83341886619E+02 -0.33362428316E+02  0.21635891610E+02  0.92341937894E+02  0.00000000000E+00 0. -1.
<scales pt_clust_3="121.30767" pt_clust_4="48.07208" pt_clust_5="33.87348" pt_clust_6="14000.00000"></scales>
<clustering>
<clus scale="   33.873">  1  5  2 -1</clus>
<clus scale="   48.072">  2  4  1 -1</clus>
<clus scale="  121.308">  2  3  1 -1</clus>
<clus scale="   33.873">  1  3  2 -1</clus>
</clustering>
</event>
<event>
 6    0  0.2036847E+002  0.6554494E+02  0.7546771E-02  0.1375933E+00
         21   -1    0    0  505  501  0.00000000000E+00  0.00000000000E+00  0.11738505996E+04  0.11738505996E+04  0.00000000000E+00 0.  1.
         21   -1    0    0  504  502 -0.00000000000E+00 -0.00000000000E+00 -0.50043964184E+03  0.50043964184E+03  0.00000000000E+00 0. -1.
         21    1    1    2  503  506 -0.26028492970E+02 -0.67904247746E+02  0.72028646619E+01  0.73077702260E+02  0.00000000000E+00 0.  1.
         21    1    1    2  504  501  0.18107875865E+02  0.54503298083E+02  0.65589485756E+03  0.65840456321E+03  0.00000000000E+00 0.  1.
         21    1    1    2  505  503  0.50726827449E+02 -0.36061859651E+02  0.47221419120E+03  0.47629813259E+03  0.00000000000E+00 0.  1.
         21    1    1    2  506  502 -0.42806210344E+02  0.49462809314E+02 -0.46190095566E+03  0.46650984340E+03  0.00000000000E+00 0. -1.
<scales pt_clust_3="64.71126" pt_clust_4="57.43261" pt_clust_5="14000.00000" pt_clust_6="65.54494"></scales>
<clustering>
<clus scale="   57.433">  1  4  2 -1</clus>
<clus scale="   65.545">  2  6  1 -1</clus>
<clus scale="   64.711">  2  3  1 -1</clus>
<clus scale="   57.433">  1  3  2 -1</clus>
</clustering>
</event>
<event>
 6    0  0.2036847E+002  0.1109029E+03  0.7546771E-02  0.1258907E+00
         21   -1    0    0  504  501  0.00000000000E+00  0.00000000000E+00  0.14249196161E+03  0.14249196161E+03  0.00000000000E+00 0.  1.
         21   -1    0    0  506  502 -0.00000000000E+00 -0.00000000000E+00 -0.60045540077E+03  0.60045540077E+03  0.00000000000E+00 0.  1.
         21    1    1    2  503  501  0.86359160899E+02  0.53478720486E+01 -0.84946236170E+02  0.12125331932E+03  0.00000000000E+00 0. -1.
         21    1    1    2  504  505 -0.10226837209E+03  0.67858769823E+02  0.89263493986E+02  0.15176166818E+03  0.00000000000E+00 0.  1.
         21    1    1    2  505  502  0.37554291641E+00 -0.32827762484E+02 -0.10424852074E+03  0.10929573230E+03  0.00000000000E+00 0.  1.
         21    1    1    2  506  503  0.15533668270E+02 -0.40378879388E+02 -0.35803217623E+03  0.36063664258E+03  0.00000000000E+00 0.  1.
<scales pt_clust_3="14000.00000" pt_clust_4="110.90287" pt_clust_5="32.82991" pt_clust_6="66.18825"></scales>
<clustering>
<clus scale="   32.830">  2  5  1 -1</clus>
<clus scale="   66.188">  2  6  1 -1</clus>
<clus scale="  110.903">  1  4  2 -1</clus>
<clus scale="  110.903">  1  3  2 -1</clus>
</clustering>
</event>
<event>
 6    0  0.2036847E+002  0.1606894E+03  0.7546771E-02  0.1187921E+00
         21   -1    0    0  506  501  0.00000000000E+00  0.00000000000E+00  0.10195585261E+03  0.10195585261E+03  0.00000000000E+00 0. -1.
         21   -1    0    0  503  502 -0.00000000000E+00 -0.00000000000E+00 -0.25247094053E+03  0.25247094053E+03  0.00000000000E+00 0. -1.
         21    1    1    2  503  504 -0.12735708385E+02 -0.99371917006E+02 -0.75102411001E+02  0.12520921809E+03  0.00000000000E+00 0. -1.
         21    1    1    2  504  501 -0.48466220868E+02 -0.33536850309E+02 -0.24373412692E+02  0.63778978827E+02  0.00000000000E+00 0. -1.
         21    1    1    2  505  502  0.58440510599E+02  0.57802607471E+02 -0.25547051764E+02  0.86076051044E+02  0.00000000000E+00 0. -1.
         21    1    1    2  506  505  0.27614186541E+01  0.75106159845E+02 -0.25492212464E+02  0.79362545170E+02  0.00000000000E+00 0.  1.
<scales pt_clust_3="50.93896" pt_clust_4="50.93896" pt_clust_5="157.36875" pt_clust_6="55.38209"></scales>
<clustering>
<clus scale="   50.939">  3  4 -1 -1</clus>
<clus scale="   55.382">  5  6 -1 -1</clus>
<clus scale="  157.369">  1  5  2 -1</clus>
<clus scale="  157.369">  1  3  2 -1</clus>
</clustering>
</event>
<event>
 6    0  0.2036847E+002  0.1173208E+03  0.7546771E-02  0.1247583E+00
         21   -1    0    0  503  501  0.00000000000E+00  0.00000000000E+00  0.24293692520E+03  0.24293692520E+03  0.00000000000E+00 0.  1.
         21   -1    0    0  504  502 -0.00000000000E+00 -0.00000000000E+00 -0.29480927459E+03  0.29480927459E+03  0.00000000000E+00 0.  1.
         21    1    1    2  503  506  0.32991885757E+02 -0.13006356786E+02  0.18963263041E+02  0.40214862772E+02  0.00000000000E+00 0.  1.
         21    1    1    2  504  501 -0.13749016569E+03 -0.59432570405E+02  0.16247135175E+03  0.22098125764E+03  0.00000000000E+00 0.  1.
         21    1    1    2  505  502  0.39562963979E+02  0.25385005262E+02 -0.16385414160E+03  0.17046350440E+03  0.00000000000E+00 0.  1.
         21    1    1    2  506  505  0.64935315957E+02  0.47053921930E+02 -0.69452822579E+02  0.10608657498E+03  0.00000000000E+00 0.  1.
<scales pt_clust_3="35.46308" pt_clust_4="117.32084" pt_clust_5="47.33007" pt_clust_6="14000.00000"></scales>
<clustering>
<clus scale="   35.463">  1  3  2 -1</clus>
<clus scale="   47.330">  2  5  1 -1</clus>
<clus scale="  117.321">  1  4  2 -1</clus>
<clus scale="   35.463">  1  3  2 -1</clus>
</clustering>
</event>
<event>
 6    0  0.2036847E+002  0.1973699E+03  0.7546771E-02  0.1151977E+00
         21   -1    0    0  504  501  0.00000000000E+00  0.00000000000E+00  0.24480446411E+04  0.24480446411E+04  0.00000000000E+00 0.  1.
         21   -1    0    0  503  502 -0.00000000000E+00 -0.00000000000E+00 -0.32119222149E+03  0.32119222149E+03  0.00000000000E+00 0. -1.
         21    1    1    2  503  506  0.46130789406E+02 -0.28125592424E+02 -0.18552515680E+03  0.19323219837E+03  0.00000000000E+00 0. -1.
         21    1    1    2  504  505  0.62015356824E+02 -0.17842938167E+03  0.17598418568E+04  0.17699509343E+04  0.00000000000E+00 0.  1.
         21    1    1    2  505  502 -0.14479610604E+03  0.19453594293E+03  0.65399542223E+03  0.69750996962E+03  0.00000000000E+00 0.  1.
         21    1    1    2  506  501  0.36649959808E+02  0.12019031163E+02 -0.10145970260E+03  0.10854376037E+03  0.00000000000E+00 0. -1.
<scales pt_clust_3="93.31891" pt_clust_4="14000.00000" pt_clust_5="197.36987" pt_clust_6="33.75814"></scales>
<clustering>
<clus scale="   33.758">  3  6 -1 -1</clus>
<clus scale="   93.319">  2  3  1 -1</clus>
<clus scale="  197.370">  2  5  1 -1</clus>
<clus scale="  197.370">  1  3  2 -1</clus>
</clustering>
</event>
<event>
 6    0  0.2036847E+002  0.1784607E+03  0.7546771E-02  0.1169301E+00
         21   -1    0    0  504  501  0.00000000000E+00  0.00000000000E+00  0.62286692152E+03  0.62286692152E+03  0.00000000000E+00 0.  1.
         21   -1    0    0  506  502 -0.00000000000E+00 -0.00000000000E+00 -0.54196383696E+03  0.54196383696E+03  0.00000000000E+00 0. -1.
         21    1    1    2  503  502 -0.31315750806E+02 -0.22860275648E+03 -0.43615234053E+03  0.49342553711E+03  0.00000000000E+00 0. -1.
         21    1    1    2  504  505 -0.16109772956E+02  0.67339369893E+02  0.19075090563E+03  0.20292861681E+03  0.00000000000E+00 0.  1.
         21    1    1    2  505  503  0.19584878283E+02  0.10470523384E+03  0.37435341522E+03  0.38921360837E+03  0.00000000000E+00 0.  1.
         21    1    1    2  506  501  0.27840645479E+02  0.56558152746E+02 -0.48048895765E+02  0.79262996202E+02  0.00000000000E+00 0. -1.
<scales pt_clust_3="173.69547" pt_clust_4="33.02692" pt_clust_5="33.02692" pt_clust_6="63.03908"></scales>
<clustering>
<clus scale="   33.027">  4  5 -1 -1</clus>
<clus scale="   63.039">  2  6  1 -1</clus>
<clus scale="  173.695">  2  3  1 -1</clus>
<clus scale="  178.461">  1  3  2 -1</clus>
</clustering>
</event>
<event>
 6    0  0.2036847E+002  0.9342640E+02  0.7546771E-02  0.1294760E+00
         21   -1    0    0  503  501  0.00000000000E+00  0.00000000000E+00  0.13908643747E+04  0.13908643747E+04  0.00000000000E+00 0. -1.
         21   -1    0    0  504  502 -0.00000000000E+00 -0.00000000000E+00 -0.31598793343E+02  0.31598793343E+02  0.00000000000E+00 0. -1.
         21    1    1    2  503  506 -0.48660692081E+02  0.77714578897E+02  0.10027326565E+04  0.10069161828E+04  0.00000000000E+00 0. -1.
         21    1    1    2  504  501  0.98353770737E+01  0.42860195074E+02  0.15931968309E+03  0.16527701710E+03  0.00000000000E+00 0. -1.
         21    1    1    2  505  502 -0.12819152810E+02 -0.29567802187E+02  0.67070109583E+01  0.32917618397E+02  0.00000000000E+00 0. -1.
         21    1    1    2  506  505  0.51644467817E+02 -0.91006971784E+02  0.19050623080E+03  0.21735234975E+03  0.00000000000E+00 0. -1.
<scales pt_clust_3="93.42640" pt_clust_4="38.88223" pt_clust_5="32.22709" pt_clust_6="14000.00000"></scales>
<clustering>
<clus scale="   32.227">  2  5  1 -1</clus>
<clus scale="   38.882">  2  4  1 -1</clus>
<clus scale="   93.426">  1  3  2 -1</clus>
<clus scale="   93.426">  1  3  2 -1</clus>
</clustering>
</event>
<event>
 6    0  0.2036847E+002  0.1354313E+03  0.7546771E-02  0.1219612E+00
         21   -1    0    0  503  501  0.00000000000E+00  0.00000000000E+00  0.16651428984E+03  0.16651428984E+03  0.00000000000E+00 0. -1.
         21   -1    0    0  504  502 -0.00000000000E+00 -0.00000000000E+00 -0.16048650013E+04  0.16048650013E+04  0.00000000000E+00 0. -1.
         21    1    1    2  503  502 -0.57321883070E+02 -0.16816047088E+03 -0.75626299996E+03  0.77685099431E+03  0.00000000000E+00 0. -1.
         21    1    1    2  504  506  0.39776880627E+02  0.43565935402E+02 -0.67985625490E+03  0.68241095997E+03  0.00000000000E+00 0. -1.
         21    1    1    2  505  501 -0.42772217732E+02  0.12817702666E+03  0.11681230547E+03  0.17861670549E+03  0.00000000000E+00 0. -1.
         21    1    1    2  506  505  0.60317220175E+02 -0.35824911874E+01 -0.11904376209E+03  0.13350063141E+03  0.00000000000E+00 0. -1.
<scales pt_clust_3="14000.00000" pt_clust_4="58.99314" pt_clust_5="135.43134" pt_clust_6="65.79744"></scales>
<clustering>
<clus scale="   58.993">  2  4  1 -1</clus>
<clus scale="   65.797">  2  6  1 -1</clus>
<clus scale="  135.431">  1  5  2 -1</clus>
<clus scale="  135.431">  1  3  2 -1</clus>
</clustering>
</event>
<event>
 6    0  0.2036847E+002  0.1528750E+03  0.7546771E-02  0.1196984E+00
         21   -1    0    0  506  501  0.00000000000E+00  0.00000000000E+00  0.45500241549E+02  0.45500241549E+02  0.00000000000E+00 0. -1.
         21   -1    0    0  503  502 -0.00000000000E+00 -0.00000000000E+00 -0.12890283798E+04  0.12890283798E+04  0.00000000000E+00 0. -1.
         21    1    1    2  503  505  0.80622092736E+02  0.37609875463E+02 -0.84501194968E+03  0.84968206976E+03  0.00000000000E+00 0. -1.
         21    1    1    2  504  502 -0.95480980217E+02 -0.17909301701E+02 -0.10026820566E+03  0.13961043563E+03  0.00000000000E+00 0. -1.
         21    1    1    2  505  501  0.54710935044E+02  0.48991856425E+00 -0.29545043183E+03  0.30047376608E+03  0.00000000000E+00 0.  1.
         21    1    1    2  506  504 -0.39852047563E+02 -0.20190492326E+02 -0.27975510881E+01  0.44762349887E+02  0.00000000000E+00 0. -1.
<scales pt_clust_3="149.01008" pt_clust_4="40.71181" pt_clust_5="38.71708" pt_clust_6="40.71181"></scales>
<clustering>
<clus scale="   38.717">  3  5 -1 -1</clus>
<clus scale="   40.712">  4  6 -1 -1</clus>
<clus scale="  149.010">  2  3  1 -1</clus>
<clus scale="  152.875">  1  3  2 -1</clus>
</clustering>
</event>
<event>
 6    0  0.2036847E+002  0.1092210E+03  0.7546771E-02  0.1262019E+00
         21   -1    0    0  503  501  0.00000000000E+00  0.00000000000E+00  0.20282979269E+03  0.20282979269E+03  0.00000000000E+00 0. -1.
         21   -1    0    0  501  502 -0.00000000000E+00 -0.00000000000E+00 -0.22787554155E+03  0.22787554155E+03  0.00000000000E+00 0.  1.
         21    1    1    2  503  504  0.11018188213E+00  0.36515740811E+02  0.46388203937E+02  0.59036234057E+02  0.00000000000E+00 0. -1.
         21    1    1    2  504  505 -0.38078658086E+02  0.11292256185E+02  0.81990958071E+02  0.91104426109E+02  0.00000000000E+00 0. -1.
         21    1    1    2  505  506 -0.83306719109E+02 -0.10507875114E+02 -0.33394251895E+01  0.84033187781E+02  0.00000000000E+00 0.  1.
         21    1    1    2  506  502  0.12127519531E+03 -0.37300121882E+02 -0.15008548568E+03  0.19653148629E+03  0.00000000000E+00 0.  1.
<scales pt_clust_3="36.51591" pt_clust_4="49.91327" pt_clust_5="109.22095" pt_clust_6="14000.00000"></scales>
<clustering>
<clus scale="   36.516">  1  3  2 -1</clus>
<clus scale="   49.913">  1  4  2 -1</clus>
<clus scale="  109.221">  1  5  2 -1</clus>
<clus scale="   36.516">  1  3  2 -1</clus>
</clustering>
</event>
<event>
 6    0  0.2036847E+002  0.1448027E+03  0.7546771E-02  0.1207009E+00
         21   -1    0    0  505  501  0.00000000000E+00  0.00000000000E+00  0.23991468222E+03  0.23991468222E+03  0.00000000000E+00 0. -1.
         21   -1    0    0  506  502 -0.00000000000E+00 -0.00000000000E+00 -0.70047402120E+03  0.70047402120E+03  0.00000000000E+00 0. -1.
         21    1    1    2  503  504  0.27081434984E+02 -0.80016122926E+02  0.93860039484E+02  0.12627624900E+03  0.00000000000E+00 0. -1.
         21    1    1    2  504  502 -0.10008372341E+03  0.86692414065E+02 -0.19580542480E+03  0.23637277916E+03  0.00000000000E+00 0. -1.
         21    1    1    2  505  503  0.47780518343E+02 -0.34851888019E+02  0.10074804202E+03  0.11682379896E+03  0.00000000000E+00 0. -1.
         21    1    1    2  506  501  0.25221770079E+02  0.28175596879E+02 -0.45936199569E+03  0.46091587630E+03  0.00000000000E+00 0. -1.
<scales pt_clust_3="41.56626" pt_clust_4="136.16709" pt_clust_5="41.56626" pt_clust_6="37.81537"></scales>
<clustering>
<clus scale="   37.815">  2  6  1 -1</clus>
<clus scale="   41.566">  3  5 -1 -1</clus>
<clus scale="  136.167">  2  4  1 -1</clus>
<clus scale="  144.803">  1  3  2 -1</clus>
</clustering>
</event>
<event>
 6    0  0.2036847E+002  0.1487256E+03  0.7546771E-02  0.1202048E+00
         21   -1    0    0  504  501  0.00000000000E+00  0.00000000000E+00  0.16951644903E+03  0.16951644903E+03  0.00000000000E+00 0. -1.
         21   -1    0    0  503  502 -0.00000000000E+00 -0.00000000000E+00 -0.13953056904E+03  0.13953056904E+03  0.00000000000E+00 0. -1.
         21    1    1    2  503  506 -0.10300646788E+03  0.15818347512E+02  0.20759510742E+02  0.10626151622E+03  0.00000000000E+00 0. -1.
         21    1    1    2  504  505  0.74891507364E+02 -0.46102595121E+00  0.88094640927E+01  0.75409263873E+02  0.00000000000E+00 0. -1.
         21    1    1    2  505  502  0.62053177058E+02 -0.75975645834E-01 -0.38898544591E+02  0.73237280989E+02  0.00000000000E+00 0. -1.
         21    1    1    2  506  501 -0.33938216547E+02 -0.15281345914E+02  0.39315449753E+02  0.54138956996E+02  0.00000000000E+00 0.  1.
<scales pt_clust_3="34.66798" pt_clust_4="145.56937" pt_clust_5="44.92911" pt_clust_6="34.66798"></scales>
<clustering>
<clus scale="   34.668">  3  6 -1 -1</clus>
<clus scale="   44.929">  4  5 -1 -1</clus>
<clus scale="  145.569">  2  4  1 -1</clus>
<clus scale="  148.726">  1  3  2 -1</clus>
</clustering>
</event>
<event>
 6    0  0.2036847E+002  0.9330985E+02  0.7546771E-02  0.1295029E+00
         21   -1    0    0  503  501  0.00000000000E+00  0.00000000000E+00  0.29897220237E+04  0.29897220237E+04  0.00000000000E+00 0. -1.
         21   -1    0    0  504  502 -0.00000000000E+00 -0.00000000000E+00 -0.87659324513E+01  0.87659324513E+01  0.00000000000E+00 0. -1.
         21    1    1    2  503  502  0.31453922999E+02  0.44356668721E+02  0.83599650938E+03  0.83776310913E+03  0.00000000000E+00 0. -1.
         21    1    1    2  504  505 -0.19923672858E+02  0.28359806197E+02  0.20792150596E+03  0.21079037926E+03  0.00000000000E+00 0. -1.
         21    1    1    2  505  506 -0.68709921009E+01  0.46440210884E+02  0.11805487082E+03  0.12704666955E+03  0.00000000000E+00 0. -1.
         21    1    1    2  506  501 -0.46592580401E+01 -0.11915668580E+03  0.18189832051E+04  0.18228877982E+04  0.00000000000E+00 0. -1.
<scales pt_clust_3="54.37705" pt_clust_4="33.93980" pt_clust_5="33.93980" pt_clust_6="84.53669"></scales>
<clustering>
<clus scale="   33.940">  4  5 -1 -1</clus>
<clus scale="   54.377">  1  3  2 -1</clus>
<clus scale="   84.537">  1  6  2 -1</clus>
<clus scale="   54.377">  1  3  2 -1</clus>
</clustering>
</event>
<event>
 6    0  0.2036847E+002  0.1523765E+03  0.7546771E-02  0.1197583E+00
         21   -1    0    0  505  501  0.00000000000E+00  0.00000000000E+00  0.65528364501E+03  0.65528364501E+03  0.00000000000E+00 0.  1.
         21   -1    0    0  506  502 -0.00000000000E+00 -0.00000000000E+00 -0.65373105331E+02  0.65373105331E+02  0.00000000000E+00 0.  1.
         21    1    1    2  503  504 -0.14430300800E+03  0.61836799996E+02  0.19666056243E+03  0.25163967248E+03  0.00000000000E+00 0.  1.
         21    1    1    2  504  501 -0.40436785932E+01 -0.56643443658E+02  0.13876261397E+03  0.14993296529E+03  0.00000000000E+00 0.  1.
         21    1    1    2  505  502  0.13981146924E+03 -0.47290282741E+02  0.21468158877E+03  0.26052217243E+03  0.00000000000E+00 0.  1.
         21    1    1    2  506  503  0.85352173572E+01  0.42096926403E+02  0.39805774520E+02  0.58561940140E+02  0.00000000000E+00 0. -1.
<scales pt_clust_3="14000.00000" pt_clust_4="52.54159" pt_clust_5="152.37650" pt_clust_6="42.95348"></scales>
<clustering>
<clus scale="   42.953">  2  6  1 -1</clus>
<clus scale="   52.542">  1  4  2 -1</clus>
<clus scale="  152.376">  2  5  1 -1</clus>
<clus scale="   52.542">  1  3  2 -1</clus>
</clustering>
</event>
<event>
 6    0  0.2036847E+002  0.1475387E+03  0.7546771E-02  0.1203530E+00
         21   -1    0    0  505  501  0.00000000000E+00  0.00000000000E+00  0.14868350780E+04  0.14868350780E+04  0.00000000000E+00 0.  1.
         21   -1    0    0  504  502 -0.00000000000E+00 -0.00000000000E+00 -0.60518701900E+02  0.60518701900E+02  0.00000000000E+00 0.  1.
         21    1    1    2  503  501  0.45196602684E+02 -0.26805449034E+02  0.72190638487E+03  0.72381633963E+03  0.00000000000E+00 0.  1.
         21    1    1    2  504  506  0.21515370834E+02 -0.13479534576E+03  0.15571677033E+03  0.20707585321E+03  0.00000000000E+00 0.  1.
         21    1    1    2  505  502 -0.12569936247E+03  0.13108503175E+03  0.24148499913E+03  0.30215661515E+03  0.00000000000E+00 0.  1.
         21    1    1    2  506  503  0.58987388948E+02  0.30515763042E+02  0.30720822178E+03  0.31430497192E+03  0.00000000000E+00 0. -1.
<scales pt_clust_3="52.54774" pt_clust_4="14000.00000" pt_clust_5="147.53870" pt_clust_6="79.81870"></scales>
<clustering>
<clus scale="   52.548">  1  3  2 -1</clus>
<clus scale="   79.819">  1  6  2 -1</clus>
<clus scale="  147.539">  1  5  2 -1</clus>
<clus scale="   52.548">  1  3  2 -1</clus>
</clustering>
</event>
<event>
 6    0  0.2036847E+002  0.7104216E+02  0.7546771E-02  0.1356585E+00
         21   -1    0    0  503  501  0.00000000000E+00  0.00000000000E+00  0.43957510292E+03  0.43957510292E+03  0.00000000000E+00 0. -1.
         21   -1    0    0  506  502 -0.00000000000E+00 -0.00000000000E+00 -0.17093307937E+04  0.17093307937E+04  0.00000000000E+00 0. -1.
         21    1    1    2  503  505  0.16821415679E+01 -0.88971139853E+02  0.10004954913E+03  0.13389774310E+03  0.00000000000E+00 0. -1.
         21    1    1    2  504  501  0.46274702032E+02  0.53890759274E+02  0.31727256256E+03  0.32512680747E+03  0.00000000000E+00 0. -1.
         21    1    1    2  505  502 -0.43180644590E+02 -0.10393898592E+02 -0.11511638452E+04  0.11520203122E+04  0.00000000000E+00 0. -1.
         21    1    1    2  506  504 -0.47761990097E+01  0.45474279171E+02 -0.53591395730E+03  0.53786103389E+03  0.00000000000E+00 0. -1.
<scales pt_clust_3="14000.00000" pt_clust_4="71.04216" pt_clust_5="44.41398" pt_clust_6="58.35817"></scales>
<clustering>
<clus scale="   44.414">  2  5  1 -1</clus>
<clus scale="   58.358">  2  6  1 -1</clus>
<clus scale="   71.042">  1  4  2 -1</clus>
<clus scale="   71.042">  1  3  2 -1</clus>
</clustering>
</event>
<event>
 6    0  0.2036847E+002  0.1305801E+03  0.7546771E-02  0.1226598E+00
         21   -1    0    0  504  501  0.00000000000E+00  0.00000000000E+00  0.62254558593E+02  0.62254558593E+02  0.00000000000E+00 0. -1.
         21   -1    0    0  505  502 -0.00000000000E+00 -0.00000000000E+00 -0.32740819710E+03  0.32740819710E+03  0.00000000000E+00 0. -1.
         21    1    1    2  503  501  0.25786714514E+01 -0.12324576140E+03 -0.95936400775E+02  0.15620486626E+03  0.00000000000E+00 0. -1.
         21    1    1    2  504  506  0.26277114340E+02  0.26942713839E+02 -0.19923191186E+02  0.42583213995E+02  0.00000000000E+00 0. -1.
         21    1    1    2  505  503 -0.29795003840E+02  0.86266761726E+01 -0.44369801368E+02  0.54137242902E+02  0.00000000000E+00 0. -1.
         21    1    1    2  506  502  0.93921804876E+00  0.87676371388E+02 -0.10492424517E+03  0.13673743253E+03  0.00000000000E+00 0. -1.
<scales pt_clust_3="119.83491" pt_clust_4="32.46685" pt_clust_5="31.01873" pt_clust_6="32.46685"></scales>
<clustering>
<clus scale="   31.019">  2  5  1 -1</clus>
<clus scale="   32.467">  4  6 -1 -1</clus>
<clus scale="  119.835">  1  3  2 -1</clus>
<clus scale="  119.835">  1  3  2 -1</clus>
</clustering>
</event>
<event>
 6    0  0.2036847E+002  0.7233927E+02  0.7546771E-02  0.1352314E+00
         21   -1    0    0  505  501  0.00000000000E+00  0.00000000000E+00  0.31968075857E+03  0.31968075857E+03  0.00000000000E+00 0.  1.
         21   -1    0    0  506  502 -0.00000000000E+00 -0.00000000000E+00 -0.65171050129E+02  0.65171050129E+02  0.00000000000E+00 0.  1.
         21    1    1    2  503  501  0.46963209538E+02  0.90008765922E+01  0.11378235807E+03  0.12342197469E+03  0.00000000000E+00 0.  1.
         21    1    1    2  504  503 -0.41796212461E+02  0.74524343621E+02  0.10386789183E+03  0.13449661751E+03  0.00000000000E+00 0.  1.
         21    1    1    2  505  502 -0.43211593950E+02 -0.26980678369E+02  0.28216568124E+02  0.58235500974E+02  0.00000000000E+00 0.  1.
         21    1    1    2  506  504  0.38044596873E+02 -0.56544541844E+02  0.86428904207E+01  0.68697715526E+02  0.00000000000E+00 0.  1.
<scales pt_clust_3="47.81798" pt_clust_4="72.33927" pt_clust_5="41.52049" pt_clust_6="14000.00000"></scales>
<clustering>
<clus scale="   47.818">  1  3  2 -1</clus>
<clus scale="   41.520">  1  5  2 -1</clus>
<clus scale="   72.339">  1  4  2 -1</clus>
<clus scale="   47.818">  1  3  2 -1</clus>
</clustering>
</event>
<event>
 6    0  0.2036847E+002  0.1897374E+03  0.7546771E-02  0.1158698E+00
         21   -1    0    0  503  501  0.00000000000E+00  0.00000000000E+00  0.27068325507E+03  0.27068325507E+03  0.00000000000E+00 0.  1.
         21   -1    0    0  505  502 -0.00000000000E+00 -0.00000000000E+00 -0.28330539201E+03  0.28330539201E+03  0.00000000000E+00 0.  1.
         21    1    1    2  503  502  0.15183752632E+03 -0.69661605499E+02 -0.19484553527E+03  0.25665571549E+03  0.00000000000E+00 0.  1.
         21    1    1    2  504  501 -0.85990325951E+02  0.53385530980E+02  0.67446061367E+02  0.12162780221E+03  0.00000000000E+00 0.  1.
         21    1    1    2  505  506  0.71104876315E+01 -0.29805431242E+02 -0.17657091177E+01  0.30692678191E+02  0.00000000000E+00 0.  1.
         21    1    1    2  506  504 -0.72957688004E+02  0.46081505760E+02  0.11654304608E+03  0.14501245119E+03  0.00000000000E+00 0.  1.
<scales pt_clust_3="184.15597" pt_clust_4="42.35510" pt_clust_5="30.64185" pt_clust_6="42.35510"></scales>
<clustering>
<clus scale="   30.642">  2  5  1 -1</clus>
<clus scale="   42.355">  4  6 -1 -1</clus>
<clus scale="  184.156">  2  3  1 -1</clus>
<clus scale="  189.737">  1  3  2 -1</clus>
</clustering>
</event>
<event>
 6    0  0.2036847E+002  0.1342439E+03  0.7546771E-02  0.1221291E+00
         21   -1    0    0  504  501  0.00000000000E+00  0.00000000000E+00  0.10813511483E+03  0.10813511483E+03  0.00000000000E+00 0.  1.
         21   -1    0    0  506  502 -0.00000000000E+00 -0.00000000000E+00 -0.78875632849E+03  0.78875632849E+03  0.00000000000E+00 0.  1.
         21    1    1    2  503  505 -0.12270308397E+03 -0.57270485187E+02 -0.48787499579E+03  0.50631804906E+03  0.00000000000E+00 0.  1.
         21    1    1    2  504  502  0.50528335295E+02  0.19648576941E+02  0.44831686709E+02  0.70349551361E+02  0.00000000000E+00 0.  1.
         21    1    1    2  505  501  0.96421173142E+02  0.85376523580E+01 -0.19322470278E+02  0.98708115145E+02  0.00000000000E+00 0.  1.
         21    1    1    2  506  503 -0.24246424469E+02  0.29084255887E+02 -0.21825543430E+03  0.22151572776E+03  0.00000000000E+00 0. -1.
<scales pt_clust_3="134.24394" pt_clust_4="53.94978" pt_clust_5="14000.00000" pt_clust_6="37.86533"></scales>
<clustering>
<clus scale="   37.865">  2  6  1 -1</clus>
<clus scale="   53.950">  1  4  2 -1</clus>
<clus scale="  134.244">  2  3  1 -1</clus>
<clus scale="   53.950">  1  3  2 -1</clus>
</clustering>
</event>
<event>
 6    0  0.2036847E+002  0.8323917E+02  0.7546771E-02  0.1320103E+00
         21   -1    0    0  506  501  0.00000000000E+00  0.00000000000E+00  0.83115447814E+03  0.83115447814E+03  0.00000000000E+00 0.  1.
         21   -1    0    0  503  502 -0.00000000000E+00 -0.00000000000E+00 -0.94330817860E+02  0.94330817860E+02  0.00000000000E+00 0.  1.
         21    1    1    2  503  501 -0.28361617256E+01 -0.69551379211E+02 -0.58805757829E+02  0.91123846041E+02  0.00000000000E+00 0.  1.
         21    1    1    2  504  502 -0.64229808624E+01  0.44460926926E+02  0.45831680967E+02  0.64176099029E+02  0.00000000000E+00 0. -1.
         21    1    1    2  505  504  0.81786374983E+02 -0.18180118593E+02  0.26017603417E+03  0.27333330679E+03  0.00000000000E+00 0.  1.
         21    1    1    2  506  505 -0.72527232395E+02  0.43270570878E+02  0.48962170297E+03  0.49685204414E+03  0.00000000000E+00 0.  1.
<scales pt_clust_3="31.57548" pt_clust_4="44.92247" pt_clust_5="83.23917" pt_clust_6="14000.00000"></scales>
<clustering>
<clus scale="   44.922">  2  4  1 -1</clus>
<clus scale="   31.575">  2  3  1 -1</clus>
<clus scale="   83.239">  2  5  1 -1</clus>
<clus scale="   83.239">  1  3  2 -1</clus>
</clustering>
</event>
<event>
 6    0  0.2036847E+002  0.1311753E+03  0.7546771E-02  0.1225722E+00
         21   -1    0    0  505  501  0.00000000000E+00  0.00000000000E+00  0.61081450395E+02  0.61081450395E+02  0.00000000000E+00 0. -1.
         21   -1    0    0  504  502 -0.00000000000E+00 -0.00000000000E+00 -0.28966038867E+03  0.28966038867E+03  0.00000000000E+00 0. -1.
         21    1    1    2  503  501  0.13415207909E+02 -0.47726835558E+02 -0.25837018693E+02  0.55905010246E+02  0.00000000000E+00 0.  1.
         21    1    1    2  504  503  0.14939255517E+02 -0.71312125966E+02 -0.11873653091E+03  0.13930888141E+03  0.00000000000E+00 0. -1.
         21    1    1    2  505  506 -0.38395415118E+02  0.72796213724E+02 -0.42714788130E+02  0.92725669367E+02  0.00000000000E+00 0. -1.
         21    1    1    2  506  502  0.10040951692E+02  0.46242747800E+02 -0.41290600539E+02  0.62802278046E+02  0.00000000000E+00 0. -1.
<scales pt_clust_3="38.97695" pt_clust_4="38.97695" pt_clust_5="130.88941" pt_clust_6="35.22288"></scales>
<clustering>
<clus scale="   35.223">  5  6 -1 -1</clus>
<clus scale="   38.977">  3  4 -1 -1</clus>
<clus scale="  130.889">  1  5  2 -1</clus>
<clus scale="  130.889">  1  3  2 -1</clus>
</clustering>
</event>
<event>
 6    0  0.2036847E+002  0.1285755E+03  0.7546771E-02  0.1229585E+00
         21   -1    0    0  503  501  0.00000000000E+00  0.00000000000E+00  0.23454093436E+03  0.23454093436E+03  0.00000000000E+00 0.  1.
         21   -1    0    0  506  502 -0.00000000000E+00 -0.00000000000E+00 -0.34254391458E+03  0.34254391458E+03  0.00000000000E+00 0.  1.
         21    1    1    2  503  504 -0.48529107708E+02  0.29746539815E+01  0.12352878262E+02  0.50164892730E+02  0.00000000000E+00 0. -1.
         21    1    1    2  504  502 -0.38970065519E+02 -0.14664103676E+03 -0.24908227284E+03  0.29165774174E+03  0.00000000000E+00 0.  1.
         21    1    1    2  505  501  0.64088307930E+02  0.12034695977E+03  0.14447760910E+03  0.19865669249E+03  0.00000000000E+00 0.  1.
         21    1    1    2  506  505  0.23410865297E+02  0.23319423007E+02 -0.15751194740E+02  0.36605521975E+02  0.00000000000E+00 0.  1.
<scales pt_clust_3="47.33207" pt_clust_4="128.57546" pt_clust_5="14000.00000" pt_clust_6="33.04337"></scales>
<clustering>
<clus scale="   33.043">  2  6  1 -1</clus>
<clus scale="   47.332">  1  3  2 -1</clus>
<clus scale="  128.575">  2  4  1 -1</clus>
<clus scale="   47.332">  1  3  2 -1</clus>
</clustering>
</event>
<event>
 6    0  0.2036847E+002  0.1215241E+03  0.7546771E-02  0.1240604E+00
         21   -1    0    0  505  501  0.00000000000E+00  0.00000000000E+00  0.16636700373E+03  0.16636700373E+03  0.00000000000E+00 0.  1.
         21   -1    0    0  506  502 -0.00000000000E+00 -0.00000000000E+00 -0.13227044690E+03  0.13227044690E+03  0.00000000000E+00 0.  1.
         21    1    1    2  503  501 -0.43629603482E+02 -0.24578749116E+02  0.22798161397E+02  0.55021935364E+02  0.00000000000E+00 0.  1.
         21    1    1    2  504  502  0.23047000725E+02  0.84453950133E+02 -0.58655954804E+01  0.87738470159E+02  0.00000000000E+00 0.  1.
         21    1    1    2  505  504 -0.75707058470E+01  0.43094379896E+02  0.22090194425E+02  0.49014465777E+02  0.00000000000E+00 0.  1.
         21    1    1    2  506  503  0.28153308604E+02 -0.10296958091E+03 -0.49262035146E+01  0.10686257932E+03  0.00000000000E+00 0.  1.
<scales pt_clust_3="50.07651" pt_clust_4="31.05879" pt_clust_5="31.05879" pt_clust_6="113.30524"></scales>
<clustering>
<clus scale="   31.059">  4  5 -1 -1</clus>
<clus scale="   50.077">  1  3  2 -1</clus>
<clus scale="  113.305">  2  6  1 -1</clus>
<clus scale="   50.077">  1  3  2 -1</clus>
</clustering>
</event>
<event>
 6    0  0.2036847E+002  0.2723584E+03  0.7546771E-02  0.1099937E+00
         21   -1    0    0  504  501  0.00000000000E+00  0.00000000000E+00  0.43569595326E+03  0.43569595326E+03  0.00000000000E+00 0.  1.
         21   -1    0    0  501  502 -0.00000000000E+00 -0.00000000000E+00 -0.22274094073E+03  0.22274094073E+03  0.00000000000E+00 0.  1.
         21    1    1    2  503  505 -0.13755214252E+03 -0.11217441122E+02  0.88198629361E+02  0.16378467913E+03  0.00000000000E+00 0.  1.
         21    1    1    2  504  503 -0.12268431509E+03  0.74961868014E+01  0.18398401264E+03  0.22126398463E+03  0.00000000000E+00 0.  1.
         21    1    1    2  505  506  0.82330936901E+02 -0.20540789270E+02 -0.17928010529E+01  0.84873560845E+02  0.00000000000E+00 0.  1.
         21    1    1    2  506  502  0.17790552071E+03  0.24262043591E+02 -0.57434828425E+02  0.18851466939E+03  0.00000000000E+00 0.  1.
<scales pt_clust_3="75.74668" pt_clust_4="75.74668" pt_clust_5="40.64899" pt_clust_6="266.89551"></scales>
<clustering>
<clus scale="   40.649">  5  6 -1 -1</clus>
<clus scale="   75.747">  3  4 -1 -1</clus>
<clus scale="  266.896">  2  5  1 -1</clus>
<clus scale="  272.358">  1  3  2 -1</clus>
</clustering>
</event>
<event>
 6    0  0.2036847E+002  0.1153839E+03  0.7546771E-02  0.1250913E+00
         21   -1    0    0  506  501  0.00000000000E+00  0.00000000000E+00  0.21715474843E+04  0.21715474843E+04  0.00000000000E+00 0. -1.
         21   -1    0    0  503  502 -0.00000000000E+00 -0.00000000000E+00 -0.30663942543E+03  0.30663942543E+03  0.00000000000E+00 0.  1.
         21    1    1    2  503  505  0.14038320627E+03  0.25505566340E+02 -0.25765043031E+03  0.29451947772E+03  0.00000000000E+00 0.  1.
         21    1    1    2  504  502 -0.33109691370E+02 -0.69192870398E+02  0.32200942740E+02  0.83191379902E+02  0.00000000000E+00 0.  1.
         21    1    1    2  505  501  0.24474935231E+01  0.46790975323E+02  0.15305171095E+03  0.16006314948E+03  0.00000000000E+00 0. -1.
         21    1    1    2  506  504 -0.10972100842E+03 -0.31036712646E+01  0.19373058355E+04  0.19404129026E+04  0.00000000000E+00 0. -1.
<scales pt_clust_3="14000.00000" pt_clust_4="75.46957" pt_clust_5="46.85494" pt_clust_6="115.38388"></scales>
<clustering>
<clus scale="   46.855">  1  5  2 -1</clus>
<clus scale="   75.470">  2  4  1 -1</clus>
<clus scale="  115.384">  1  6  2 -1</clus>
<clus scale="   46.855">  1  3  2 -1</clus>
</clustering>
</event>
<event>
 6    0  0.2036847E+002  0.1020294E+03  0.7546771E-02  0.1276085E+00
         21   -1    0    0  505  501  0.00000000000E+00  0.00000000000E+00  0.21111034040E+04  0.21111034040E+04  0.00000000000E+00 0.  1.
         21   -1    0    0  503  502 -0.00000000000E+00 -0.00000000000E+00 -0.12637153746E+03  0.12637153746E+03  0.00000000000E+00 0. -1.
         21    1    1    2  503  504 -0.48118523461E+02  0.39072423468E+02 -0.90890378342E+02  0.11001412387E+03  0.00000000000E+00 0. -1.
         21    1    1    2  504  501 -0.35184401488E+02 -0.38282146122E+02  0.43943400158E+03  0.44249938594E+03  0.00000000000E+00 0.  1.
         21    1    1    2  505  506  0.96689018682E+02 -0.45191255102E+02  0.16350940033E+04  0.16385735918E+04  0.00000000000E+00 0.  1.
         21    1    1    2  506  502 -0.13386093733E+02  0.44400977756E+02  0.10942400060E+01  0.46387839919E+02  0.00000000000E+00 0. -1.
<scales pt_clust_3="102.02936" pt_clust_4="51.64901" pt_clust_5="14000.00000" pt_clust_6="46.37493"></scales>
<clustering>
<clus scale="   46.375">  2  6  1 -1</clus>
<clus scale="   51.649">  1  4  2 -1</clus>
<clus scale="  102.029">  2  3  1 -1</clus>
<clus scale="   51.649">  1  3  2 -1</clus>
</clustering>
</event>
<event>
 6    0  0.2036847E+002  0.1446080E+03  0.7546771E-02  0.1207260E+00
         21   -1    0    0  505  501  0.00000000000E+00  0.00000000000E+00  0.24064043319E+02  0.24064043319E+02  0.00000000000E+00 0.  1.
         21   -1    0    0  503  502 -0.00000000000E+00 -0.00000000000E+00 -0.25670345652E+04  0.25670345652E+04  0.00000000000E+00 0. -1.
         21    1    1    2  503  506 -0.22552677389E+02  0.34935992290E+02 -0.49830773703E+03  0.50003974602E+03  0.00000000000E+00 0. -1.
         21    1    1    2  504  502  0.24853681492E+02 -0.10273534866E+03 -0.26440942717E+03  0.28475358211E+03  0.00000000000E+00 0.  1.
         21    1    1    2  505  504 -0.13951495939E+02 -0.40846827744E+02 -0.29815382246E+02  0.52460123848E+02  0.00000000000E+00 0.  1.
         21    1    1    2  506  501  0.11650491836E+02  0.10864618412E+03 -0.17504379754E+04  0.17538451565E+04  0.00000000000E+00 0. -1.
<scales pt_clust_3="30.25400" pt_clust_4="136.03785" pt_clust_5="43.16373" pt_clust_6="30.25400"></scales>
<clustering>
<clus scale="   30.254">  3  6 -1 -1</clus>
<clus scale="   43.164">  1  5  2 -1</clus>
<clus scale="  136.038">  1  4  2 -1</clus>
<clus scale="   43.164">  1  3  2 -1</clus>
</clustering>
</event>
<event>
 6    0  0.2036847E+002  0.1141151E+03  0.7546771E-02  0.1253134E+00
         21   -1    0    0  506  501  0.00000000000E+00  0.00000000000E+00  0.18894614119E+04  0.18894614119E+04  0.00000000000E+00 0. -1.
         21   -1    0    0  503  502 -0.00000000000E+00 -0.00000000000E+00 -0.43276247901E+02  0.43276247901E+02  0.00000000000E+00 0.  1.
         21    1    1    2  503  505 -0.34033831153E+02  0.13779305513E+02 -0.53164415207E+01  0.37100343311E+02  0.00000000000E+00 0.  1.
         21    1    1    2  504  501 -0.36383365627E+02 -0.77407571514E+02  0.11038069676E+04  0.11071158490E+04  0.00000000000E+00 0. -1.
         21    1    1    2  505  504  0.30368173796E+02  0.10945178082E+03  0.15213475512E+03  0.18986021705E+03  0.00000000000E+00 0.  1.
         21    1    1    2  506  502  0.40049022984E+02 -0.45823514819E+02  0.59555988281E+03  0.59866125043E+03  0.00000000000E+00 0. -1.
<scales pt_clust_3="36.71745" pt_clust_4="14000.00000" pt_clust_5="114.11505" pt_clust_6="58.56690"></scales>
<clustering>
<clus scale="   36.717">  2  3  1 -1</clus>
<clus scale="   58.567">  1  6  2 -1</clus>
<clus scale="  114.115">  2  5  1 -1</clus>
<clus scale="   58.567">  1  3  2 -1</clus>
</clustering>
</event>
<event>
 6    0  0.2036847E+002  0.7515177E+02  0.7546771E-02  0.1343402E+00
         21   -1    0    0  505  501  0.00000000000E+00  0.00000000000E+00  0.27520148245E+02  0.27520148245E+02  0.00000000000E+00 0.  1.
         21   -1    0    0  506  502 -0.00000000000E+00 -0.00000000000E+00 -0.94400356715E+03  0.94400356715E+03  0.00000000000E+00 0.  1.
         21    1    1    2  503  501 -0.69395496042E+02 -0.11086748800E+02 -0.59200201876E+02  0.91887511513E+02  0.00000000000E+00 0.  1.
         21    1    1    2  504  502  0.10519401358E+01  0.30782451382E+02 -0.16457743250E+03  0.16743475499E+03  0.00000000000E+00 0. -1.
         21    1    1    2  505  504  0.11158846069E+03  0.40857000992E+01 -0.54948198678E+03  0.56071305612E+03  0.00000000000E+00 0.  1.
         21    1    1    2  506  503 -0.43244904782E+02 -0.23781402681E+02 -0.14322379774E+03  0.15148839276E+03  0.00000000000E+00 0.  1.
<scales pt_clust_3="75.15177" pt_clust_4="30.80042" pt_clust_5="14000.00000" pt_clust_6="46.63872"></scales>
<clustering>
<clus scale="   30.800">  2  4  1 -1</clus>
<clus scale="   46.639">  2  6  1 -1</clus>
<clus scale="   75.152">  1  3  2 -1</clus>
<clus scale="   75.152">  1  3  2 -1</clus>
</clustering>
</event>
<event>
 6    0  0.2036847E+002  0.1487398E+03  0.7546771E-02  0.1202030E+00
         21   -1    0    0  506  501  0.00000000000E+00  0.00000000000E+00  0.16273998037E+03  0.16273998037E+03  0.00000000000E+00 0.  1.
         21   -1    0    0  504  502 -0.00000000000E+00 -0.00000000000E+00 -0.14385280594E+04  0.14385280594E+04  0.00000000000E+00 0. -1.
         21    1    1    2  503  505 -0.68215754247E+02  0.35278832958E+02 -0.17055298978E+03  0.18704627103E+03  0.00000000000E+00 0. -1.
         21    1    1    2  504  503 -0.49403880773E+02 -0.77559373803E+02 -0.11484277300E+04  0.11521034897E+04  0.00000000000E+00 0. -1.
         21    1    1    2  505  501 -0.30651907677E+02  0.41660571350E+02 -0.61687455831E+02  0.80501458722E+02  0.00000000000E+00 0.  1.
         21    1    1    2  506  502  0.14827154270E+03  0.61996949484E+00  0.10488009665E+03  0.18161682028E+03  0.00000000000E+00 0.  1.
<scales pt_clust_3="36.25474" pt_clust_4="91.95760" pt_clust_5="36.25474" pt_clust_6="142.02763"></scales>
<clustering>
<clus scale="   36.255">  3  5 -1 -1</clus>
<clus scale="   91.958">  2  4  1 -1</clus>
<clus scale="  142.028">  1  6  2 -1</clus>
<clus scale="  142.028">  1  3  2 -1</clus>
</clustering>
</event>
<event>
 6    0  0.2036847E+002  0.1130701E+03  0.7546771E-02  0.1254988E+00
         21   -1    0    0  505  501  0.00000000000E+00  0.00000000000E+00  0.11497668180E+03  0.11497668180E+03  0.00000000000E+00 0.  1.
         21   -1    0    0  501  502 -0.00000000000E+00 -0.00000000000E+00 -0.30042765554E+03  0.30042765554E+03  0.00000000000E+00 0.  1.
         21    1    1    2  503  504 -0.41589725067E+02  0.16730850457E+02 -0.73168266954E+02  0.85809217903E+02  0.00000000000E+00 0.  1.
         21    1    1    2  504  502  0.34228519832E+02 -0.43303862149E+00 -0.94127334551E+02  0.10015854533E+03  0.00000000000E+00 0. -1.
         21    1    1    2  505  506  0.67851838180E+02  0.85664048873E+02  0.13430954097E+01  0.10928863216E+03  0.00000000000E+00 0.  1.
         21    1    1    2  506  503 -0.60490632944E+02 -0.10196186071E+03 -0.19498467643E+02  0.12014794194E+03  0.00000000000E+00 0.  1.
<scales pt_clust_3="32.70843" pt_clust_4="34.23126" pt_clust_5="14000.00000" pt_clust_6="113.07011"></scales>
<clustering>
<clus scale="   34.231">  2  4  1 -1</clus>
<clus scale="   32.708">  2  3  1 -1</clus>
<clus scale="  113.070">  2  6  1 -1</clus>
<clus scale="  113.070">  1  3  2 -1</clus>
</clustering>
</event>
<event>
 6    0  0.2036847E+002  0.3003768E+03  0.7546771E-02  0.1085052E+00
         21   -1    0    0  503  501  0.00000000000E+00  0.00000000000E+00  0.95846142726E+03  0.95846142726E+03  0.00000000000E+00 0. -1.
         21   -1    0    0  501  502 -0.00000000000E+00 -0.00000000000E+00 -0.32042473691E+03  0.32042473691E+03  0.00000000000E+00 0.  1.
         21    1    1    2  503  504  0.14150956122E+03  0.12360472389E+02  0.32936429744E+03  0.35869008576E+03  0.00000000000E+00 0. -1.
         21    1    1    2  504  506  0.12484021151E+03 -0.87821088607E+02  0.53685649133E+03  0.55813306146E+03  0.00000000000E+00 0. -1.
         21    1    1    2  505  502 -0.10860286607E+03  0.38191236815E+02 -0.65681473446E+02  0.13254134842E+03  0.00000000000E+00 0.  1.
         21    1    1    2  506  505 -0.15774690666E+03  0.37269379403E+02 -0.16250262497E+03  0.22952166853E+03  0.00000000000E+00 0.  1.
<scales pt_clust_3="112.45933" pt_clust_4="112.45933" pt_clust_5="41.15844" pt_clust_6="281.10789"></scales>
<clustering>
<clus scale="   41.158">  5  6 -1 -1</clus>
<clus scale="  112.459">  3  4 -1 -1</clus>
<clus scale="  281.108">  2  5  1 -1</clus>
<clus scale="  300.377">  1  3  2 -1</clus>
</clustering>
</event>
<event>
 6    0  0.2036847E+002  0.1375633E+03  0.7546771E-02  0.1216646E+00
         21   -1    0    0  505  501  0.00000000000E+00  0.00000000000E+00  0.21018897492E+03  0.21018897492E+03  0.00000000000E+00 0. -1.
         21   -1    0    0  503  502 -0.00000000000E+00 -0.00000000000E+00 -0.27019315309E+03  0.27019315309E+03  0.00000000000E+00 0.  1.
         21    1    1    2  503  506  0.11664701097E+03 -0.41936999438E+00 -0.19351189586E+03  0.22595033720E+03  0.00000000000E+00 0.  1.
         21    1    1    2  504  502  0.33331393036E+02  0.87824346732E+00 -0.71537633744E+01  0.34101750743E+02  0.00000000000E+00 0.  1.
         21    1    1    2  505  504 -0.10983673442E+03  0.76444077036E+01  0.14159909161E+03  0.17936791225E+03  0.00000000000E+00 0. -1.
         21    1    1    2  506  501 -0.40141669578E+02 -0.81032811765E+01 -0.93761054824E+00  0.40962127824E+02  0.00000000000E+00 0. -1.
<scales pt_clust_3="137.56330" pt_clust_4="33.34296" pt_clust_5="14000.00000" pt_clust_6="38.19715"></scales>
<clustering>
<clus scale="   33.343">  2  4  1 -1</clus>
<clus scale="   38.197">  1  6  2 -1</clus>
<clus scale="  137.563">  2  3  1 -1</clus>
<clus scale="   38.197">  1  3  2 -1</clus>
</clustering>
</event>
<event>
 6    0  0.2036847E+002  0.3174173E+03  0.7546771E-02  0.1076844E+00
         21   -1    0    0  505  501  0.00000000000E+00  0.00000000000E+00  0.22681657796E+03  0.22681657796E+03  0.00000000000E+00 0.  1.
         21   -1    0    0  506  502 -0.00000000000E+00 -0.00000000000E+00 -0.10218780980E+04  0.10218780980E+04  0.00000000000E+00 0.  1.
         21    1    1    2  503  502 -0.10141615327E+03 -0.11077053487E+03 -0.31007153866E+03  0.34452823778E+03  0.00000000000E+00 0.  1.
         21    1    1    2  504  501  0.13502643604E+03  0.27048704715E+03  0.15517077808E+02  0.30271465246E+03  0.00000000000E+00 0.  1.
         21    1    1    2  505  503 -0.11389561233E+03 -0.20190846358E+03 -0.42207342908E+03  0.48154461653E+03  0.00000000000E+00 0.  1.
         21    1    1    2  506  504  0.80285329555E+02  0.42191951298E+02 -0.78433630143E+02  0.11990716923E+03  0.00000000000E+00 0.  1.
<scales pt_clust_3="38.03329" pt_clust_4="313.88052" pt_clust_5="38.03329" pt_clust_6="90.69672"></scales>
<clustering>
<clus scale="   38.033">  3  5 -1 -1</clus>
<clus scale="   90.697">  2  6  1 -1</clus>
<clus scale="  313.881">  1  4  2 -1</clus>
<clus scale="  313.881">  1  3  2 -1</clus>
</clustering>
</event>
<event>
 6    0  0.2036847E+002  0.2010501E+03  0.7546771E-02  0.1148856E+00
         21   -1    0    0  504  501  0.00000000000E+00  0.00000000000E+00  0.29635012168E+03  0.29635012168E+03  0.00000000000E+00 0.  1.
         21   -1    0    0  505  502 -0.00000000000E+00 -0.00000000000E+00 -0.23996775536E+03  0.23996775536E+03  0.00000000000E+00 0. -1.
         21    1    1    2  503  502  0.57080225631E+02  0.19259629520E+02  0.95396277917E+02  0.11282524242E+03  0.00000000000E+00 0.  1.
         21    1    1    2  504  503  0.13507617540E+03 -0.12130274059E+02  0.11034922259E+03  0.17484183606E+03  0.00000000000E+00 0.  1.
         21    1    1    2  505  506 -0.14067458295E+03 -0.31369838468E+01 -0.13513182374E+03  0.19508918151E+03  0.00000000000E+00 0. -1.
         21    1    1    2  506  501 -0.51481818088E+02 -0.39923716140E+01 -0.14231310441E+02  0.53561617055E+02  0.00000000000E+00 0. -1.
<scales pt_clust_3="39.12549" pt_clust_4="39.12549" pt_clust_5="198.79103" pt_clust_6="30.54824"></scales>
<clustering>
<clus scale="   30.548">  5  6 -1 -1</clus>
<clus scale="   39.125">  3  4 -1 -1</clus>
<clus scale="  198.791">  2  5  1 -1</clus>
<clus scale="  201.050">  1  3  2 -1</clus>
</clustering>
</event>
<event>
 6    0  0.2036847E+002  0.1396689E+03  0.7546771E-02  0.1213775E+00
         21   -1    0    0  506  501  0.00000000000E+00  0.00000000000E+00  0.22220190495E+03  0.22220190495E+03  0.00000000000E+00 0.  1.
         21   -1    0    0  505  502 -0.00000000000E+00 -0.00000000000E+00 -0.47626924919E+03  0.47626924919E+03  0.00000000000E+00 0. -1.
         21    1    1    2  503  502 -0.15806142297E+02  0.33369745985E+02 -0.11823573332E+03  0.12386711717E+03  0.00000000000E+00 0. -1.
         21    1    1    2  504  503  0.68971616731E+02  0.10284310300E+03 -0.31052041736E+03  0.33430034003E+03  0.00000000000E+00 0. -1.
         21    1    1    2  505  501 -0.13928193160E+02 -0.10723840461E+03  0.15191496230E+03  0.18647312342E+03  0.00000000000E+00 0.  1.
         21    1    1    2  506  504 -0.39237281274E+02 -0.28974444383E+02  0.22773844144E+02  0.53830573526E+02  0.00000000000E+00 0.  1.
<scales pt_clust_3="36.92390" pt_clust_4="14000.00000" pt_clust_5="139.66892" pt_clust_6="48.49101"></scales>
<clustering>
<clus scale="   36.924">  2  3  1 -1</clus>
<clus scale="   48.491">  1  6  2 -1</clus>
<clus scale="  139.669">  1  5  2 -1</clus>
<clus scale="   48.491">  1  3  2 -1</clus>
</clustering>
</event>
<event>
 6    0  0.2036847E+002  0.1336657E+03  0.7546771E-02  0.1222116E+00
         21   -1    0    0  506  501  0.00000000000E+00  0.00000000000E+00  0.55149402308E+03  0.55149402308E+03  0.00000000000E+00 0. -1.
         21   -1    0    0  504  502 -0.00000000000E+00 -0.00000000000E+00 -0.24748354509E+03  0.24748354509E+03  0.00000000000E+00 0.  1.
         21    1    1    2  503  501  0.34483398334E+02  0.88317492706E+02 -0.15792509928E+03  0.18419940624E+03  0.00000000000E+00 0.  1.
         21    1    1    2  504  503  0.36460277288E+02  0.16950582375E+02 -0.59078937154E+02  0.71463241446E+02  0.00000000000E+00 0. -1.
         21    1    1    2  505  502 -0.72281366922E+02 -0.57793821594E+02  0.43804185784E+03  0.44771128089E+03  0.00000000000E+00 0. -1.
         21    1    1    2  506  505  0.13376912993E+01 -0.47474253487E+02  0.82972656591E+02  0.95603639595E+02  0.00000000000E+00 0.  1.
<scales pt_clust_3="30.25374" pt_clust_4="30.25374" pt_clust_5="125.33262" pt_clust_6="47.49310"></scales>
<clustering>
<clus scale="   30.254">  3  4 -1 -1</clus>
<clus scale="   47.493">  1  6  2 -1</clus>
<clus scale="  125.333">  1  5  2 -1</clus>
<clus scale="   47.493">  1  3  2 -1</clus>
</clustering>
</event>
<event>
 6    0  0.2036847E+002  0.7391560E+02  0.7546771E-02  0.1347262E+00
         21   -1    0    0  503  501  0.00000000000E+00  0.00000000000E+00  0.72843682844E+02  0.72843682844E+02  0.00000000000E+00 0. -1.
         21   -1    0    0  505  502 -0.00000000000E+00 -0.00000000000E+00 -0.71885575511E+03  0.71885575511E+03  0.00000000000E+00 0. -1.
         21    1    1    2  503  502  0.10903181404E+03 -0.40113542646E+02 -0.44819505722E+02  0.12452237096E+03  0.00000000000E+00 0. -1.
         21    1    1    2  504  506 -0.50170857301E+02  0.28538713139E+02 -0.83317691016E+02  0.10135783495E+03  0.00000000000E+00 0. -1.
         21    1    1    2  505  504 -0.54906900645E+02  0.46135708096E+02 -0.52536358456E+03  0.53023595435E+03  0.00000000000E+00 0. -1.
         21    1    1    2  506  501 -0.39540560900E+01 -0.34560878589E+02  0.74887090349E+01  0.35583277694E+02  0.00000000000E+00 0. -1.
<scales pt_clust_3="73.91560" pt_clust_4="55.60509" pt_clust_5="14000.00000" pt_clust_6="34.78633"></scales>
<clustering>
<clus scale="   34.786">  1  6  2 -1</clus>
<clus scale="   55.605">  1  4  2 -1</clus>
<clus scale="   73.916">  1  3  2 -1</clus>
<clus scale="   34.786">  1  3  2 -1</clus>
</clustering>
</event>
<event>
 6    0  0.2036847E+002  0.1275226E+03  0.7546771E-02  0.1231179E+00
         21   -1    0    0  505  501  0.00000000000E+00  0.00000000000E+00  0.18115893976E+03  0.18115893976E+03  0.00000000000E+00 0.  1.
         21   -1    0    0  506  502 -0.00000000000E+00 -0.00000000000E+00 -0.30240482315E+03  0.30240482315E+03  0.00000000000E+00 0.  1.
         21    1    1    2  503  501  0.34441921689E+02  0.10849681923E+02  0.60789997030E+02  0.70706331445E+02  0.00000000000E+00 0.  1.
         21    1    1    2  504  503  0.74766967314E+02  0.48692108359E+02  0.40753896557E+02  0.98091288616E+02  0.00000000000E+00 0.  1.
         21    1    1    2  505  502 -0.19760849291E+02 -0.10511191633E+03 -0.17129225031E+03  0.20194068717E+03  0.00000000000E+00 0.  1.
         21    1    1    2  506  504 -0.89448039712E+02  0.45570126052E+02 -0.51497526664E+02  0.11282545568E+03  0.00000000000E+00 0.  1.
<scales pt_clust_3="33.11556" pt_clust_4="33.11556" pt_clust_5="116.41455" pt_clust_6="100.38719"></scales>
<clustering>
<clus scale="   33.116">  3  4 -1 -1</clus>
<clus scale="  100.387">  2  6  1 -1</clus>
<clus scale="  116.415">  2  5  1 -1</clus>
<clus scale="  127.523">  1  3  2 -1</clus>
</clustering>
</event>
<event>
 6    0  0.2036847E+002  0.2558356E+03  0.7546771E-02  0.1109671E+00
         21   -1    0    0  504  501  0.00000000000E+00  0.00000000000E+00  0.22908263364E+04  0.22908263364E+04  0.00000000000E+00 0.  1.
         21   -1    0    0  505  502 -0.00000000000E+00 -0.00000000000E+00 -0.10513391311E+03  0.10513391311E+03  0.00000000000E+00 0.  1.
         21    1    1    2  503  502  0.16125520485E+03  0.95142021802E+02  0.86366315629E+03  0.88372467033E+03  0.00000000000E+00 0.  1.
         21    1    1    2  504  503  0.74411291743E+02  0.32017009828E+02  0.12208332733E+04  0.12235178831E+04  0.00000000000E+00 0.  1.
         21    1    1    2  505  506 -0.11997595630E+03 -0.44268887788E+02  0.53429423625E+02  0.13859533840E+03  0.00000000000E+00 0.  1.
         21    1    1    2  506  501 -0.11569054029E+03 -0.82890143842E+02  0.47766570163E+02  0.15012235771E+03  0.00000000000E+00 0.  1.
<scales pt_clust_3="253.06657" pt_clust_4="81.00697" pt_clust_5="35.58383" pt_clust_6="35.58383"></scales>
<clustering>
<clus scale="   35.584">  5  6 -1 -1</clus>
<clus scale="   81.007">  1  4  2 -1</clus>
<clus scale="  253.067">  1  3  2 -1</clus>
<clus scale="   81.007">  1  3  2 -1</clus>
</clustering>
</event>
<event>
 6    0  0.2036847E+002  0.1336230E+03  0.7546771E-02  0.1222177E+00
         21   -1    0    0  506  501  0.00000000000E+00  0.00000000000E+00  0.10983113744E+03  0.10983113744E+03  0.00000000000E+00 0.  1.
         21   -1    0    0  505  502 -0.00000000000E+00 -0.00000000000E+00 -0.90582016114E+03  0.90582016114E+03  0.00000000000E+00 0.  1.
         21    1    1    2  503  502  0.11110558590E+03  0.29334447281E+02 -0.26228524803E+03  0.28635382371E+03  0.00000000000E+00 0.  1.
         21    1    1    2  504  501 -0.49050862767E+02  0.64223390966E+02  0.28797237614E+02  0.85789929360E+02  0.00000000000E+00 0.  1.
         21    1    1    2  505  504 -0.97306782048E+02 -0.14102772320E+03 -0.55855967232E+03  0.58424852254E+03  0.00000000000E+00 0.  1.
         21    1    1    2  506  503  0.35252058913E+02  0.47469884949E+02 -0.39413409572E+01  0.59259022969E+02  0.00000000000E+00 0.  1.
<scales pt_clust_3="133.62303" pt_clust_4="100.35078" pt_clust_5="14000.00000" pt_clust_6="59.12781"></scales>
<clustering>
<clus scale="   59.128">  1  6  2 -1</clus>
<clus scale="  100.351">  1  4  2 -1</clus>
<clus scale="  133.623">  2  3  1 -1</clus>
<clus scale="   59.128">  1  3  2 -1</clus>
</clustering>
</event>
<event>
 6    0  0.2036847E+002  0.1717505E+03  0.7546771E-02  0.1176035E+00
         21   -1    0    0  506  501  0.00000000000E+00  0.00000000000E+00  0.16055244288E+03  0.16055244288E+03  0.00000000000E+00 0.  1.
         21   -1    0    0  504  502 -0.00000000000E+00 -0.00000000000E+00 -0.19716390443E+04  0.19716390443E+04  0.00000000000E+00 0.  1.
         21    1    1    2  503  502  0.90211245043E+02 -0.53105233850E+02 -0.81602426917E+03  0.82271127528E+03  0.00000000000E+00 0.  1.
         21    1    1    2  504  501 -0.27249285574E+02  0.31098093909E+02  0.53875568210E+02  0.67913119933E+02  0.00000000000E+00 0.  1.
         21    1    1    2  505  503  0.90125051228E+02  0.57223427168E+02 -0.10767578916E+04  0.10820372464E+04  0.00000000000E+00 0.  1.
         21    1    1    2  506  505 -0.15308701070E+03 -0.35216287227E+02  0.27819991113E+02  0.15952984560E+03  0.00000000000E+00 0.  1.
<scales pt_clust_3="103.36538" pt_clust_4="41.34749" pt_clust_5="14000.00000" pt_clust_6="171.75053"></scales>
<clustering>
<clus scale="   41.347">  1  4  2 -1</clus>
<clus scale="  103.365">  2  3  1 -1</clus>
<clus scale="  171.751">  1  6  2 -1</clus>
<clus scale="   41.347">  1  3  2 -1</clus>
</clustering>
</event>
<event>
 6    0  0.2036847E+002  0.1285492E+03  0.7546771E-02  0.1229625E+00
         21   -1    0    0  506  501  0.00000000000E+00  0.00000000000E+00  0.27437185212E+03  0.27437185212E+03  0.00000000000E+00 0. -1.
         21   -1    0    0  503  502 -0.00000000000E+00 -0.00000000000E+00 -0.15101561693E+03  0.15101561693E+03  0.00000000000E+00 0.  1.
         21    1    1    2  503  505  0.27750595120E+02  0.72872954220E+02 -0.74135187720E+02  0.10759455862E+03  0.00000000000E+00 0.  1.
         21    1    1    2  504  501 -0.39964289233E+02 -0.46267634516E+02  0.12983036835E+03  0.14350527155E+03  0.00000000000E+00 0. -1.
         21    1    1    2  505  504 -0.62602812161E+02 -0.35086970543E+02  0.68182342228E+02  0.98990097404E+02  0.00000000000E+00 0. -1.
         21    1    1    2  506  502  0.74816506274E+02  0.84816508388E+01 -0.52128766593E+00  0.75297541479E+02  0.00000000000E+00 0.  1.
<scales pt_clust_3="118.61070" pt_clust_4="45.74540" pt_clust_5="45.74540" pt_clust_6="75.29574"></scales>
<clustering>
<clus scale="   45.745">  4  5 -1 -1</clus>
<clus scale="   75.296">  2  6  1 -1</clus>
<clus scale="  118.611">  2  3  1 -1</clus>
<clus scale="  128.549">  1  3  2 -1</clus>
</clustering>
</event>
<event>
 6    0  0.2036847E+002  0.1115322E+03  0.7546771E-02  0.1257758E+00
         21   -1    0    0  505  501  0.00000000000E+00  0.00000000000E+00  0.28594110993E+02  0.28594110993E+02  0.00000000000E+00 0. -1.
         21   -1    0    0  506  502 -0.00000000000E+00 -0.00000000000E+00 -0.95351292847E+03  0.95351292847E+03  0.00000000000E+00 0. -1.
         21    1    1    2  503  504 -0.27942229192E+02  0.52464365474E+02 -0.10895381624E+03  0.12411370548E+03  0.00000000000E+00 0. -1.
         21    1    1    2  504  502  0.69953348613E+02 -0.29753103269E+02 -0.58964994206E+03  0.59452987503E+03  0.00000000000E+00 0. -1.
         21    1    1    2  505  503 -0.40819506069E+02  0.38934723849E+02 -0.45652562113E+02  0.72569285682E+02  0.00000000000E+00 0. -1.
         21    1    1    2  506  501 -0.11916133512E+01 -0.61645986053E+02 -0.18066249707E+03  0.19089417327E+03  0.00000000000E+00 0. -1.
<scales pt_clust_3="40.15546" pt_clust_4="103.63562" pt_clust_5="40.15546" pt_clust_6="61.65750"></scales>
<clustering>
<clus scale="   40.155">  3  5 -1 -1</clus>
<clus scale="   61.658">  2  6  1 -1</clus>
<clus scale="  103.636">  2  4  1 -1</clus>
<clus scale="  111.532">  1  3  2 -1</clus>
</clustering>
</event>
<event>
 6    0  0.2036847E+002  0.1359083E+03  0.7546771E-02  0.1218943E+00
         21   -1    0    0  503  501  0.00000000000E+00  0.00000000000E+00  0.49494241425E+03  0.49494241425E+03  0.00000000000E+00 0.  1.
         21   -1    0    0  506  502 -0.00000000000E+00 -0.00000000000E+00 -0.83876824833E+02  0.83876824833E+02  0.00000000000E+00 0.  1.
         21    1    1    2  503  504 -0.71415032392E+02  0.64035140073E+02  0.26822560104E+03  0.28486063096E+03  0.00000000000E+00 0.  1.
         21    1    1    2  504  502 -0.35022402560E+02 -0.44467942024E+01  0.15361911544E+03  0.15762352391E+03  0.00000000000E+00 0.  1.
         21    1    1    2  505  501  0.76336911226E+02 -0.10004563945E+02  0.16754820802E+01  0.77007938263E+02  0.00000000000E+00 0.  1.
         21    1    1    2  506  505  0.30100523726E+02 -0.49583781926E+02 -0.12454609144E+02  0.59327145958E+02  0.00000000000E+00 0.  1.
<scales pt_clust_3="133.56370" pt_clust_4="33.00419" pt_clust_5="52.01717" pt_clust_6="52.01717"></scales>
<clustering>
<clus scale="   33.004">  3  4 -1 -1</clus>
<clus scale="   52.017">  5  6 -1 -1</clus>
<clus scale="  133.564">  1  3  2 -1</clus>
<clus scale="  133.564">  1  3  2 -1</clus>
</clustering>
</event>
<event>
 6    0  0.2036847E+002  0.1198929E+03  0.7546771E-02  0.1243274E+00
         21   -1    0    0  504  501  0.00000000000E+00  0.00000000000E+00  0.21342808404E+03  0.21342808404E+03  0.00000000000E+00 0. -1.
         21   -1    0    0  503  502 -0.00000000000E+00 -0.00000000000E+00 -0.79362009514E+03  0.79362009514E+03  0.00000000000E+00 0. -1.
         21    1    1    2  503  506  0.70011054000E+01 -0.40615331510E+02 -0.18548841242E+03  0.19001203060E+03  0.00000000000E+00 0. -1.
         21    1    1    2  504  505 -0.54300380582E+02 -0.88988231943E+02  0.13960109240E+03  0.17422945146E+03  0.00000000000E+00 0. -1.
         21    1    1    2  505  502  0.89285046711E+02  0.11262772218E+03 -0.56829153749E+03  0.58618435236E+03  0.00000000000E+00 0. -1.
         21    1    1    2  506  501 -0.41985771529E+02  0.16975841269E+02  0.33986846413E+02  0.56622344766E+02  0.00000000000E+00 0.  1.
<scales pt_clust_3="41.21433" pt_clust_4="14000.00000" pt_clust_5="119.89290" pt_clust_6="44.88692"></scales>
<clustering>
<clus scale="   41.214">  2  3  1 -1</clus>
<clus scale="   44.887">  1  6  2 -1</clus>
<clus scale="  119.893">  2  5  1 -1</clus>
<clus scale="   44.887">  1  3  2 -1</clus>
</clustering>
</event>
<event>
 6    0  0.2036847E+002  0.1103231E+03  0.7546771E-02  0.1259973E+00
         21   -1    0    0  503  501  0.00000000000E+00  0.00000000000E+00  0.76794801840E+01  0.76794801840E+01  0.00000000000E+00 0.  1.
         21   -1    0    0  505  502 -0.00000000000E+00 -0.00000000000E+00 -0.22093713666E+04  0.22093713666E+04  0.00000000000E+00 0.  1.
         21    1    1    2  503  506  0.26538891707E+02 -0.27876255475E+02 -0.18284085712E+03  0.18684800621E+03  0.00000000000E+00 0.  1.
         21    1    1    2  504  502  0.14770522775E+02  0.39049902873E+02 -0.48114633623E+03  0.48295430438E+03  0.00000000000E+00 0. -1.
         21    1    1    2  505  501 -0.96548545350E+02  0.30243451378E+02 -0.81579198898E+03  0.82204188290E+03  0.00000000000E+00 0.  1.
         21    1    1    2  506  504  0.55239130869E+02 -0.41417098776E+02 -0.72191270412E+03  0.72520665332E+03  0.00000000000E+00 0.  1.
<scales pt_clust_3="31.46087" pt_clust_4="41.75001" pt_clust_5="101.95930" pt_clust_6="31.46087"></scales>
<clustering>
<clus scale="   31.461">  3  6 -1 -1</clus>
<clus scale="   41.750">  2  4  1 -1</clus>
<clus scale="  101.959">  1  5  2 -1</clus>
<clus scale="  101.959">  1  3  2 -1</clus>
</clustering>
</event>
<event>
 6    0  0.2036847E+002  0.1278720E+03  0.7546771E-02  0.1230648E+00
         21   -1    0    0  504  501  0.00000000000E+00  0.00000000000E+00  0.31347524837E+03  0.31347524837E+03  0.00000000000E+00 0.  1.
         21   -1    0    0  505  502 -0.00000000000E+00 -0.00000000000E+00 -0.59885265303E+03  0.59885265303E+03  0.00000000000E+00 0.  1.
         21    1    1    2  503  502 -0.42979442908E+02  0.18539946062E+02  0.14194184389E+03  0.14946052709E+03  0.00000000000E+00 0.  1.
         21    1    1    2  504  503 -0.83388008378E+02 -0.13060423699E+02  0.14345663149E+03  0.16644500512E+03  0.00000000000E+00 0.  1.
         21    1    1    2  505  506  0.61051073120E+02  0.13621009907E+01 -0.48275039718E+03  0.48659740528E+03  0.00000000000E+00 0.  1.
         21    1    1    2  506  501  0.65316378165E+02 -0.68416233532E+01 -0.88025482856E+02  0.10982496391E+03  0.00000000000E+00 0. -1.
<scales pt_clust_3="36.06376" pt_clust_4="36.06376" pt_clust_5="61.06627" pt_clust_6="118.34693"></scales>
<clustering>
<clus scale="   36.064">  3  4 -1 -1</clus>
<clus scale="   61.066">  2  5  1 -1</clus>
<clus scale="  118.347">  2  6  1 -1</clus>
<clus scale="  127.872">  1  3  2 -1</clus>
</clustering>
</event>
<event>
 6    0  0.2036847E+002  0.1610626E+03  0.7546771E-02  0.1187502E+00
         21   -1    0    0  505  501  0.00000000000E+00  0.00000000000E+00  0.27498439139E+03  0.27498439139E+03  0.00000000000E+00 0. -1.
         21   -1    0    0  503  502 -0.00000000000E+00 -0.00000000000E+00 -0.37676832493E+03  0.37676832493E+03  0.00000000000E+00 0. -1.
         21    1    1    2  503  504 -0.25505246991E+02  0.65320146548E+02 -0.42409814656E+02  0.81950177231E+02  0.00000000000E+00 0. -1.
         21    1    1    2  504  501  0.94519678742E+00  0.32192408820E+02  0.21553762346E+02  0.38753183790E+02  0.00000000000E+00 0. -1.
         21    1    1    2  505  506  0.11830687860E+03 -0.14928349860E+03  0.17183646279E+03  0.25653430652E+03  0.00000000000E+00 0. -1.
         21    1    1    2  506  502 -0.93746828397E+02  0.51770943229E+02 -0.25276434402E+03  0.27451504878E+03  0.00000000000E+00 0. -1.
<scales pt_clust_3="72.52389" pt_clust_4="32.20628" pt_clust_5="14000.00000" pt_clust_6="161.06262"></scales>
<clustering>
<clus scale="   32.206">  1  4  2 -1</clus>
<clus scale="   72.524">  2  3  1 -1</clus>
<clus scale="  161.063">  2  6  1 -1</clus>
<clus scale="   32.206">  1  3  2 -1</clus>
</clustering>
</event>
<event>
 6    0  0.2036847E+002  0.1904140E+03  0.7546771E-02  0.1158088E+00
         21   -1    0    0  506  501  0.00000000000E+00  0.00000000000E+00  0.19981968832E+03  0.19981968832E+03  0.00000000000E+00 0. -1.
         21   -1    0    0  505  502 -0.00000000000E+00 -0.00000000000E+00 -0.35755156604E+03  0.35755156604E+03  0.00000000000E+00 0.  1.
         21    1    1    2  503  501 -0.46076983535E+02  0.21968421343E+02  0.50936420365E+02  0.72112543067E+02  0.00000000000E+00 0. -1.
         21    1    1    2  504  502  0.28886854726E+02 -0.49700632095E+02 -0.53472189065E+02  0.78510370079E+02  0.00000000000E+00 0. -1.
         21    1    1    2  505  503 -0.33976477539E+02  0.13225800497E+03  0.69858527479E+02  0.15338446716E+03  0.00000000000E+00 0. -1.
         21    1    1    2  506  504  0.51166606348E+02 -0.10452579422E+03 -0.22505463651E+03  0.25336387405E+03  0.00000000000E+00 0.  1.
<scales pt_clust_3="47.60800" pt_clust_4="34.20786" pt_clust_5="47.60800" pt_clust_6="180.45310"></scales>
<clustering>
<clus scale="   34.208">  4  6 -1 -1</clus>
<clus scale="   47.608">  3  5 -1 -1</clus>
<clus scale="  180.453">  2  4  1 -1</clus>
<clus scale="  190.414">  1  3  2 -1</clus>
</clustering>
</event>
<event>
 6    0  0.2036847E+002  0.9264809E+02  0.7546771E-02  0.1296563E+00
         21   -1    0    0  504  501  0.00000000000E+00  0.00000000000E+00  0.45087164628E+03  0.45087164628E+03  0.00000000000E+00 0.  1.
         21   -1    0    0  503  502 -0.00000000000E+00 -0.00000000000E+00 -0.17943805754E+03  0.17943805754E+03  0.00000000000E+00 0.  1.
         21    1    1    2  503  505 -0.33113471134E+02 -0.49637058083E+01 -0.91125218829E+02  0.97082160321E+02  0.00000000000E+00 0.  1.
         21    1    1    2  504  506  0.78679566151E+02  0.26759515080E+02  0.13653506917E+03  0.15983857761E+03  0.00000000000E+00 0.  1.
         21    1    1    2  505  501 -0.10375140924E+03  0.10111683273E+02  0.27290699591E+03  0.29213837385E+03  0.00000000000E+00 0.  1.
         21    1    1    2  506  502  0.58185314221E+02 -0.31907492545E+02 -0.46883257522E+02  0.81250592043E+02  0.00000000000E+00 0.  1.
<scales pt_clust_3="33.48343" pt_clust_4="92.64809" pt_clust_5="14000.00000" pt_clust_6="48.78848"></scales>
<clustering>
<clus scale="   33.483">  2  3  1 -1</clus>
<clus scale="   48.788">  2  6  1 -1</clus>
<clus scale="   92.648">  2  4  1 -1</clus>
<clus scale="   92.648">  1  3  2 -1</clus>
</clustering>
</event>
<event>
 6    0  0.2036847E+002  0.1200114E+03  0.7546771E-02  0.1243078E+00
         21   -1    0    0  505  501  0.00000000000E+00  0.00000000000E+00  0.96626268228E+03  0.96626268228E+03  0.00000000000E+00 0. -1.
         21   -1    0    0  503  502 -0.00000000000E+00 -0.00000000000E+00 -0.15623345684E+03  0.15623345684E+03  0.00000000000E+00 0.  1.
         21    1    1    2  503  501  0.17347377697E+02 -0.34426483058E+02 -0.27800885087E+02  0.47528974955E+02  0.00000000000E+00 0. -1.
         21    1    1    2  504  502  0.28648571437E+01  0.15502385765E+03 -0.59756002938E+02  0.16616673474E+03  0.00000000000E+00 0.  1.
         21    1    1    2  505  506  0.11614692714E+01 -0.60133170321E+02  0.21641236534E+03  0.22461446760E+03  0.00000000000E+00 0. -1.
         21    1    1    2  506  504 -0.21373704112E+02 -0.60464204275E+02  0.68117374813E+03  0.68418596183E+03  0.00000000000E+00 0. -1.
<scales pt_clust_3="38.55015" pt_clust_4="120.01137" pt_clust_5="61.34921" pt_clust_6="14000.00000"></scales>
<clustering>
<clus scale="   38.550">  2  3  1 -1</clus>
<clus scale="   61.349">  1  5  2 -1</clus>
<clus scale="  120.011">  2  4  1 -1</clus>
<clus scale="   61.349">  1  3  2 -1</clus>
</clustering>
</event>
<event>
 6    0  0.2036847E+002  0.1185873E+03  0.7546771E-02  0.1245446E+00
         21   -1    0    0  503  501  0.00000000000E+00  0.00000000000E+00  0.12641829002E+03  0.12641829002E+03  0.00000000000E+00 0.  1.
         21   -1    0    0  505  502 -0.00000000000E+00 -0.00000000000E+00 -0.17551615103E+04  0.17551615103E+04  0.00000000000E+00 0. -1.
         21    1    1    2  503  504  0.78918280414E+02 -0.28773812172E+02 -0.10327398243E+02  0.84632632034E+02  0.00000000000E+00 0.  1.
         21    1    1    2  504  502 -0.52539876487E+02  0.93090176887E+01 -0.53015072685E+03  0.53282913736E+03  0.00000000000E+00 0. -1.
         21    1    1    2  505  506  0.83698715288E+02  0.10472453414E+03 -0.11144146466E+04  0.11224494232E+04  0.00000000000E+00 0. -1.
         21    1    1    2  506  501 -0.11007711922E+03 -0.85259739655E+02  0.26149551438E+02  0.14166860775E+03  0.00000000000E+00 0.  1.
<scales pt_clust_3="81.96194" pt_clust_4="53.35819" pt_clust_5="14000.00000" pt_clust_6="118.58733"></scales>
<clustering>
<clus scale="   53.358">  2  4  1 -1</clus>
<clus scale="   81.962">  1  3  2 -1</clus>
<clus scale="  118.587">  1  6  2 -1</clus>
<clus scale="   81.962">  1  3  2 -1</clus>
</clustering>
</event>
<event>
 6    0  0.2036847E+002  0.1148520E+03  0.7546771E-02  0.1251840E+00
         21   -1    0    0  502  501  0.00000000000E+00  0.00000000000E+00  0.45141476646E+02  0.45141476646E+02  0.00000000000E+00 0. -1.
         21   -1    0    0  506  502 -0.00000000000E+00 -0.00000000000E+00 -0.89474135818E+03  0.89474135818E+03  0.00000000000E+00 0. -1.
         21    1    1    2  503  505 -0.52510172607E+02  0.39940795818E+02 -0.95068491306E+02  0.11571777494E+03  0.00000000000E+00 0. -1.
         21    1    1    2  504  501  0.44921204632E+01 -0.77069940901E+02 -0.10336897956E+03  0.12901589388E+03  0.00000000000E+00 0.  1.
         21    1    1    2  505  504 -0.38375013723E+02  0.88226307414E+02 -0.11624137196E+03  0.15089260934E+03  0.00000000000E+00 0. -1.
         21    1    1    2  506  503  0.86393065867E+02 -0.51097162331E+02 -0.53492103871E+03  0.54425655667E+03  0.00000000000E+00 0. -1.
<scales pt_clust_3="34.56513" pt_clust_4="77.20074" pt_clust_5="34.56513" pt_clust_6="106.99850"></scales>
<clustering>
<clus scale="   34.565">  3  5 -1 -1</clus>
<clus scale="   77.201">  1  4  2 -1</clus>
<clus scale="  106.998">  2  6  1 -1</clus>
<clus scale="   77.201">  1  3  2 -1</clus>
</clustering>
</event>
<event>
 6    0  0.2036847E+002  0.1180018E+03  0.7546771E-02  0.1246430E+00
         21   -1    0    0  504  501  0.00000000000E+00  0.00000000000E+00  0.20469823679E+02  0.20469823679E+02  0.00000000000E+00 0.  1.
         21   -1    0    0  505  502 -0.00000000000E+00 -0.00000000000E+00 -0.16012963700E+04  0.16012963700E+04  0.00000000000E+00 0.  1.
         21    1    1    2  503  501 -0.87053910201E+00 -0.53804800547E+02 -0.14959402142E+03  0.15897825526E+03  0.00000000000E+00 0.  1.
         21    1    1    2  504  506 -0.61042917174E+02  0.67381557750E+02 -0.74246322911E+03  0.74800946428E+03  0.00000000000E+00 0.  1.
         21    1    1    2  505  503  0.16282179305E+02 -0.69645371444E+02 -0.10805484878E+03  0.12958177908E+03  0.00000000000E+00 0.  1.
         21    1    1    2  506  502  0.45631276971E+02  0.56068614241E+02 -0.58071444701E+03  0.58519669506E+03  0.00000000000E+00 0.  1.
<scales pt_clust_3="32.52994" pt_clust_4="111.88361" pt_clust_5="32.52994" pt_clust_6="72.29041"></scales>
<clustering>
<clus scale="   32.530">  3  5 -1 -1</clus>
<clus scale="   72.290">  2  6  1 -1</clus>
<clus scale="  111.884">  2  4  1 -1</clus>
<clus scale="  118.002">  1  3  2 -1</clus>
</clustering>
</event>
<event>
 6    0  0.2036847E+002  0.1076362E+03  0.7546771E-02  0.1265011E+00
         21   -1    0    0  504  501  0.00000000000E+00  0.00000000000E+00  0.17241261856E+04  0.17241261856E+04  0.00000000000E+00 0. -1.
         21   -1    0    0  505  502 -0.00000000000E+00 -0.00000000000E+00 -0.29208190339E+03  0.29208190339E+03  0.00000000000E+00 0. -1.
         21    1    1    2  503  506 -0.14592504498E+03 -0.88586672347E+02  0.59702033133E+03  0.62094685223E+03  0.00000000000E+00 0.  1.
         21    1    1    2  504  502  0.29021081815E+02  0.12344052861E+02 -0.43819016516E+02  0.53988008291E+02  0.00000000000E+00 0.  1.
         21    1    1    2  505  503  0.29861581217E+02  0.34272937952E+02 -0.22685306838E+03  0.23136262218E+03  0.00000000000E+00 0. -1.
         21    1    1    2  506  501  0.87042381953E+02  0.41969681534E+02  0.11056960357E+04  0.11099106062E+04  0.00000000000E+00 0. -1.
<scales pt_clust_3="14000.00000" pt_clust_4="31.53726" pt_clust_5="73.34371" pt_clust_6="107.63624"></scales>
<clustering>
<clus scale="   31.537">  2  4  1 -1</clus>
<clus scale="   73.344">  2  5  1 -1</clus>
<clus scale="  107.636">  1  6  2 -1</clus>
<clus scale="  107.636">  1  3  2 -1</clus>
</clustering>
</event>
<event>
 6    0  0.2036847E+002  0.1499584E+03  0.7546771E-02  0.1200524E+00
         21   -1    0    0  504  501  0.00000000000E+00  0.00000000000E+00  0.17098781492E+03  0.17098781492E+03  0.00000000000E+00 0.  1.
         21   -1    0    0  506  502 -0.00000000000E+00 -0.00000000000E+00 -0.20491161775E+04  0.20491161775E+04  0.00000000000E+00 0. -1.
         21    1    1    2  503  505 -0.81181041901E+02 -0.13591773398E+03 -0.87640529262E+02  0.18095539324E+03  0.00000000000E+00 0. -1.
         21    1    1    2  504  503  0.10353201969E+03  0.10600975034E+03  0.72331201293E+02  0.16489011174E+03  0.00000000000E+00 0.  1.
         21    1    1    2  505  502 -0.35449005646E+02 -0.36383113557E+02 -0.12232052563E+03  0.13244875969E+03  0.00000000000E+00 0. -1.
         21    1    1    2  506  501  0.13098027852E+02  0.66291097193E+02 -0.17404985090E+04  0.17418097278E+04  0.00000000000E+00 0. -1.
<scales pt_clust_3="149.95842" pt_clust_4="14000.00000" pt_clust_5="50.79727" pt_clust_6="38.37229"></scales>
<clustering>
<clus scale="   50.797">  2  5  1 -1</clus>
<clus scale="   38.372">  2  6  1 -1</clus>
<clus scale="  149.958">  2  3  1 -1</clus>
<clus scale="  149.958">  1  3  2 -1</clus>
</clustering>
</event>
<event>
 6    0  0.2036847E+002  0.1191207E+03  0.7546771E-02  0.1244555E+00
         21   -1    0    0  506  501  0.00000000000E+00  0.00000000000E+00  0.69879511144E+03  0.69879511144E+03  0.00000000000E+00 0. -1.
         21   -1    0    0  503  502 -0.00000000000E+00 -0.00000000000E+00 -0.72659737602E+02  0.72659737602E+02  0.00000000000E+00 0.  1.
         21    1    1    2  503  505 -0.12206217906E+02 -0.10033255622E+03 -0.53570729662E+01  0.10121418786E+03  0.00000000000E+00 0.  1.
         21    1    1    2  504  502 -0.36771055459E+02 -0.16632168801E+02  0.32852644944E+02  0.52038791670E+02  0.00000000000E+00 0.  1.
         21    1    1    2  505  501  0.73007705074E+02  0.87373477876E+02  0.49044023931E+03  0.50348374151E+03  0.00000000000E+00 0. -1.
         21    1    1    2  506  504 -0.24030431708E+02  0.29591247144E+02  0.10819956255E+03  0.11471812800E+03  0.00000000000E+00 0. -1.
<scales pt_clust_3="14000.00000" pt_clust_4="41.14497" pt_clust_5="119.12071" pt_clust_6="38.11960"></scales>
<clustering>
<clus scale="   38.120">  1  6  2 -1</clus>
<clus scale="   41.145">  2  4  1 -1</clus>
<clus scale="  119.121">  1  5  2 -1</clus>
<clus scale="   38.120">  1  3  2 -1</clus>
</clustering>
</event>
<event>
 6    0  0.2036847E+002  0.8687701E+02  0.7546771E-02  0.1310596E+00
         21   -1    0    0  506  501  0.00000000000E+00  0.00000000000E+00  0.20851976678E+03  0.20851976678E+03  0.00000000000E+00 0.  1.
         21   -1    0    0  504  502 -0.00000000000E+00 -0.00000000000E+00 -0.12154281337E+04  0.12154281337E+04  0.00000000000E+00 0. -1.
         21    1    1    2  503  501  0.38878505613E+02 -0.13064347884E+02  0.10582461035E+03  0.11349477318E+03  0.00000000000E+00 0.  1.
         21    1    1    2  504  503 -0.37285566128E+02 -0.10035940230E+03 -0.10455560664E+04  0.10510231735E+04  0.00000000000E+00 0. -1.
         21    1    1    2  505  502 -0.24895077397E+02  0.38490793316E+02 -0.14308668394E+03  0.15025014200E+03  0.00000000000E+00 0. -1.
         21    1    1    2  506  505  0.23302137912E+02  0.74932956872E+02  0.75909773121E+02  0.10917981183E+03  0.00000000000E+00 0.  1.
<scales pt_clust_3="41.01482" pt_clust_4="14000.00000" pt_clust_5="44.68717" pt_clust_6="86.87701"></scales>
<clustering>
<clus scale="   41.015">  1  3  2 -1</clus>
<clus scale="   44.687">  2  5  1 -1</clus>
<clus scale="   86.877">  1  6  2 -1</clus>
<clus scale="   41.015">  1  3  2 -1</clus>
</clustering>
</event>
<event>
 6    0  0.2036847E+002  0.9641263E+02  0.7546771E-02  0.1288026E+00
         21   -1    0    0  503  501  0.00000000000E+00  0.00000000000E+00  0.83864309940E+03  0.83864309940E+03  0.00000000000E+00 0.  1.
         21   -1    0    0  504  502 -0.00000000000E+00 -0.00000000000E+00 -0.49371352661E+03  0.49371352661E+03  0.00000000000E+00 0.  1.
         21    1    1    2  503  505 -0.29520661165E+02 -0.18085968997E+02  0.17104294999E+03  0.17451149662E+03  0.00000000000E+00 0. -1.
         21    1    1    2  504  506 -0.39745695689E+02  0.11013173971E+02 -0.14412325753E+03  0.14990838431E+03  0.00000000000E+00 0. -1.
         21    1    1    2  505  502  0.49374657259E+02  0.85347172169E+02 -0.33538041381E+03  0.34957405302E+03  0.00000000000E+00 0.  1.
         21    1    1    2  506  501  0.19891699596E+02 -0.78274377143E+02  0.65339029413E+03  0.65836269206E+03  0.00000000000E+00 0.  1.
<scales pt_clust_3="34.62039" pt_clust_4="41.34606" pt_clust_5="96.41263" pt_clust_6="14000.00000"></scales>
<clustering>
<clus scale="   34.620">  1  3  2 -1</clus>
<clus scale="   41.346">  2  4  1 -1</clus>
<clus scale="   96.413">  2  5  1 -1</clus>
<clus scale="   34.620">  1  3  2 -1</clus>
</clustering>
</event>
<event>
 6    0  0.2036847E+002  0.1513356E+03  0.7546771E-02  0.1198841E+00
         21   -1    0    0  505  501  0.00000000000E+00  0.00000000000E+00  0.13776737908E+04  0.13776737908E+04  0.00000000000E+00 0. -1.
         21   -1    0    0  504  502 -0.00000000000E+00 -0.00000000000E+00 -0.25706394679E+04  0.25706394679E+04  0.00000000000E+00 0. -1.
         21    1    1    2  503  502  0.29328248656E+02 -0.14978637839E+03 -0.24643366636E+04  0.24690587877E+04  0.00000000000E+00 0. -1.
         21    1    1    2  504  501  0.38879083912E+02  0.28577495593E+02 -0.93926805014E+02  0.10559593326E+03  0.00000000000E+00 0.  1.
         21    1    1    2  505  506 -0.36612536087E+02  0.11169499421E+03  0.11201112947E+04  0.11262617645E+04  0.00000000000E+00 0. -1.
         21    1    1    2  506  503 -0.31594796481E+02  0.95138885915E+01  0.24518649680E+03  0.24739677333E+03  0.00000000000E+00 0. -1.
<scales pt_clust_3="139.09201" pt_clust_4="48.25201" pt_clust_5="31.59424" pt_clust_6="31.59424"></scales>
<clustering>
<clus scale="   31.594">  5  6 -1 -1</clus>
<clus scale="   48.252">  2  4  1 -1</clus>
<clus scale="  139.092">  2  3  1 -1</clus>
<clus scale="  151.336">  1  3  2 -1</clus>
</clustering>
</event>
<event>
 6    0  0.2036847E+002  0.1402473E+03  0.7546771E-02  0.1212997E+00
         21   -1    0    0  503  501  0.00000000000E+00  0.00000000000E+00  0.11274438727E+03  0.11274438727E+03  0.00000000000E+00 0. -1.
         21   -1    0    0  506  502 -0.00000000000E+00 -0.00000000000E+00 -0.45161736427E+03  0.45161736427E+03  0.00000000000E+00 0.  1.
         21    1    1    2  503  502  0.41920773645E+02  0.63618697646E+02 -0.75003452677E+02  0.10691215023E+03  0.00000000000E+00 0.  1.
         21    1    1    2  504  505 -0.11054116142E+03 -0.10176117946E+03 -0.24380423573E+03  0.28638294533E+03  0.00000000000E+00 0.  1.
         21    1    1    2  505  501  0.10885323114E+03  0.41848354115E+02  0.14984682289E+02  0.11757912815E+03  0.00000000000E+00 0. -1.
         21    1    1    2  506  504 -0.40232843367E+02 -0.37058722978E+01 -0.35049970881E+02  0.53487527832E+02  0.00000000000E+00 0. -1.
<scales pt_clust_3="76.18852" pt_clust_4="32.36840" pt_clust_5="125.59117" pt_clust_6="32.36840"></scales>
<clustering>
<clus scale="   32.368">  4  6 -1 -1</clus>
<clus scale="   76.189">  2  3  1 -1</clus>
<clus scale="  125.591">  1  5  2 -1</clus>
<clus scale="  125.591">  1  3  2 -1</clus>
</clustering>
</event>
<event>
 6    0  0.2036847E+002  0.1171416E+03  0.7546771E-02  0.1247888E+00
         21   -1    0    0  506  501  0.00000000000E+00  0.00000000000E+00  0.18429225484E+03  0.18429225484E+03  0.00000000000E+00 0. -1.
         21   -1    0    0  503  502 -0.00000000000E+00 -0.00000000000E+00 -0.17200510902E+04  0.17200510902E+04  0.00000000000E+00 0. -1.
         21    1    1    2  503  504  0.39283668342E+02 -0.65896998368E+02 -0.12293089842E+04  0.12317005316E+04  0.00000000000E+00 0. -1.
         21    1    1    2  504  501  0.11093084719E+02  0.10327512349E+03 -0.59099764005E+02  0.11950560558E+03  0.00000000000E+00 0. -1.
         21    1    1    2  505  502 -0.13199507772E+02 -0.56311702165E+02 -0.39525310414E+03  0.39946245272E+03  0.00000000000E+00 0. -1.
         21    1    1    2  506  505 -0.37177245289E+02  0.18933577042E+02  0.14790301700E+03  0.15367475507E+03  0.00000000000E+00 0. -1.
<scales pt_clust_3="117.14164" pt_clust_4="14000.00000" pt_clust_5="57.26957" pt_clust_6="41.72083"></scales>
<clustering>
<clus scale="   41.721">  1  6  2 -1</clus>
<clus scale="   57.270">  2  5  1 -1</clus>
<clus scale="  117.142">  2  3  1 -1</clus>
<clus scale="   41.721">  1  3  2 -1</clus>
</clustering>
</event>
<event>
 6    0  0.2036847E+002  0.1037084E+03  0.7546771E-02  0.1272685E+00
         21   -1    0    0  503  501  0.00000000000E+00  0.00000000000E+00  0.16618774378E+02  0.16618774378E+02  0.00000000000E+00 0. -1.
         21   -1    0    0  505  502 -0.00000000000E+00 -0.00000000000E+00 -0.25233091395E+04  0.25233091395E+04  0.00000000000E+00 0.  1.
         21    1    1    2  503  504 -0.24932545325E+02  0.35209471092E+02 -0.11057750151E+03  0.11869592458E+03  0.00000000000E+00 0.  1.
         21    1    1    2  504  502  0.12212366068E+03  0.47049179159E+02 -0.17446646567E+04  0.17495663971E+04  0.00000000000E+00 0.  1.
         21    1    1    2  505  506 -0.56930045296E+02 -0.53665981115E+02 -0.57730939325E+03  0.58258664859E+03  0.00000000000E+00 0. -1.
         21    1    1    2  506  501 -0.40261070061E+02 -0.28592669136E+02 -0.74138813659E+02  0.89078943537E+02  0.00000000000E+00 0. -1.
<scales pt_clust_3="43.14323" pt_clust_4="14000.00000" pt_clust_5="103.70839" pt_clust_6="55.61899"></scales>
<clustering>
<clus scale="   43.143">  1  3  2 -1</clus>
<clus scale="   55.619">  1  6  2 -1</clus>
<clus scale="  103.708">  1  5  2 -1</clus>
<clus scale="   43.143">  1  3  2 -1</clus>
</clustering>
</event>
<event>
 6    0  0.2036847E+002  0.1332176E+03  0.7546771E-02  0.1222758E+00
         21   -1    0    0  504  501  0.00000000000E+00  0.00000000000E+00  0.14493324285E+03  0.14493324285E+03  0.00000000000E+00 0.  1.
         21   -1    0    0  506  502 -0.00000000000E+00 -0.00000000000E+00 -0.20584282188E+03  0.20584282188E+03  0.00000000000E+00 0.  1.
         21    1    1    2  503  502 -0.30218557724E+02 -0.54656322590E+02 -0.40545249260E+02  0.74460674638E+02  0.00000000000E+00 0.  1.
         21    1    1    2  504  505 -0.12214742368E+02  0.48376303008E+02 -0.79537735669E+01  0.50524539956E+02  0.00000000000E+00 0. -1.
         21    1    1    2  505  503 -0.47226540156E+02  0.72849217349E+02  0.47606612902E+02  0.99013858401E+02  0.00000000000E+00 0.  1.
         21    1    1    2  506  501  0.89659840248E+02 -0.66569197767E+02 -0.60017169113E+02  0.12677699173E+03  0.00000000000E+00 0.  1.
<scales pt_clust_3="62.45378" pt_clust_4="38.36044" pt_clust_5="38.36044" pt_clust_6="123.23322"></scales>
<clustering>
<clus scale="   38.360">  4  5 -1 -1</clus>
<clus scale="   62.454">  2  3  1 -1</clus>
<clus scale="  123.233">  2  6  1 -1</clus>
<clus scale="  133.218">  1  3  2 -1</clus>
</clustering>
</event>
<event>
 6    0  0.2036847E+002  0.1063650E+03  0.7546771E-02  0.1267453E+00
         21   -1    0    0  504  501  0.00000000000E+00  0.00000000000E+00  0.27710633374E+04  0.27710633374E+04  0.00000000000E+00 0.  1.
         21   -1    0    0  505  502 -0.00000000000E+00 -0.00000000000E+00 -0.38139470604E+03  0.38139470604E+03  0.00000000000E+00 0.  1.
         21    1    1    2  503  502  0.54429486013E+02 -0.64870807540E+01 -0.15202075898E+02  0.56883690773E+02  0.00000000000E+00 0.  1.
         21    1    1    2  504  506  0.23060787053E+02 -0.33902765590E+02  0.23241011542E+04  0.23244628137E+04  0.00000000000E+00 0.  1.
         21    1    1    2  505  501 -0.86302101991E+02 -0.92815193837E+02 -0.32239928394E+03  0.34641595128E+03  0.00000000000E+00 0.  1.
         21    1    1    2  506  503  0.88118289251E+01  0.13320504018E+03  0.40316883706E+03  0.42469558772E+03  0.00000000000E+00 0.  1.
<scales pt_clust_3="56.08857" pt_clust_4="41.00241" pt_clust_5="106.36503" pt_clust_6="14000.00000"></scales>
<clustering>
<clus scale="   41.002">  1  4  2 -1</clus>
<clus scale="   56.089">  2  3  1 -1</clus>
<clus scale="  106.365">  2  5  1 -1</clus>
<clus scale="   41.002">  1  3  2 -1</clus>
</clustering>
</event>
<event>
 6    0  0.2036847E+002  0.1053071E+03  0.7546771E-02  0.1269516E+00
         21   -1    0    0  503  501  0.00000000000E+00  0.00000000000E+00  0.47726402170E+02  0.47726402170E+02  0.00000000000E+00 0. -1.
         21   -1    0    0  504  502 -0.00000000000E+00 -0.00000000000E+00 -0.65108480560E+03  0.65108480560E+03  0.00000000000E+00 0. -1.
         21    1    1    2  503  505 -0.63031776384E+02 -0.60819808431E+02 -0.35384777880E+03  0.36452750855E+03  0.00000000000E+00 0. -1.
         21    1    1    2  504  506 -0.18772543453E+02  0.42762991857E+02 -0.30710114604E+02  0.55894480937E+02  0.00000000000E+00 0. -1.
         21    1    1    2  505  502  0.58913904948E+02 -0.40992499875E+02 -0.19975343962E+03  0.21225614215E+03  0.00000000000E+00 0. -1.
         21    1    1    2  506  501  0.22890414890E+02  0.59049316449E+02 -0.19047070409E+02  0.66133076127E+02  0.00000000000E+00 0. -1.
<scales pt_clust_3="95.17008" pt_clust_4="38.71225" pt_clust_5="71.77209" pt_clust_6="38.71225"></scales>
<clustering>
<clus scale="   38.712">  4  6 -1 -1</clus>
<clus scale="   71.772">  2  5  1 -1</clus>
<clus scale="   95.170">  2  3  1 -1</clus>
<clus scale="  105.307">  1  3  2 -1</clus>
</clustering>
</event>
<event>
 6    0  0.2036847E+002  0.2004679E+03  0.7546771E-02  0.1149345E+00
         21   -1    0    0  505  501  0.00000000000E+00  0.00000000000E+00  0.13597828803E+04  0.13597828803E+04  0.00000000000E+00 0. -1.
         21   -1    0    0  504  502 -0.00000000000E+00 -0.00000000000E+00 -0.51123020013E+02  0.51123020013E+02  0.00000000000E+00 0. -1.
         21    1    1    2  503  502 -0.18150765402E+02 -0.66254501087E+02  0.16938039383E+03  0.18278081686E+03  0.00000000000E+00 0. -1.
         21    1    1    2  504  506 -0.46788325417E+01  0.15084597415E+03  0.82351588240E+03  0.83723043898E+03  0.00000000000E+00 0. -1.
         21    1    1    2  505  503 -0.21241164486E+02 -0.12757714696E+03  0.91741181481E+02  0.15856720933E+03  0.00000000000E+00 0. -1.
         21    1    1    2  506  501  0.44070762429E+02  0.42985673902E+02  0.22402240255E+03  0.23232743511E+03  0.00000000000E+00 0.  1.
<scales pt_clust_3="68.69577" pt_clust_4="55.29411" pt_clust_5="180.80995" pt_clust_6="55.29411"></scales>
<clustering>
<clus scale="   55.294">  4  6 -1 -1</clus>
<clus scale="   68.696">  2  3  1 -1</clus>
<clus scale="  180.810">  2  5  1 -1</clus>
<clus scale="  200.468">  1  3  2 -1</clus>
</clustering>
</event>
<event>
 6    0  0.2036847E+002  0.1604266E+03  0.7546771E-02  0.1188216E+00
         21   -1    0    0  504  501  0.00000000000E+00  0.00000000000E+00  0.48244737131E+03  0.48244737131E+03  0.00000000000E+00 0. -1.
         21   -1    0    0  503  502 -0.00000000000E+00 -0.00000000000E+00 -0.66588563083E+03  0.66588563083E+03  0.00000000000E+00 0. -1.
         21    1    1    2  503  501  0.23527717229E+02 -0.12265539046E+03 -0.57656128442E+03  0.58993288854E+03  0.00000000000E+00 0. -1.
         21    1    1    2  504  505  0.48312820640E+02  0.42557007830E+02  0.19667855170E+03  0.20694849662E+03  0.00000000000E+00 0. -1.
         21    1    1    2  505  506 -0.10502615939E+02  0.95675098843E+02  0.25041685018E+03  0.26827714836E+03  0.00000000000E+00 0. -1.
         21    1    1    2  506  502 -0.61337921930E+02 -0.15576716208E+02 -0.53972376981E+02  0.83174468627E+02  0.00000000000E+00 0. -1.
<scales pt_clust_3="142.58093" pt_clust_4="60.14242" pt_clust_5="60.14242" pt_clust_6="63.28487"></scales>
<clustering>
<clus scale="   60.142">  4  5 -1 -1</clus>
<clus scale="   63.285">  2  6  1 -1</clus>
<clus scale="  142.581">  2  3  1 -1</clus>
<clus scale="  160.427">  1  3  2 -1</clus>
</clustering>
</event>
<event>
 6    0  0.2036847E+002  0.1515735E+03  0.7546771E-02  0.1198553E+00
         21   -1    0    0  502  501  0.00000000000E+00  0.00000000000E+00  0.29124036880E+03  0.29124036880E+03  0.00000000000E+00 0. -1.
         21   -1    0    0  505  502 -0.00000000000E+00 -0.00000000000E+00 -0.76074258848E+03  0.76074258848E+03  0.00000000000E+00 0.  1.
         21    1    1    2  503  506 -0.23101964967E+00 -0.55673760158E+02 -0.16100121347E+03  0.17035554491E+03  0.00000000000E+00 0.  1.
         21    1    1    2  504  501 -0.34503355244E+02  0.26600664198E+02  0.53277958117E+02  0.68823089731E+02  0.00000000000E+00 0.  1.
         21    1    1    2  505  503  0.12053969273E+02 -0.84761629393E+02 -0.56893797088E+03  0.57534359012E+03  0.00000000000E+00 0.  1.
         21    1    1    2  506  504  0.22680405621E+02  0.11383472535E+03  0.20715900655E+03  0.23746073252E+03  0.00000000000E+00 0. -1.
<scales pt_clust_3="46.87357" pt_clust_4="43.56692" pt_clust_5="46.87357" pt_clust_6="139.93003"></scales>
<clustering>
<clus scale="   43.567">  1  4  2 -1</clus>
<clus scale="   46.874">  3  5 -1 -1</clus>
<clus scale="  139.930">  1  6  2 -1</clus>
<clus scale="   43.567">  1  3  2 -1</clus>
</clustering>
</event>
<event>
 6    0  0.2036847E+002  0.9960066E+02  0.7546771E-02  0.1281138E+00
         21   -1    0    0  504  501  0.00000000000E+00  0.00000000000E+00  0.44047523390E+03  0.44047523390E+03  0.00000000000E+00 0. -1.
         21   -1    0    0  503  502 -0.00000000000E+00 -0.00000000000E+00 -0.21893812142E+03  0.21893812142E+03  0.00000000000E+00 0.  1.
         21    1    1    2  503  505  0.68744154103E+02  0.94079119730E+02 -0.16046980407E+03  0.19831086080E+03  0.00000000000E+00 0.  1.
         21    1    1    2  504  506  0.18430673060E+01 -0.54193222852E+02  0.41500351670E+02  0.68283098120E+02  0.00000000000E+00 0.  1.
         21    1    1    2  505  501 -0.81568380570E+02 -0.77503786479E+01  0.34844091836E+03  0.35794488775E+03  0.00000000000E+00 0. -1.
         21    1    1    2  506  502  0.10981159160E+02 -0.32135518230E+02 -0.79343534772E+01  0.34874508649E+02  0.00000000000E+00 0. -1.
<scales pt_clust_3="14000.00000" pt_clust_4="56.43113" pt_clust_5="99.60066" pt_clust_6="33.95994"></scales>
<clustering>
<clus scale="   33.960">  2  6  1 -1</clus>
<clus scale="   56.431">  1  4  2 -1</clus>
<clus scale="   99.601">  1  5  2 -1</clus>
<clus scale="   56.431">  1  3  2 -1</clus>
</clustering>
</event>
<event>
 6    0  0.2036847E+002  0.1961953E+03  0.7546771E-02  0.1152989E+00
         21   -1    0    0  502  501  0.00000000000E+00  0.00000000000E+00  0.44517926617E+03  0.44517926617E+03  0.00000000000E+00 0.  1.
         21   -1    0    0  503  502 -0.00000000000E+00 -0.00000000000E+00 -0.11345760516E+03  0.11345760516E+03  0.00000000000E+00 0. -1.
         21    1    1    2  503  504 -0.38109409687E+02 -0.23540402906E+01  0.49540371370E+01  0.38502092104E+02  0.00000000000E+00 0.  1.
         21    1    1    2  504  506 -0.95082024860E+02  0.12619986776E+03  0.22981489280E+02  0.15967199793E+03  0.00000000000E+00 0. -1.
         21    1    1    2  505  501  0.74347647039E+02 -0.10179117506E+03  0.23901552512E+03  0.27021738876E+03  0.00000000000E+00 0.  1.
         21    1    1    2  506  505  0.58843787508E+02 -0.22054652405E+02  0.64770609469E+02  0.90245392526E+02  0.00000000000E+00 0. -1.
<scales pt_clust_3="36.17266" pt_clust_4="36.17266" pt_clust_5="194.02938" pt_clust_6="47.72975"></scales>
<clustering>
<clus scale="   36.173">  3  4 -1 -1</clus>
<clus scale="   47.730">  5  6 -1 -1</clus>
<clus scale="  194.029">  1  5  2 -1</clus>
<clus scale="  194.029">  1  3  2 -1</clus>
</clustering>
</event>
<event>
 6    0  0.2036847E+002  0.1189984E+03  0.7546771E-02  0.1244759E+00
         21   -1    0    0  505  501  0.00000000000E+00  0.00000000000E+00  0.22289474807E+03  0.22289474807E+03  0.00000000000E+00 0.  1.
         21   -1    0    0  503  502 -0.00000000000E+00 -0.00000000000E+00 -0.10377563036E+03  0.10377563036E+03  0.00000000000E+00 0.  1.
         21    1    1    2  503  501 -0.43510281476E+02  0.34345649898E+02  0.21091807021E+02  0.59309633151E+02  0.00000000000E+00 0.  1.
         21    1    1    2  504  502  0.13413859515E+03 -0.18696739858E+01  0.25498634014E+02  0.13655342810E+03  0.00000000000E+00 0.  1.
         21    1    1    2  505  506 -0.20632150445E+02 -0.32793107430E+02  0.22950305833E+02  0.45030990048E+02  0.00000000000E+00 0.  1.
         21    1    1    2  506  504 -0.69996163233E+02  0.31713151741E+00  0.49578370843E+02  0.85776327125E+02  0.00000000000E+00 0.  1.
<scales pt_clust_3="55.43256" pt_clust_4="107.60412" pt_clust_5="37.80388" pt_clust_6="37.80388"></scales>
<clustering>
<clus scale="   37.804">  5  6 -1 -1</clus>
<clus scale="   55.433">  2  3  1 -1</clus>
<clus scale="  107.604">  2  4  1 -1</clus>
<clus scale="  118.998">  1  3  2 -1</clus>
</clustering>
</event>
<event>
 6    0  0.2036847E+002  0.2786905E+03  0.7546771E-02  0.1096406E+00
         21   -1    0    0  502  501  0.00000000000E+00  0.00000000000E+00  0.73471367209E+03  0.73471367209E+03  0.00000000000E+00 0.  1.
         21   -1    0    0  504  502 -0.00000000000E+00 -0.00000000000E+00 -0.15639956456E+03  0.15639956456E+03  0.00000000000E+00 0. -1.
         21    1    1    2  503  506  0.43184468397E+02 -0.13133617334E+03 -0.86870500377E+01  0.13852636420E+03  0.00000000000E+00 0. -1.
         21    1    1    2  504  503 -0.25349432143E+01 -0.13476906880E+03  0.43224570430E+02  0.14155384605E+03  0.00000000000E+00 0.  1.
         21    1    1    2  505  501  0.20236793117E+02  0.90719085680E+02  0.18869613114E+03  0.21034664298E+03  0.00000000000E+00 0.  1.
         21    1    1    2  506  505 -0.60886318300E+02  0.17538615646E+03  0.35508045599E+03  0.40068638342E+03  0.00000000000E+00 0.  1.
<scales pt_clust_3="277.94259" pt_clust_4="68.32169" pt_clust_5="51.04324" pt_clust_6="51.04324"></scales>
<clustering>
<clus scale="   51.043">  5  6 -1 -1</clus>
<clus scale="   68.322">  3  4 -1 -1</clus>
<clus scale="  277.943">  2  3  1 -1</clus>
<clus scale="  278.690">  1  3  2 -1</clus>
</clustering>
</event>
<event>
 6    0  0.2036847E+002  0.1334766E+03  0.7546771E-02  0.1222386E+00
         21   -1    0    0  506  501  0.00000000000E+00  0.00000000000E+00  0.22299881449E+03  0.22299881449E+03  0.00000000000E+00 0. -1.
         21   -1    0    0  501  502 -0.00000000000E+00 -0.00000000000E+00 -0.42435252473E+03  0.42435252473E+03  0.00000000000E+00 0. -1.
         21    1    1    2  503  504  0.33765867962E+02  0.81841975549E+02  0.13318973048E+03  0.15993044459E+03  0.00000000000E+00 0. -1.
         21    1    1    2  504  505 -0.33743873395E+02 -0.60604442020E+02 -0.68348235026E+02  0.97380843164E+02  0.00000000000E+00 0.  1.
         21    1    1    2  505  502 -0.52796474568E+02 -0.34825212068E+02 -0.31231085998E+03  0.31865080635E+03  0.00000000000E+00 0. -1.
         21    1    1    2  506  503  0.52774480001E+02  0.13587678539E+02  0.46115654285E+02  0.71389245111E+02  0.00000000000E+00 0. -1.
<scales pt_clust_3="54.14217" pt_clust_4="114.25266" pt_clust_5="63.24763" pt_clust_6="54.14217"></scales>
<clustering>
<clus scale="   54.142">  3  6 -1 -1</clus>
<clus scale="   63.248">  2  5  1 -1</clus>
<clus scale="  114.253">  2  4  1 -1</clus>
<clus scale="  133.477">  1  3  2 -1</clus>
</clustering>
</event>
<event>
 6    0  0.2036847E+002  0.2353270E+03  0.7546771E-02  0.1122946E+00
         21   -1    0    0  502  501  0.00000000000E+00  0.00000000000E+00  0.38922776637E+03  0.38922776637E+03  0.00000000000E+00 0. -1.
         21   -1    0    0  505  502 -0.00000000000E+00 -0.00000000000E+00 -0.27090188349E+03  0.27090188349E+03  0.00000000000E+00 0. -1.
         21    1    1    2  503  504  0.24753116440E+02 -0.58044546354E+02  0.67233550112E+02  0.92207572333E+02  0.00000000000E+00 0. -1.
         21    1    1    2  504  501  0.11869368644E+03 -0.10000180725E+03  0.22638804094E+03  0.27448150709E+03  0.00000000000E+00 0. -1.
         21    1    1    2  505  506 -0.94577678335E+02  0.71806162499E+02 -0.39154943596E+02  0.12503668190E+03  0.00000000000E+00 0. -1.
         21    1    1    2  506  503 -0.48869124541E+02  0.86240191107E+02 -0.13614076458E+03  0.16840388854E+03  0.00000000000E+00 0. -1.
<scales pt_clust_3="33.08075" pt_clust_4="219.65255" pt_clust_5="90.55277" pt_clust_6="90.55277"></scales>
<clustering>
<clus scale="   33.081">  3  4 -1 -1</clus>
<clus scale="   90.553">  5  6 -1 -1</clus>
<clus scale="  219.653">  1  3  2 -1</clus>
<clus scale="  219.653">  1  3  2 -1</clus>
</clustering>
</event>
<event>
 6    0  0.2036847E+002  0.7890626E+02  0.7546771E-02  0.1332184E+00
         21   -1    0    0  505  501  0.00000000000E+00  0.00000000000E+00  0.63708754272E+03  0.63708754272E+03  0.00000000000E+00 0.  1.
         21   -1    0    0  503  502 -0.00000000000E+00 -0.00000000000E+00 -0.42463322439E+02  0.42463322439E+02  0.00000000000E+00 0.  1.
         21    1    1    2  503  504 -0.44940720490E+01 -0.12046087808E+03  0.15760545290E+03  0.19842000558E+03  0.00000000000E+00 0.  1.
         21    1    1    2  504  501  0.61347616934E+02  0.37986739984E+02  0.16546586120E+03  0.18051446961E+03  0.00000000000E+00 0.  1.
         21    1    1    2  505  506 -0.33167197365E+02  0.29192740308E+02  0.21462411434E+03  0.21912505453E+03  0.00000000000E+00 0.  1.
         21    1    1    2  506  502 -0.23686347520E+02  0.53281397790E+02  0.56928791848E+02  0.81491335432E+02  0.00000000000E+00 0.  1.
<scales pt_clust_3="78.90626" pt_clust_4="14000.00000" pt_clust_5="44.18460" pt_clust_6="64.99276"></scales>
<clustering>
<clus scale="   44.185">  1  5  2 -1</clus>
<clus scale="   64.993">  2  6  1 -1</clus>
<clus scale="   78.906">  2  3  1 -1</clus>
<clus scale="   44.185">  1  3  2 -1</clus>
</clustering>
</event>
<event>
 6    0  0.2036847E+002  0.1530906E+03  0.7546771E-02  0.1196726E+00
         21   -1    0    0  504  501  0.00000000000E+00  0.00000000000E+00  0.25903434107E+04  0.25903434107E+04  0.00000000000E+00 0.  1.
         21   -1    0    0  503  502 -0.00000000000E+00 -0.00000000000E+00 -0.67368518135E+03  0.67368518135E+03  0.00000000000E+00 0.  1.
         21    1    1    2  503  506 -0.90846977503E+02  0.39321803693E+02 -0.35516910247E+03  0.36870648071E+03  0.00000000000E+00 0. -1.
         21    1    1    2  504  505  0.57628411809E+02  0.74215073383E+02  0.51034429340E+03  0.51892216061E+03  0.00000000000E+00 0.  1.
         21    1    1    2  505  502 -0.62795597073E+02 -0.60190554354E+02 -0.29981466777E+03  0.31217787374E+03  0.00000000000E+00 0.  1.
         21    1    1    2  506  501  0.96014162768E+02 -0.53346322722E+02  0.20612977062E+04  0.20642220770E+04  0.00000000000E+00 0.  1.
<scales pt_clust_3="153.09060" pt_clust_4="92.95862" pt_clust_5="86.98385" pt_clust_6="14000.00000"></scales>
<clustering>
<clus scale="   86.984">  2  5  1 -1</clus>
<clus scale="   92.959">  1  4  2 -1</clus>
<clus scale="  153.091">  2  3  1 -1</clus>
<clus scale="   92.959">  1  3  2 -1</clus>
</clustering>
</event>
<event>
 6    0  0.2036847E+002  0.1769389E+03  0.7546771E-02  0.1170799E+00
         21   -1    0    0  505  501  0.00000000000E+00  0.00000000000E+00  0.11174965653E+04  0.11174965653E+04  0.00000000000E+00 0. -1.
         21   -1    0    0  503  502 -0.00000000000E+00 -0.00000000000E+00 -0.56355123584E+03  0.56355123584E+03  0.00000000000E+00 0.  1.
         21    1    1    2  503  506  0.42762975476E+02 -0.46298362121E+02 -0.50630944133E+02  0.80843694315E+02  0.00000000000E+00 0.  1.
         21    1    1    2  504  501 -0.48551580532E+02 -0.29135128714E+01  0.47403870556E+03  0.47652747969E+03  0.00000000000E+00 0. -1.
         21    1    1    2  505  502  0.93379265079E+02  0.16244417014E+03 -0.47017873652E+03  0.50613816279E+03  0.00000000000E+00 0.  1.
         21    1    1    2  506  504 -0.87590660024E+02 -0.11323229515E+03  0.60071630461E+03  0.61753846440E+03  0.00000000000E+00 0. -1.
<scales pt_clust_3="62.30723" pt_clust_4="48.63892" pt_clust_5="176.93891" pt_clust_6="14000.00000"></scales>
<clustering>
<clus scale="   48.639">  1  4  2 -1</clus>
<clus scale="   62.307">  2  3  1 -1</clus>
<clus scale="  176.939">  2  5  1 -1</clus>
<clus scale="   48.639">  1  3  2 -1</clus>
</clustering>
</event>
<event>
 6    0  0.2036847E+002  0.3611449E+03  0.7546771E-02  0.1058131E+00
         21   -1    0    0  502  501  0.00000000000E+00  0.00000000000E+00  0.10057333357E+04  0.10057333357E+04  0.00000000000E+00 0.  1.
         21   -1    0    0  504  502 -0.00000000000E+00 -0.00000000000E+00 -0.17562199815E+03  0.17562199815E+03  0.00000000000E+00 0. -1.
         21    1    1    2  503  505  0.14500428376E+03  0.33299682438E+02  0.72131985149E+02  0.16534247622E+03  0.00000000000E+00 0. -1.
         21    1    1    2  504  503  0.18002121868E+03  0.10544786023E+03  0.36611550428E+02  0.21181901715E+03  0.00000000000E+00 0. -1.
         21    1    1    2  505  506 -0.18450545963E+03 -0.61711850630E+02  0.37099367956E+03  0.41891159857E+03  0.00000000000E+00 0.  1.
         21    1    1    2  506  501 -0.14052004281E+03 -0.77035692036E+02  0.35037412240E+03  0.38528224190E+03  0.00000000000E+00 0.  1.
<scales pt_clust_3="62.81572" pt_clust_4="62.81572" pt_clust_5="355.46621" pt_clust_6="34.72310"></scales>
<clustering>
<clus scale="   34.723">  5  6 -1 -1</clus>
<clus scale="   62.816">  3  4 -1 -1</clus>
<clus scale="  355.466">  1  5  2 -1</clus>
<clus scale="  355.466">  1  3  2 -1</clus>
</clustering>
</event>
<event>
 6    0  0.2036847E+002  0.1230224E+03  0.7546771E-02  0.1238193E+00
         21   -1    0    0  504  501  0.00000000000E+00  0.00000000000E+00  0.15506705572E+03  0.15506705572E+03  0.00000000000E+00 0.  1.
         21   -1    0    0  506  502 -0.00000000000E+00 -0.00000000000E+00 -0.27372959391E+03  0.27372959391E+03  0.00000000000E+00 0.  1.
         21    1    1    2  503  505  0.55453395225E+02 -0.47008717394E+02  0.45613539271E+02  0.85822453460E+02  0.00000000000E+00 0.  1.
         21    1    1    2  504  502 -0.47152392992E+02  0.81273739860E+02 -0.14043256170E+03  0.16896766951E+03  0.00000000000E+00 0.  1.
         21    1    1    2  505  501  0.57605093200E+02 -0.46380481685E+01  0.45731400584E+02  0.73696806259E+02  0.00000000000E+00 0.  1.
         21    1    1    2  506  503 -0.65906095433E+02 -0.29626974297E+02 -0.69574916345E+02  0.10030972039E+03  0.00000000000E+00 0.  1.
<scales pt_clust_3="36.24886" pt_clust_4="116.11038" pt_clust_5="36.24886" pt_clust_6="72.25905"></scales>
<clustering>
<clus scale="   36.249">  3  5 -1 -1</clus>
<clus scale="   72.259">  2  6  1 -1</clus>
<clus scale="  116.110">  2  4  1 -1</clus>
<clus scale="  123.022">  1  3  2 -1</clus>
</clustering>
</event>
<event>
 6    0  0.2036847E+002  0.1087699E+03  0.7546771E-02  0.1262865E+00
         21   -1    0    0  502  501  0.00000000000E+00  0.00000000000E+00  0.10087717559E+04  0.10087717559E+04  0.00000000000E+00 0.  1.
         21   -1    0    0  503  502 -0.00000000000E+00 -0.00000000000E+00 -0.60549995760E+02  0.60549995760E+02  0.00000000000E+00 0.  1.
         21    1    1    2  503  504 -0.15689397051E+02  0.32671166275E+02  0.56959931667E+00  0.36247575491E+02  0.00000000000E+00 0.  1.
         21    1    1    2  504  505 -0.76793826251E+02  0.74944150390E+01  0.31121624664E+01  0.77221393164E+02  0.00000000000E+00 0.  1.
         21    1    1    2  505  506  0.74332397417E+02  0.20042153755E+02  0.37289254954E+03  0.38075693919E+03  0.00000000000E+00 0.  1.
         21    1    1    2  506  501  0.18150825886E+02 -0.60207735069E+02  0.57164744882E+03  0.57509584383E+03  0.00000000000E+00 0.  1.
<scales pt_clust_3="35.58102" pt_clust_4="35.58102" pt_clust_5="95.58062" pt_clust_6="62.88421"></scales>
<clustering>
<clus scale="   35.581">  3  4 -1 -1</clus>
<clus scale="   62.884">  1  6  2 -1</clus>
<clus scale="   95.581">  1  5  2 -1</clus>
<clus scale="   62.884">  1  3  2 -1</clus>
</clustering>
</event>
<event>
 6    0  0.2036847E+002  0.3406888E+03  0.7546771E-02  0.1066503E+00
         21   -1    0    0  503  501  0.00000000000E+00  0.00000000000E+00  0.74743878929E+03  0.74743878929E+03  0.00000000000E+00 0.  1.
         21   -1    0    0  506  502 -0.00000000000E+00 -0.00000000000E+00 -0.90470285037E+03  0.90470285037E+03  0.00000000000E+00 0.  1.
         21    1    1    2  503  502  0.77221942377E+02  0.28529283252E+03  0.66356493859E+03  0.72641149247E+03  0.00000000000E+00 0.  1.
         21    1    1    2  504  501  0.13457466638E+02  0.29818876557E+02  0.38060680055E+01  0.32935618426E+02  0.00000000000E+00 0. -1.
         21    1    1    2  505  504 -0.65216274425E+02 -0.77066188459E+02 -0.28790648845E+03  0.30509425748E+03  0.00000000000E+00 0.  1.
         21    1    1    2  506  505 -0.25463134590E+02 -0.23804552061E+03 -0.53672857922E+03  0.58770027127E+03  0.00000000000E+00 0.  1.
<scales pt_clust_3="326.38620" pt_clust_4="32.71496" pt_clust_5="63.45816" pt_clust_6="63.45816"></scales>
<clustering>
<clus scale="   32.715">  1  4  2 -1</clus>
<clus scale="   63.458">  5  6 -1 -1</clus>
<clus scale="  326.386">  1  3  2 -1</clus>
<clus scale="   32.715">  1  3  2 -1</clus>
</clustering>
</event>
<event>
 6    0  0.2036847E+002  0.1339789E+03  0.7546771E-02  0.1221668E+00
         21   -1    0    0  503  501  0.00000000000E+00  0.00000000000E+00  0.16448872047E+03  0.16448872047E+03  0.00000000000E+00 0.  1.
         21   -1    0    0  506  502 -0.00000000000E+00 -0.00000000000E+00 -0.31980740474E+03  0.31980740474E+03  0.00000000000E+00 0. -1.
         21    1    1    2  503  504 -0.19736450254E+02 -0.11335565565E+03  0.55543264142E+02  0.12776574786E+03  0.00000000000E+00 0.  1.
         21    1    1    2  504  502  0.29812342187E+02 -0.22266195583E+02 -0.97912592096E+02  0.10474461754E+03  0.00000000000E+00 0. -1.
         21    1    1    2  505  501 -0.34991786843E+02 -0.13350355791E+02  0.26766238306E+02  0.46033560141E+02  0.00000000000E+00 0.  1.
         21    1    1    2  506  505  0.24915894910E+02  0.14897220702E+03 -0.13971559462E+03  0.20575219966E+03  0.00000000000E+00 0. -1.
<scales pt_clust_3="133.97887" pt_clust_4="37.20967" pt_clust_5="36.60010" pt_clust_6="14000.00000"></scales>
<clustering>
<clus scale="   37.210">  2  4  1 -1</clus>
<clus scale="   36.600">  1  5  2 -1</clus>
<clus scale="  133.979">  1  3  2 -1</clus>
<clus scale="   36.600">  1  3  2 -1</clus>
</clustering>
</event>
<event>
 6    0  0.2036847E+002  0.1288518E+03  0.7546771E-02  0.1229170E+00
         21   -1    0    0  505  501  0.00000000000E+00  0.00000000000E+00  0.11667333766E+03  0.11667333766E+03  0.00000000000E+00 0.  1.
         21   -1    0    0  503  502 -0.00000000000E+00 -0.00000000000E+00 -0.13528169515E+04  0.13528169515E+04  0.00000000000E+00 0. -1.
         21    1    1    2  503  501 -0.46882948341E+01 -0.34341992399E+02 -0.22764275400E+02  0.41467635390E+02  0.00000000000E+00 0. -1.
         21    1    1    2  504  506 -0.10409729072E+02  0.47049735527E+02 -0.44683242726E+03  0.44942325054E+03  0.00000000000E+00 0. -1.
         21    1    1    2  505  504 -0.17317496596E+02 -0.87422329913E+02  0.85005941011E+02  0.12316074644E+03  0.00000000000E+00 0.  1.
         21    1    1    2  506  502  0.32415520502E+02  0.74714586785E+02 -0.85155285221E+03  0.85543865681E+03  0.00000000000E+00 0. -1.
<scales pt_clust_3="34.66053" pt_clust_4="30.27815" pt_clust_5="122.69197" pt_clust_6="30.27815"></scales>
<clustering>
<clus scale="   30.278">  4  6 -1 -1</clus>
<clus scale="   34.661">  1  3  2 -1</clus>
<clus scale="  122.692">  1  5  2 -1</clus>
<clus scale="   34.661">  1  3  2 -1</clus>
</clustering>
</event>
<event>
 6    0  0.2036847E+002  0.1249291E+03  0.7546771E-02  0.1235180E+00
         21   -1    0    0  505  501  0.00000000000E+00  0.00000000000E+00  0.47593408130E+03  0.47593408130E+03  0.00000000000E+00 0.  1.
         21   -1    0    0  506  502 -0.00000000000E+00 -0.00000000000E+00 -0.78471394922E+02  0.78471394922E+02  0.00000000000E+00 0. -1.
         21    1    1    2  503  501  0.26536005011E+02 -0.95791421099E+02 -0.55633650610E+01  0.99554542583E+02  0.00000000000E+00 0. -1.
         21    1    1    2  504  502 -0.24967124523E+02  0.47480324934E+02  0.17538148840E+03  0.18340230379E+03  0.00000000000E+00 0.  1.
         21    1    1    2  505  504  0.21078710231E+02  0.71411490838E+02  0.22720625154E+03  0.23909536546E+03  0.00000000000E+00 0. -1.
         21    1    1    2  506  503 -0.22647590719E+02 -0.23100394673E+02  0.43831150398E+00  0.32353264385E+02  0.00000000000E+00 0. -1.
<scales pt_clust_3="115.45674" pt_clust_4="41.02803" pt_clust_5="41.02803" pt_clust_6="32.35030"></scales>
<clustering>
<clus scale="   32.350">  2  6  1 -1</clus>
<clus scale="   41.028">  4  5 -1 -1</clus>
<clus scale="  115.457">  2  3  1 -1</clus>
<clus scale="  124.929">  1  3  2 -1</clus>
</clustering>
</event>
<event>
 6    0  0.2036847E+002  0.1537880E+03  0.7546771E-02  0.1195894E+00
         21   -1    0    0  504  501  0.00000000000E+00  0.00000000000E+00  0.24504756342E+03  0.24504756342E+03  0.00000000000E+00 0. -1.
         21   -1    0    0  505  502 -0.00000000000E+00 -0.00000000000E+00 -0.56855457721E+03  0.56855457721E+03  0.00000000000E+00 0.  1.
         21    1    1    2  503  502  0.53552655807E+02  0.73179389732E+02 -0.79893722265E+02  0.12085576893E+03  0.00000000000E+00 0.  1.
         21    1    1    2  504  506 -0.50345267952E+02  0.28746495295E+02  0.69091533247E+02  0.90192277737E+02  0.00000000000E+00 0. -1.
         21    1    1    2  505  501  0.94727214974E+02 -0.94466716922E+02 -0.42955669597E+03  0.44990683582E+03  0.00000000000E+00 0.  1.
         21    1    1    2  506  503 -0.97934602828E+02 -0.74591681041E+01  0.11685187119E+03  0.15264725815E+03  0.00000000000E+00 0. -1.
<scales pt_clust_3="90.68137" pt_clust_4="33.97879" pt_clust_5="147.29131" pt_clust_6="33.97879"></scales>
<clustering>
<clus scale="   33.979">  4  6 -1 -1</clus>
<clus scale="   90.681">  2  3  1 -1</clus>
<clus scale="  147.291">  2  5  1 -1</clus>
<clus scale="  153.788">  1  3  2 -1</clus>
</clustering>
</event>
<event>
 6    0  0.2036847E+002  0.1355359E+03  0.7546771E-02  0.1219465E+00
         21   -1    0    0  505  501  0.00000000000E+00  0.00000000000E+00  0.23993773908E+03  0.23993773908E+03  0.00000000000E+00 0. -1.
         21   -1    0    0  506  502 -0.00000000000E+00 -0.00000000000E+00 -0.24616542633E+03  0.24616542633E+03  0.00000000000E+00 0.  1.
         21    1    1    2  503  501 -0.13506919777E+02  0.34665154001E+02  0.24037807237E+02  0.44293633409E+02  0.00000000000E+00 0.  1.
         21    1    1    2  504  503 -0.60717172072E+02 -0.32490857279E+02 -0.78817007741E+02  0.10466303789E+03  0.00000000000E+00 0.  1.
         21    1    1    2  505  502  0.13424382075E+03 -0.23676724251E+02  0.15911244661E+03  0.20952031250E+03  0.00000000000E+00 0. -1.
         21    1    1    2  506  504 -0.60019728904E+02  0.21502427529E+02 -0.11056093336E+03  0.12762618161E+03  0.00000000000E+00 0.  1.
<scales pt_clust_3="37.20363" pt_clust_4="56.61970" pt_clust_5="122.36763" pt_clust_6="56.61970"></scales>
<clustering>
<clus scale="   37.204">  1  3  2 -1</clus>
<clus scale="   56.620">  4  6 -1 -1</clus>
<clus scale="  122.368">  1  5  2 -1</clus>
<clus scale="   37.204">  1  3  2 -1</clus>
</clustering>
</event>
<event>
 6    0  0.2036847E+002  0.2098338E+03  0.7546771E-02  0.1141698E+00
         21   -1    0    0  506  501  0.00000000000E+00  0.00000000000E+00  0.15766014970E+04  0.15766014970E+04  0.00000000000E+00 0. -1.
         21   -1    0    0  503  502 -0.00000000000E+00 -0.00000000000E+00 -0.33787044263E+02  0.33787044263E+02  0.00000000000E+00 0. -1.
         21    1    1    2  503  501  0.20237356859E+02 -0.24314533274E+02  0.67744724578E+02  0.74766936872E+02  0.00000000000E+00 0. -1.
         21    1    1    2  504  505 -0.10298013383E+03 -0.22937687586E+02  0.54541116381E+03  0.55552172152E+03  0.00000000000E+00 0. -1.
         21    1    1    2  505  502  0.19075938171E+03  0.53000626006E+02  0.52045096378E+03  0.55683697234E+03  0.00000000000E+00 0. -1.
         21    1    1    2  506  504 -0.10801660474E+03 -0.57484051458E+01  0.40920760055E+03  0.42326291051E+03  0.00000000000E+00 0. -1.
<scales pt_clust_3="31.63459" pt_clust_4="37.01212" pt_clust_5="206.51965" pt_clust_6="37.01212"></scales>
<clustering>
<clus scale="   31.635">  2  3  1 -1</clus>
<clus scale="   37.012">  4  6 -1 -1</clus>
<clus scale="  206.520">  2  5  1 -1</clus>
<clus scale="  209.834">  1  3  2 -1</clus>
</clustering>
</event>
<event>
 6    0  0.2036847E+002  0.1663587E+03  0.7546771E-02  0.1181699E+00
         21   -1    0    0  503  501  0.00000000000E+00  0.00000000000E+00  0.84014388175E+03  0.84014388175E+03  0.00000000000E+00 0.  1.
         21   -1    0    0  504  502 -0.00000000000E+00 -0.00000000000E+00 -0.26310626207E+03  0.26310626207E+03  0.00000000000E+00 0. -1.
         21    1    1    2  503  502  0.56266045596E+02 -0.23935558818E+02  0.73473460340E+02  0.95588326888E+02  0.00000000000E+00 0.  1.
         21    1    1    2  504  505  0.74528597505E+02  0.50918537723E+02 -0.14724806794E+03  0.17271132806E+03  0.00000000000E+00 0. -1.
         21    1    1    2  505  506  0.68654691974E+02  0.14736041776E+02 -0.61946246397E+02  0.93637359531E+02  0.00000000000E+00 0. -1.
         21    1    1    2  506  501 -0.19944933508E+03 -0.41719020681E+02  0.71275847367E+03  0.74131312934E+03  0.00000000000E+00 0.  1.
<scales pt_clust_3="61.14555" pt_clust_4="42.91484" pt_clust_5="42.91484" pt_clust_6="159.08438"></scales>
<clustering>
<clus scale="   42.915">  4  5 -1 -1</clus>
<clus scale="   61.146">  1  3  2 -1</clus>
<clus scale="  159.084">  1  6  2 -1</clus>
<clus scale="   61.146">  1  3  2 -1</clus>
</clustering>
</event>
<event>
 6    0  0.2036847E+002  0.1100949E+03  0.7546771E-02  0.1260394E+00
         21   -1    0    0  503  501  0.00000000000E+00  0.00000000000E+00  0.94342964342E+02  0.94342964342E+02  0.00000000000E+00 0. -1.
         21   -1    0    0  504  502 -0.00000000000E+00 -0.00000000000E+00 -0.21931329534E+04  0.21931329534E+04  0.00000000000E+00 0. -1.
         21    1    1    2  503  502 -0.21250025198E+01 -0.73356504756E+02 -0.13411166052E+04  0.13431230179E+04  0.00000000000E+00 0. -1.
         21    1    1    2  504  505 -0.18908997292E+02  0.45587840248E+02 -0.64027602451E+03  0.64217535683E+03  0.00000000000E+00 0. -1.
         21    1    1    2  505  506 -0.38722549601E+00 -0.86465089885E+02 -0.15712951267E+03  0.17934894888E+03  0.00000000000E+00 0.  1.
         21    1    1    2  506  501  0.21421225308E+02  0.11423375439E+03  0.39732153310E+02  0.12282859416E+03  0.00000000000E+00 0. -1.
<scales pt_clust_3="38.63627" pt_clust_4="49.35384" pt_clust_5="110.09485" pt_clust_6="14000.00000"></scales>
<clustering>
<clus scale="   49.354">  2  4  1 -1</clus>
<clus scale="   38.636">  2  3  1 -1</clus>
<clus scale="  110.095">  2  5  1 -1</clus>
<clus scale="  110.095">  1  3  2 -1</clus>
</clustering>
</event>
<event>
 6    0  0.2036847E+002  0.1436888E+03  0.7546771E-02  0.1208450E+00
         21   -1    0    0  506  501  0.00000000000E+00  0.00000000000E+00  0.47829458722E+02  0.47829458722E+02  0.00000000000E+00 0.  1.
         21   -1    0    0  503  502 -0.00000000000E+00 -0.00000000000E+00 -0.26223356497E+04  0.26223356497E+04  0.00000000000E+00 0. -1.
         21    1    1    2  503  505 -0.84464193764E+02  0.40413278057E+02 -0.41840490244E+02  0.10255759209E+03  0.00000000000E+00 0.  1.
         21    1    1    2  504  502  0.28571603950E+02 -0.98307081097E+02 -0.14633719190E+04  0.14669485308E+04  0.00000000000E+00 0. -1.
         21    1    1    2  505  501  0.21144920064E+02  0.80844039847E+02 -0.99343701169E+02  0.12981539733E+03  0.00000000000E+00 0. -1.
         21    1    1    2  506  504  0.34747669751E+02 -0.22950236807E+02 -0.96995008055E+03  0.97084358817E+03  0.00000000000E+00 0. -1.
<scales pt_clust_3="132.60725" pt_clust_4="35.29073" pt_clust_5="83.56355" pt_clust_6="35.29073"></scales>
<clustering>
<clus scale="   35.291">  4  6 -1 -1</clus>
<clus scale="   83.564">  1  5  2 -1</clus>
<clus scale="  132.607">  1  3  2 -1</clus>
<clus scale="   83.564">  1  3  2 -1</clus>
</clustering>
</event>
<event>
 6    0  0.2036847E+002  0.1410777E+03  0.7546771E-02  0.1211886E+00
         21   -1    0    0  505  501  0.00000000000E+00  0.00000000000E+00  0.35633486086E+03  0.35633486086E+03  0.00000000000E+00 0.  1.
         21   -1    0    0  504  502 -0.00000000000E+00 -0.00000000000E+00 -0.30312317091E+03  0.30312317091E+03  0.00000000000E+00 0. -1.
         21    1    1    2  503  506  0.69506998128E+02 -0.12524216082E+03 -0.18014339975E+03  0.23014879124E+03  0.00000000000E+00 0. -1.
         21    1    1    2  504  501 -0.18512829805E+02  0.11363341632E+03  0.28139718506E+03  0.30403890200E+03  0.00000000000E+00 0.  1.
         21    1    1    2  505  503  0.12479143796E+02  0.33188239069E+02  0.97335246661E+01  0.36768597265E+02  0.00000000000E+00 0. -1.
         21    1    1    2  506  502 -0.63473312118E+02 -0.21579494562E+02 -0.57775620022E+02  0.88501741258E+02  0.00000000000E+00 0. -1.
<scales pt_clust_3="141.07767" pt_clust_4="14000.00000" pt_clust_5="35.45685" pt_clust_6="66.01572"></scales>
<clustering>
<clus scale="   35.457">  1  5  2 -1</clus>
<clus scale="   66.016">  2  6  1 -1</clus>
<clus scale="  141.078">  2  3  1 -1</clus>
<clus scale="   35.457">  1  3  2 -1</clus>
</clustering>
</event>
<event>
 6    0  0.2036847E+002  0.1427029E+03  0.7546771E-02  0.1209738E+00
         21   -1    0    0  503  501  0.00000000000E+00  0.00000000000E+00  0.63223320365E+03  0.63223320365E+03  0.00000000000E+00 0. -1.
         21   -1    0    0  504  502 -0.00000000000E+00 -0.00000000000E+00 -0.21121159450E+03  0.21121159450E+03  0.00000000000E+00 0. -1.
         21    1    1    2  503  506 -0.38996003064E+02  0.72691561906E+02 -0.84292048246E+02  0.11794024260E+03  0.00000000000E+00 0. -1.
         21    1    1    2  504  505  0.19152831142E+02 -0.71950933364E+02  0.22911007640E+03  0.24090494984E+03  0.00000000000E+00 0. -1.
         21    1    1    2  505  501  0.18854114647E+02 -0.57836309662E+02  0.36990238236E+03  0.37487102960E+03  0.00000000000E+00 0. -1.
         21    1    1    2  506  502  0.98905727564E+00  0.57095681120E+02 -0.93698801369E+02  0.10972857611E+03  0.00000000000E+00 0. -1.
<scales pt_clust_3="141.95897" pt_clust_4="41.17279" pt_clust_5="41.17279" pt_clust_6="35.91272"></scales>
<clustering>
<clus scale="   35.913">  3  6 -1 -1</clus>
<clus scale="   41.173">  4  5 -1 -1</clus>
<clus scale="  141.959">  2  3  1 -1</clus>
<clus scale="  142.703">  1  3  2 -1</clus>
</clustering>
</event>
<event>
 6    0  0.2036847E+002  0.1797606E+03  0.7546771E-02  0.1168035E+00
         21   -1    0    0  505  501  0.00000000000E+00  0.00000000000E+00  0.35472700034E+03  0.35472700034E+03  0.00000000000E+00 0. -1.
         21   -1    0    0  506  502 -0.00000000000E+00 -0.00000000000E+00 -0.52173154823E+03  0.52173154823E+03  0.00000000000E+00 0.  1.
         21    1    1    2  503  501  0.10824649649E+03 -0.67162627721E+02  0.26526062899E+03  0.29426403765E+03  0.00000000000E+00 0. -1.
         21    1    1    2  504  503  0.37878734954E+02 -0.32483164705E+02  0.39541027643E+02  0.63666690019E+02  0.00000000000E+00 0. -1.
         21    1    1    2  505  502 -0.11188734800E+03  0.33313525904E+02 -0.16092361125E+03  0.19880889897E+03  0.00000000000E+00 0.  1.
         21    1    1    2  506  504 -0.34237883444E+02  0.66332266521E+02 -0.31088259327E+03  0.31971892194E+03  0.00000000000E+00 0.  1.
<scales pt_clust_3="39.22776" pt_clust_4="39.22776" pt_clust_5="168.47958" pt_clust_6="74.64719"></scales>
<clustering>
<clus scale="   39.228">  3  4 -1 -1</clus>
<clus scale="   74.647">  2  6  1 -1</clus>
<clus scale="  168.480">  2  5  1 -1</clus>
<clus scale="  179.761">  1  3  2 -1</clus>
</clustering>
</event>
<event>
 6    0  0.2036847E+002  0.1151274E+03  0.7546771E-02  0.1251359E+00
         21   -1    0    0  503  501  0.00000000000E+00  0.00000000000E+00  0.88664765865E+03  0.88664765865E+03  0.00000000000E+00 0.  1.
         21   -1    0    0  505  502 -0.00000000000E+00 -0.00000000000E+00 -0.84194875142E+02  0.84194875142E+02  0.00000000000E+00 0.  1.
         21    1    1    2  503  506  0.57074727046E+02  0.74432756265E+02  0.68664425373E+02  0.11624355029E+03  0.00000000000E+00 0.  1.
         21    1    1    2  504  501  0.22146631862E+02 -0.68959830596E+02  0.60741926758E+03  0.61172223939E+03  0.00000000000E+00 0.  1.
         21    1    1    2  505  504 -0.11671259024E+02 -0.38733798274E+02  0.15659922962E+03  0.16174005111E+03  0.00000000000E+00 0. -1.
         21    1    1    2  506  502 -0.67550099884E+02  0.33260872605E+02 -0.30230139073E+02  0.81136692989E+02  0.00000000000E+00 0.  1.
<scales pt_clust_3="102.18764" pt_clust_4="39.63078" pt_clust_5="39.63078" pt_clust_6="75.29477"></scales>
<clustering>
<clus scale="   39.631">  4  5 -1 -1</clus>
<clus scale="   75.295">  2  6  1 -1</clus>
<clus scale="  102.188">  2  3  1 -1</clus>
<clus scale="  115.127">  1  3  2 -1</clus>
</clustering>
</event>
<event>
 6    0  0.3503037E+002  0.7801239E+02  0.7546771E-02  0.1334788E+00
         21   -1    0    0  503  501  0.00000000000E+00  0.00000000000E+00  0.45221111519E+03  0.45221111519E+03  0.00000000000E+00 0. -1.
         21   -1    0    0  504  502 -0.00000000000E+00 -0.00000000000E+00 -0.21441014257E+04  0.21441014257E+04  0.00000000000E+00 0.  1.
         21    1    1    2  503  506 -0.33933928977E+02 -0.17897707118E+02 -0.32259870850E+02  0.50125230405E+02  0.00000000000E+00 0. -1.
         21    1    1    2  504  505 -0.54262226040E+02 -0.75656917836E+02  0.38415891869E+03  0.39528019581E+03  0.00000000000E+00 0. -1.
         21    1    1    2  505  501  0.51912126171E+02  0.24523834445E+02  0.37229510808E+02  0.68427507441E+02  0.00000000000E+00 0.  1.
         21    1    1    2  506  502  0.36284028845E+02  0.69030790509E+02 -0.20810188692E+04  0.20824796072E+04  0.00000000000E+00 0.  1.
<scales pt_clust_3="38.36456" pt_clust_4="78.01239" pt_clust_5="52.84595" pt_clust_6="14000.00000"></scales>
<clustering>
<clus scale="   38.365">  1  3  2 -1</clus>
<clus scale="   52.846">  1  5  2 -1</clus>
<clus scale="   78.012">  1  4  2 -1</clus>
<clus scale="   38.365">  1  3  2 -1</clus>
</clustering>
</event>
<event>
 6    0  0.2036847E+002  0.1483884E+03  0.7546771E-02  0.1202467E+00
         21   -1    0    0  506  501  0.00000000000E+00  0.00000000000E+00  0.49287222402E+03  0.49287222402E+03  0.00000000000E+00 0. -1.
         21   -1    0    0  503  502 -0.00000000000E+00 -0.00000000000E+00 -0.97769765142E+02  0.97769765142E+02  0.00000000000E+00 0. -1.
         21    1    1    2  503  504 -0.47460754097E+02  0.39074697219E+01  0.40825650682E+02  0.62725794157E+02  0.00000000000E+00 0. -1.
         21    1    1    2  504  505  0.27831651930E+02 -0.69171762494E+02  0.64547966968E+02  0.98619336924E+02  0.00000000000E+00 0. -1.
         21    1    1    2  505  501  0.96574099876E+02  0.14175293606E+03  0.26870629494E+03  0.31878444847E+03  0.00000000000E+00 0. -1.
         21    1    1    2  506  502 -0.76944997709E+02 -0.76488643291E+02  0.21022546292E+02  0.11051240961E+03  0.00000000000E+00 0. -1.
<scales pt_clust_3="47.62133" pt_clust_4="70.86749" pt_clust_5="148.38838" pt_clust_6="14000.00000"></scales>
<clustering>
<clus scale="   47.621">  2  3  1 -1</clus>
<clus scale="   70.867">  2  4  1 -1</clus>
<clus scale="  148.388">  1  5  2 -1</clus>
<clus scale="  148.388">  1  3  2 -1</clus>
</clustering>
</event>
<event>
 6    0  0.2036847E+002  0.8446306E+02  0.7546771E-02  0.1316843E+00
         21   -1    0    0  503  501  0.00000000000E+00  0.00000000000E+00  0.24929866481E+04  0.24929866481E+04  0.00000000000E+00 0. -1.
         21   -1    0    0  504  502 -0.00000000000E+00 -0.00000000000E+00 -0.35272820304E+02  0.35272820304E+02  0.00000000000E+00 0.  1.
         21    1    1    2  503  506  0.47359809509E+02  0.20649985134E+02  0.21028688237E+04  0.21035034260E+04  0.00000000000E+00 0. -1.
         21    1    1    2  504  501 -0.35042183556E+02  0.57832220970E+01  0.33651018396E+02  0.48926386800E+02  0.00000000000E+00 0. -1.
         21    1    1    2  505  502  0.12669677357E+02 -0.95748361894E+02  0.85855104591E+02  0.12922603652E+03  0.00000000000E+00 0.  1.
         21    1    1    2  506  505 -0.24987303310E+02  0.69315154663E+02  0.23533888111E+03  0.24660361910E+03  0.00000000000E+00 0.  1.
<scales pt_clust_3="51.32418" pt_clust_4="35.51620" pt_clust_5="14000.00000" pt_clust_6="84.46306"></scales>
<clustering>
<clus scale="   35.516">  2  4  1 -1</clus>
<clus scale="   51.324">  1  3  2 -1</clus>
<clus scale="   84.463">  1  6  2 -1</clus>
<clus scale="   51.324">  1  3  2 -1</clus>
</clustering>
</event>
<event>
 6    0  0.2444999E+002  0.7785878E+02  0.7546771E-02  0.1335240E+00
         21   -1    0    0  504  501  0.00000000000E+00  0.00000000000E+00  0.20339977212E+04  0.20339977212E+04  0.00000000000E+00 0.  1.
         21   -1    0    0  505  502 -0.00000000000E+00 -0.00000000000E+00 -0.36214038393E+03  0.36214038393E+03  0.00000000000E+00 0. -1.
         21    1    1    2  503  502 -0.61082237484E+02 -0.30751723016E+02 -0.32142468152E+03  0.32861913228E+03  0.00000000000E+00 0. -1.
         21    1    1    2  504  503 -0.31305097589E+02 -0.23445511916E+02  0.14931212410E+03  0.15434964065E+03  0.00000000000E+00 0.  1.
         21    1    1    2  505  506  0.10697602309E+02 -0.28531189668E+02 -0.25716027479E+02  0.39872064761E+02  0.00000000000E+00 0. -1.
         21    1    1    2  506  501  0.81689732764E+02  0.82728424600E+02  0.18696859221E+04  0.18732972674E+04  0.00000000000E+00 0.  1.
<scales pt_clust_3="77.85878" pt_clust_4="39.17735" pt_clust_5="30.47076" pt_clust_6="14000.00000"></scales>
<clustering>
<clus scale="   30.471">  2  5  1 -1</clus>
<clus scale="   39.177">  1  4  2 -1</clus>
<clus scale="   77.859">  2  3  1 -1</clus>
<clus scale="   39.177">  1  3  2 -1</clus>
</clustering>
</event>
<event>
 6    0  0.2036847E+002  0.1790609E+03  0.7546771E-02  0.1168715E+00
         21   -1    0    0  504  501  0.00000000000E+00  0.00000000000E+00  0.18647616237E+04  0.18647616237E+04  0.00000000000E+00 0.  1.
         21   -1    0    0  501  502 -0.00000000000E+00 -0.00000000000E+00 -0.38380029431E+03  0.38380029431E+03  0.00000000000E+00 0. -1.
         21    1    1    2  503  505 -0.10512565091E+03  0.34373200778E+02  0.11160213325E+04  0.11214885349E+04  0.00000000000E+00 0.  1.
         21    1    1    2  504  503 -0.62594009679E+02 -0.27602498173E+02  0.72430621295E+03  0.72752965442E+03  0.00000000000E+00 0.  1.
         21    1    1    2  505  506  0.11492344450E+03 -0.82601825568E+01 -0.29221249909E+03  0.31410790079E+03  0.00000000000E+00 0. -1.
         21    1    1    2  506  502  0.52796216089E+02  0.14894799525E+01 -0.67153716945E+02  0.85435827867E+02  0.00000000000E+00 0. -1.
<scales pt_clust_3="49.03290" pt_clust_4="49.03290" pt_clust_5="174.61705" pt_clust_6="32.57885"></scales>
<clustering>
<clus scale="   32.579">  5  6 -1 -1</clus>
<clus scale="   49.033">  3  4 -1 -1</clus>
<clus scale="  174.617">  2  5  1 -1</clus>
<clus scale="  179.061">  1  3  2 -1</clus>
</clustering>
</event>
<event>
 6    0  0.2036847E+002  0.1055906E+03  0.7546771E-02  0.1268960E+00
         21   -1    0    0  504  501  0.00000000000E+00  0.00000000000E+00  0.64191642797E+02  0.64191642797E+02  0.00000000000E+00 0.  1.
         21   -1    0    0  505  502 -0.00000000000E+00 -0.00000000000E+00 -0.10107630208E+04  0.10107630208E+04  0.00000000000E+00 0. -1.
         21    1    1    2  503  502  0.29325852168E+01  0.38496912141E+02 -0.43967754138E+03  0.44136940616E+03  0.00000000000E+00 0. -1.
         21    1    1    2  504  503  0.99841780597E+02  0.10127519693E+02 -0.49547751220E+03  0.50553824079E+03  0.00000000000E+00 0. -1.
         21    1    1    2  505  506 -0.59354310637E+02 -0.40552407855E+02  0.19083590515E+02  0.74374830427E+02  0.00000000000E+00 0.  1.
         21    1    1    2  506  501 -0.43420055176E+02 -0.80720239791E+01 -0.30499914950E+02  0.53672186229E+02  0.00000000000E+00 0.  1.
<scales pt_clust_3="38.60845" pt_clust_4="105.59064" pt_clust_5="14000.00000" pt_clust_6="43.51912"></scales>
<clustering>
<clus scale="   38.608">  2  3  1 -1</clus>
<clus scale="   43.519">  1  6  2 -1</clus>
<clus scale="  105.591">  2  4  1 -1</clus>
<clus scale="   43.519">  1  3  2 -1</clus>
</clustering>
</event>
<event>
 6    0  0.2036847E+002  0.2156993E+03  0.7546771E-02  0.1137131E+00
         21   -1    0    0  504  501  0.00000000000E+00  0.00000000000E+00  0.40789504049E+03  0.40789504049E+03  0.00000000000E+00 0.  1.
         21   -1    0    0  505  502 -0.00000000000E+00 -0.00000000000E+00 -0.11703530218E+03  0.11703530218E+03  0.00000000000E+00 0.  1.
         21    1    1    2  503  502 -0.29799968031E+02  0.71907456563E+02  0.45052497425E+02  0.89935798925E+02  0.00000000000E+00 0. -1.
         21    1    1    2  504  503 -0.92056173337E+02  0.99082302815E+02  0.51622164615E+02  0.14476356468E+03  0.00000000000E+00 0.  1.
         21    1    1    2  505  506  0.20234163701E+02 -0.60705093745E+02  0.75599403586E+02  0.99044432503E+02  0.00000000000E+00 0.  1.
         21    1    1    2  506  501  0.10162197767E+03 -0.11028466563E+03  0.11858567268E+03  0.19118654656E+03  0.00000000000E+00 0.  1.
<scales pt_clust_3="30.82876" pt_clust_4="213.86398" pt_clust_5="32.26477" pt_clust_6="32.26477"></scales>
<clustering>
<clus scale="   30.829">  3  4 -1 -1</clus>
<clus scale="   32.265">  5  6 -1 -1</clus>
<clus scale="  213.864">  2  3  1 -1</clus>
<clus scale="  215.699">  1  3  2 -1</clus>
</clustering>
</event>
<event>
 6    0  0.2036847E+002  0.1738090E+03  0.7546771E-02  0.1173933E+00
         21   -1    0    0  505  501  0.00000000000E+00  0.00000000000E+00  0.95322948597E+03  0.95322948597E+03  0.00000000000E+00 0. -1.
         21   -1    0    0  501  502 -0.00000000000E+00 -0.00000000000E+00 -0.74166249113E+02  0.74166249113E+02  0.00000000000E+00 0. -1.
         21    1    1    2  503  502 -0.34762901079E+02  0.31878574904E+02  0.34810748255E+02  0.58621591785E+02  0.00000000000E+00 0.  1.
         21    1    1    2  504  506  0.40373200469E+02 -0.96665506382E+02  0.47008470155E+02  0.11482165173E+03  0.00000000000E+00 0. -1.
         21    1    1    2  505  504 -0.92734360388E+01  0.15893837902E+03  0.70256525232E+03  0.72037860789E+03  0.00000000000E+00 0. -1.
         21    1    1    2  506  503  0.36631366484E+01 -0.94151447545E+02  0.94678766136E+02  0.13357388368E+03  0.00000000000E+00 0. -1.
<scales pt_clust_3="47.16676" pt_clust_4="56.42465" pt_clust_5="164.11825" pt_clust_6="56.42465"></scales>
<clustering>
<clus scale="   47.167">  2  3  1 -1</clus>
<clus scale="   56.425">  4  6 -1 -1</clus>
<clus scale="  164.118">  1  5  2 -1</clus>
<clus scale="  164.118">  1  3  2 -1</clus>
</clustering>
</event>
<event>
 6    0  0.2036847E+002  0.1130172E+03  0.7546771E-02  0.1255082E+00
         21   -1    0    0  504  501  0.00000000000E+00  0.00000000000E+00  0.54659929594E+03  0.54659929594E+03  0.00000000000E+00 0. -1.
         21   -1    0    0  506  502 -0.00000000000E+00 -0.00000000000E+00 -0.10979914850E+03  0.10979914850E+03  0.00000000000E+00 0.  1.
         21    1    1    2  503  502 -0.64938154641E+02 -0.74785591286E+02  0.25625207453E+03  0.27472709057E+03  0.00000000000E+00 0. -1.
         21    1    1    2  504  503 -0.25553723356E+02 -0.18334656148E+02  0.22719862697E+03  0.22936514227E+03  0.00000000000E+00 0. -1.
         21    1    1    2  505  501  0.34420971680E+02  0.57694238611E+02 -0.53149681738E+02  0.85663978013E+02  0.00000000000E+00 0.  1.
         21    1    1    2  506  505  0.56070906317E+02  0.35426008824E+02  0.64991276850E+01  0.66642233584E+02  0.00000000000E+00 0.  1.
<scales pt_clust_3="14000.00000" pt_clust_4="31.45079" pt_clust_5="113.01721" pt_clust_6="62.71789"></scales>
<clustering>
<clus scale="   31.451">  1  4  2 -1</clus>
<clus scale="   62.718">  2  6  1 -1</clus>
<clus scale="  113.017">  2  5  1 -1</clus>
<clus scale="   31.451">  1  3  2 -1</clus>
</clustering>
</event>
<event>
 6    0  0.2036847E+002  0.2308520E+03  0.7546771E-02  0.1126041E+00
         21   -1    0    0  505  501  0.00000000000E+00  0.00000000000E+00  0.47134538841E+03  0.47134538841E+03  0.00000000000E+00 0. -1.
         21   -1    0    0  504  502 -0.00000000000E+00 -0.00000000000E+00 -0.62971028529E+03  0.62971028529E+03  0.00000000000E+00 0. -1.
         21    1    1    2  503  502 -0.11935820057E+03 -0.23101492846E+03 -0.13121459061E+03  0.29125855524E+03  0.00000000000E+00 0. -1.
         21    1    1    2  504  506  0.12255437441E+03  0.18314426576E+03 -0.37558479953E+03  0.43545991596E+03  0.00000000000E+00 0. -1.
         21    1    1    2  505  503  0.33026264694E+02 -0.37310967157E+01  0.17716296263E+02  0.37663276486E+02  0.00000000000E+00 0.  1.
         21    1    1    2  506  501 -0.36222438532E+02  0.51601759414E+02  0.33071819700E+03  0.33667392601E+03  0.00000000000E+00 0. -1.
<scales pt_clust_3="14000.00000" pt_clust_4="230.85203" pt_clust_5="33.23635" pt_clust_6="50.10524"></scales>
<clustering>
<clus scale="   33.236">  1  5  2 -1</clus>
<clus scale="   50.105">  1  6  2 -1</clus>
<clus scale="  230.852">  2  4  1 -1</clus>
<clus scale="   33.236">  1  3  2 -1</clus>
</clustering>
</event>
<event>
 6    0  0.2036847E+002  0.8464875E+02  0.7546771E-02  0.1316354E+00
         21   -1    0    0  503  501  0.00000000000E+00  0.00000000000E+00  0.62636701746E+03  0.62636701746E+03  0.00000000000E+00 0.  1.
         21   -1    0    0  505  502 -0.00000000000E+00 -0.00000000000E+00 -0.77923432500E+02  0.77923432500E+02  0.00000000000E+00 0. -1.
         21    1    1    2  503  502  0.49021431439E+02  0.34591410714E+02  0.48055765156E+02  0.76870169768E+02  0.00000000000E+00 0.  1.
         21    1    1    2  504  506 -0.44654656664E+02  0.46439216451E+02  0.15811904421E+03  0.17074036233E+03  0.00000000000E+00 0.  1.
         21    1    1    2  505  504  0.55661971621E+02 -0.59311124058E+02 -0.24065911727E+02  0.84824717088E+02  0.00000000000E+00 0. -1.
         21    1    1    2  506  501 -0.60028746396E+02 -0.21719503107E+02  0.36633468732E+03  0.37185520078E+03  0.00000000000E+00 0.  1.
<scales pt_clust_3="59.99722" pt_clust_4="14000.00000" pt_clust_5="84.64875" pt_clust_6="61.32635"></scales>
<clustering>
<clus scale="   59.997">  2  3  1 -1</clus>
<clus scale="   61.326">  1  6  2 -1</clus>
<clus scale="   84.649">  2  5  1 -1</clus>
<clus scale="   61.326">  1  3  2 -1</clus>
</clustering>
</event>
<event>
 6    0  0.4075689E+002  0.8056974E+02  0.7546771E-02  0.1327442E+00
         21   -1    0    0  503  501  0.00000000000E+00  0.00000000000E+00  0.12926331643E+04  0.12926331643E+04  0.00000000000E+00 0. -1.
         21   -1    0    0  505  502 -0.00000000000E+00 -0.00000000000E+00 -0.52898336824E+03  0.52898336824E+03  0.00000000000E+00 0.  1.
         21    1    1    2  503  502  0.80567217879E+02 -0.20268497318E+02 -0.46432997655E+03  0.47170352522E+03  0.00000000000E+00 0.  1.
         21    1    1    2  504  506  0.33774666432E+02  0.44878218966E+02  0.49353379537E+02  0.74769905055E+02  0.00000000000E+00 0. -1.
         21    1    1    2  505  504 -0.68570055318E+02 -0.24552811777E+02 -0.20089881048E+02  0.75553268447E+02  0.00000000000E+00 0. -1.
         21    1    1    2  506  501 -0.45771828993E+02 -0.56909871242E-01  0.11987162742E+04  0.11995898339E+04  0.00000000000E+00 0. -1.
<scales pt_clust_3="14000.00000" pt_clust_4="44.96815" pt_clust_5="80.56974" pt_clust_6="45.77186"></scales>
<clustering>
<clus scale="   45.772">  1  6  2 -1</clus>
<clus scale="   44.968">  1  4  2 -1</clus>
<clus scale="   80.570">  1  5  2 -1</clus>
<clus scale="   45.772">  1  3  2 -1</clus>
</clustering>
</event>
<event>
 6    0  0.2036847E+002  0.7183938E+02  0.7546771E-02  0.1353948E+00
         21   -1    0    0  504  501  0.00000000000E+00  0.00000000000E+00  0.25412981609E+04  0.25412981609E+04  0.00000000000E+00 0. -1.
         21   -1    0    0  506  502 -0.00000000000E+00 -0.00000000000E+00 -0.37088107368E+02  0.37088107368E+02  0.00000000000E+00 0. -1.
         21    1    1    2  503  501  0.12109356514E+02 -0.28367689813E+02  0.67033010065E+03  0.67103934771E+03  0.00000000000E+00 0.  1.
         21    1    1    2  504  505  0.62875925835E+02 -0.83373176038E+02  0.11607234700E+03  0.15613218204E+03  0.00000000000E+00 0. -1.
         21    1    1    2  505  502 -0.26754021008E+02  0.26568303578E+02  0.79196819249E+01  0.38527571386E+02  0.00000000000E+00 0. -1.
         21    1    1    2  506  503 -0.48231261341E+02  0.85172562273E+02  0.17098879240E+04  0.17126871671E+04  0.00000000000E+00 0. -1.
<scales pt_clust_3="30.84416" pt_clust_4="14000.00000" pt_clust_5="37.35025" pt_clust_6="71.83938"></scales>
<clustering>
<clus scale="   30.844">  1  3  2 -1</clus>
<clus scale="   37.350">  2  5  1 -1</clus>
<clus scale="   71.839">  1  6  2 -1</clus>
<clus scale="   30.844">  1  3  2 -1</clus>
</clustering>
</event>
<event>
 6    0  0.2036847E+002  0.1028297E+03  0.7546771E-02  0.1274455E+00
         21   -1    0    0  503  501  0.00000000000E+00  0.00000000000E+00  0.61738732881E+02  0.61738732881E+02  0.00000000000E+00 0. -1.
         21   -1    0    0  506  502 -0.00000000000E+00 -0.00000000000E+00 -0.11325175822E+04  0.11325175822E+04  0.00000000000E+00 0. -1.
         21    1    1    2  503  505 -0.33276190626E+02  0.55860286539E+02  0.11694811984E+02  0.66063947068E+02  0.00000000000E+00 0. -1.
         21    1    1    2  504  501  0.40398282653E+01  0.61152458904E+02 -0.38214332674E+02  0.72223809538E+02  0.00000000000E+00 0. -1.
         21    1    1    2  505  502  0.41406659016E+02 -0.76894355697E+02 -0.36060324130E+03  0.37102823476E+03  0.00000000000E+00 0. -1.
         21    1    1    2  506  504 -0.12170296655E+02 -0.40118389746E+02 -0.68365608735E+03  0.68494032374E+03  0.00000000000E+00 0. -1.
<scales pt_clust_3="102.82974" pt_clust_4="56.26739" pt_clust_5="14000.00000" pt_clust_6="41.92376"></scales>
<clustering>
<clus scale="   41.924">  2  6  1 -1</clus>
<clus scale="   56.267">  1  4  2 -1</clus>
<clus scale="  102.830">  1  3  2 -1</clus>
<clus scale="   56.267">  1  3  2 -1</clus>
</clustering>
</event>
<event>
 6    0  0.2036847E+002  0.1030247E+03  0.7546771E-02  0.1274061E+00
         21   -1    0    0  506  501  0.00000000000E+00  0.00000000000E+00  0.22682285337E+03  0.22682285337E+03  0.00000000000E+00 0. -1.
         21   -1    0    0  505  502 -0.00000000000E+00 -0.00000000000E+00 -0.18172932672E+03  0.18172932672E+03  0.00000000000E+00 0. -1.
         21    1    1    2  503  501 -0.87937944575E+02 -0.35988515413E+01  0.16682753133E+03  0.18861987975E+03  0.00000000000E+00 0. -1.
         21    1    1    2  504  503  0.33890784398E+02 -0.29471526357E+02 -0.13119432687E+02  0.46789695949E+02  0.00000000000E+00 0. -1.
         21    1    1    2  505  504  0.86721195206E+02  0.72559469232E+00 -0.55822425116E+02  0.10313697364E+03  0.00000000000E+00 0. -1.
         21    1    1    2  506  502 -0.32674035029E+02  0.32344783206E+02 -0.52792146873E+02  0.70005630753E+02  0.00000000000E+00 0. -1.
<scales pt_clust_3="90.89912" pt_clust_4="34.89654" pt_clust_5="34.89654" pt_clust_6="45.97584"></scales>
<clustering>
<clus scale="   34.897">  4  5 -1 -1</clus>
<clus scale="   45.976">  2  6  1 -1</clus>
<clus scale="   90.899">  1  3  2 -1</clus>
<clus scale="   90.899">  1  3  2 -1</clus>
</clustering>
</event>
<event>
 6    0  0.2036847E+002  0.1148829E+03  0.7546771E-02  0.1251786E+00
         21   -1    0    0  504  501  0.00000000000E+00  0.00000000000E+00  0.77071804364E+03  0.77071804364E+03  0.00000000000E+00 0.  1.
         21   -1    0    0  505  502 -0.00000000000E+00 -0.00000000000E+00 -0.29945445511E+03  0.29945445511E+03  0.00000000000E+00 0.  1.
         21    1    1    2  503  502 -0.51687508374E+02 -0.15361700792E+02  0.15777122764E+02  0.56182719548E+02  0.00000000000E+00 0.  1.
         21    1    1    2  504  506 -0.17042212275E+02  0.50235377440E+02  0.42694136668E+03  0.43022431443E+03  0.00000000000E+00 0.  1.
         21    1    1    2  505  501  0.63569602067E+02 -0.93431417925E+02 -0.26305380685E+03  0.28630024356E+03  0.00000000000E+00 0.  1.
         21    1    1    2  506  503  0.51601185825E+01  0.58557741276E+02  0.29159890594E+03  0.29746522121E+03  0.00000000000E+00 0. -1.
<scales pt_clust_3="53.92198" pt_clust_4="33.65032" pt_clust_5="109.28528" pt_clust_6="33.65032"></scales>
<clustering>
<clus scale="   33.650">  4  6 -1 -1</clus>
<clus scale="   53.922">  2  3  1 -1</clus>
<clus scale="  109.285">  2  5  1 -1</clus>
<clus scale="  114.883">  1  3  2 -1</clus>
</clustering>
</event>
<event>
 6    0  0.2036847E+002  0.2373770E+03  0.7546771E-02  0.1121553E+00
         21   -1    0    0  502  501  0.00000000000E+00  0.00000000000E+00  0.11833769684E+04  0.11833769684E+04  0.00000000000E+00 0. -1.
         21   -1    0    0  505  502 -0.00000000000E+00 -0.00000000000E+00 -0.20885959043E+03  0.20885959043E+03  0.00000000000E+00 0. -1.
         21    1    1    2  503  504 -0.89029686483E+02  0.11208049968E+02 -0.19601641696E+02  0.91848406717E+02  0.00000000000E+00 0. -1.
         21    1    1    2  504  506  0.64226763455E+02 -0.11126248153E+02  0.37419823132E+03  0.37983310396E+03  0.00000000000E+00 0.  1.
         21    1    1    2  505  503 -0.12935316788E+03 -0.57210295289E+02 -0.10568170319E+03  0.17656127072E+03  0.00000000000E+00 0. -1.
         21    1    1    2  506  501  0.15415609091E+03  0.57128493473E+02  0.72560249157E+03  0.74399377746E+03  0.00000000000E+00 0. -1.
<scales pt_clust_3="64.41635" pt_clust_4="37.87453" pt_clust_5="64.41635" pt_clust_6="231.13898"></scales>
<clustering>
<clus scale="   37.875">  4  6 -1 -1</clus>
<clus scale="   64.416">  3  5 -1 -1</clus>
<clus scale="  231.139">  1  4  2 -1</clus>
<clus scale="  231.139">  1  3  2 -1</clus>
</clustering>
</event>
<event>
 6    0  0.2036847E+002  0.8922879E+02  0.7546771E-02  0.1304730E+00
         21   -1    0    0  502  501  0.00000000000E+00  0.00000000000E+00  0.15684128175E+04  0.15684128175E+04  0.00000000000E+00 0.  1.
         21   -1    0    0  504  502 -0.00000000000E+00 -0.00000000000E+00 -0.26939475827E+02  0.26939475827E+02  0.00000000000E+00 0.  1.
         21    1    1    2  503  506 -0.80650405916E+01  0.62361815292E+02  0.43436055502E+03  0.43888851961E+03  0.00000000000E+00 0.  1.
         21    1    1    2  504  505  0.23473714925E+02  0.37703410921E+02  0.38755543440E+02  0.58945352953E+02  0.00000000000E+00 0.  1.
         21    1    1    2  505  503  0.43264597139E+02 -0.11291545835E+03  0.25792207145E+03  0.28486052911E+03  0.00000000000E+00 0.  1.
         21    1    1    2  506  501 -0.58673271472E+02  0.12850232140E+02  0.81043517179E+03  0.81265789169E+03  0.00000000000E+00 0.  1.
<scales pt_clust_3="89.22879" pt_clust_4="44.41354" pt_clust_5="14000.00000" pt_clust_6="59.14779"></scales>
<clustering>
<clus scale="   44.414">  2  4  1 -1</clus>
<clus scale="   59.148">  1  6  2 -1</clus>
<clus scale="   89.229">  1  3  2 -1</clus>
<clus scale="   59.148">  1  3  2 -1</clus>
</clustering>
</event>
<event>
 6    0  0.2036847E+002  0.1887552E+03  0.7546771E-02  0.1159589E+00
         21   -1    0    0  506  501  0.00000000000E+00  0.00000000000E+00  0.17143079606E+03  0.17143079606E+03  0.00000000000E+00 0.  1.
         21   -1    0    0  504  502 -0.00000000000E+00 -0.00000000000E+00 -0.74765163806E+03  0.74765163806E+03  0.00000000000E+00 0.  1.
         21    1    1    2  503  501 -0.50673037753E+01  0.44937720176E+02  0.34172212962E+02  0.56681711344E+02  0.00000000000E+00 0.  1.
         21    1    1    2  504  505  0.58496468688E+02 -0.59074973675E+00 -0.16719781069E+03  0.17713637044E+03  0.00000000000E+00 0. -1.
         21    1    1    2  505  503  0.91733658264E+02 -0.94085448691E+02 -0.50352065284E+03  0.52038464961E+03  0.00000000000E+00 0.  1.
         21    1    1    2  506  502 -0.14516282318E+03  0.49738478252E+02  0.60325408563E+02  0.16487970272E+03  0.00000000000E+00 0.  1.
<scales pt_clust_3="45.22252" pt_clust_4="48.19376" pt_clust_5="48.19376" pt_clust_6="174.61067"></scales>
<clustering>
<clus scale="   45.223">  1  3  2 -1</clus>
<clus scale="   48.194">  4  5 -1 -1</clus>
<clus scale="  174.611">  1  6  2 -1</clus>
<clus scale="   45.223">  1  3  2 -1</clus>
</clustering>
</event>
<event>
 6    0  0.2036847E+002  0.1645476E+03  0.7546771E-02  0.1183656E+00
         21   -1    0    0  503  501  0.00000000000E+00  0.00000000000E+00  0.71507186244E+02  0.71507186244E+02  0.00000000000E+00 0. -1.
         21   -1    0    0  504  502 -0.00000000000E+00 -0.00000000000E+00 -0.86566197583E+03  0.86566197583E+03  0.00000000000E+00 0. -1.
         21    1    1    2  503  505  0.27723957427E+02  0.74242996532E+02 -0.12566553272E+03  0.14856805330E+03  0.00000000000E+00 0. -1.
         21    1    1    2  504  506 -0.81027010509E+02 -0.11997464244E+02 -0.10754148760E+03  0.13518316144E+03  0.00000000000E+00 0. -1.
         21    1    1    2  505  502  0.13868558356E+03 -0.19395396643E+02 -0.53696121842E+03  0.55492091562E+03  0.00000000000E+00 0. -1.
         21    1    1    2  506  501 -0.85382530476E+02 -0.42850135645E+02 -0.23986550840E+02  0.98497031714E+02  0.00000000000E+00 0. -1.
<scales pt_clust_3="79.25049" pt_clust_4="75.26249" pt_clust_5="143.07162" pt_clust_6="75.26249"></scales>
<clustering>
<clus scale="   75.262">  4  6 -1 -1</clus>
<clus scale="   79.250">  1  3  2 -1</clus>
<clus scale="  143.072">  2  5  1 -1</clus>
<clus scale="   79.250">  1  3  2 -1</clus>
</clustering>
</event>
<event>
 6    0  0.2036847E+002  0.1761199E+03  0.7546771E-02  0.1171612E+00
         21   -1    0    0  505  501  0.00000000000E+00  0.00000000000E+00  0.56362533065E+03  0.56362533065E+03  0.00000000000E+00 0.  1.
         21   -1    0    0  501  502 -0.00000000000E+00 -0.00000000000E+00 -0.76251858419E+02  0.76251858419E+02  0.00000000000E+00 0. -1.
         21    1    1    2  503  506 -0.61162005165E+02  0.12078447772E+03  0.30216688878E+03  0.33111102309E+03  0.00000000000E+00 0.  1.
         21    1    1    2  504  502  0.44959048679E+02 -0.80998271614E+02  0.11877691199E+02  0.93397621013E+02  0.00000000000E+00 0. -1.
         21    1    1    2  505  503  0.20658921847E+02  0.34274706005E+02  0.11256384950E+03  0.11946617403E+03  0.00000000000E+00 0. -1.
         21    1    1    2  506  504 -0.44559653606E+01 -0.74060912116E+02  0.60765042751E+02  0.95902370936E+02  0.00000000000E+00 0. -1.
<scales pt_clust_3="39.70891" pt_clust_4="174.80709" pt_clust_5="39.70891" pt_clust_6="62.47659"></scales>
<clustering>
<clus scale="   39.709">  3  5 -1 -1</clus>
<clus scale="   62.477">  4  6 -1 -1</clus>
<clus scale="  174.807">  2  4  1 -1</clus>
<clus scale="  176.120">  1  3  2 -1</clus>
</clustering>
</event>
<event>
 6    0  0.2036847E+002  0.1576418E+03  0.7546771E-02  0.1191385E+00
         21   -1    0    0  502  501  0.00000000000E+00  0.00000000000E+00  0.56504077822E+03  0.56504077822E+03  0.00000000000E+00 0.  1.
         21   -1    0    0  503  502 -0.00000000000E+00 -0.00000000000E+00 -0.25059876675E+03  0.25059876675E+03  0.00000000000E+00 0.  1.
         21    1    1    2  503  504 -0.69105162196E+02 -0.14520478194E+02 -0.97822958909E+02  0.12064700170E+03  0.00000000000E+00 0.  1.
         21    1    1    2  504  505 -0.75591068910E+02  0.33658007395E+02 -0.11668784530E+03  0.14304867843E+03  0.00000000000E+00 0.  1.
         21    1    1    2  505  506  0.89280288528E+02 -0.96645054620E+01  0.41826831573E+03  0.42779990244E+03  0.00000000000E+00 0.  1.
         21    1    1    2  506  501  0.55415942578E+02 -0.94730237394E+01  0.11068449995E+03  0.12414396240E+03  0.00000000000E+00 0. -1.
<scales pt_clust_3="43.49943" pt_clust_4="153.36403" pt_clust_5="47.12764" pt_clust_6="47.12764"></scales>
<clustering>
<clus scale="   43.499">  3  4 -1 -1</clus>
<clus scale="   47.128">  5  6 -1 -1</clus>
<clus scale="  153.364">  2  3  1 -1</clus>
<clus scale="  157.642">  1  3  2 -1</clus>
</clustering>
</event>
<event>
 6    0  0.2036847E+002  0.2756997E+03  0.7546771E-02  0.1098061E+00
         21   -1    0    0  504  501  0.00000000000E+00  0.00000000000E+00  0.86893419711E+03  0.86893419711E+03  0.00000000000E+00 0.  1.
         21   -1    0    0  503  502 -0.00000000000E+00 -0.00000000000E+00 -0.10581253111E+03  0.10581253111E+03  0.00000000000E+00 0.  1.
         21    1    1    2  503  505  0.96285836850E+02 -0.48993906583E+02  0.14139547109E+03  0.17794393641E+03  0.00000000000E+00 0.  1.
         21    1    1    2  504  506 -0.15045477614E+03  0.99697653749E+02  0.14341646509E+03  0.23053100504E+03  0.00000000000E+00 0.  1.
         21    1    1    2  505  501  0.10306954312E+03 -0.10641091241E+03  0.46866508499E+03  0.49152169320E+03  0.00000000000E+00 0.  1.
         21    1    1    2  506  502 -0.48900603829E+02  0.55707165248E+02  0.96446448225E+01  0.74750093569E+02  0.00000000000E+00 0.  1.
<scales pt_clust_3="94.00226" pt_clust_4="264.13793" pt_clust_5="94.00226" pt_clust_6="49.12298"></scales>
<clustering>
<clus scale="   49.123">  4  6 -1 -1</clus>
<clus scale="   94.002">  3  5 -1 -1</clus>
<clus scale="  264.138">  2  4  1 -1</clus>
<clus scale="  275.700">  1  3  2 -1</clus>
</clustering>
</event>
<event>
 6    0  0.2036847E+002  0.2698426E+03  0.7546771E-02  0.1101370E+00
         21   -1    0    0  505  501  0.00000000000E+00  0.00000000000E+00  0.57433027779E+03  0.57433027779E+03  0.00000000000E+00 0.  1.
         21   -1    0    0  501  502 -0.00000000000E+00 -0.00000000000E+00 -0.34472072882E+03  0.34472072882E+03  0.00000000000E+00 0. -1.
         21    1    1    2  503  504  0.21005448239E+02  0.79675141193E+02  0.74696143761E+02  0.11121542552E+03  0.00000000000E+00 0.  1.
         21    1    1    2  504  506 -0.24811231745E+02 -0.75441906266E+02 -0.51543502000E+02  0.94677405120E+02  0.00000000000E+00 0.  1.
         21    1    1    2  505  503 -0.23912178463E+02  0.16731568545E+03  0.41121869854E+03  0.44459773830E+03  0.00000000000E+00 0.  1.
         21    1    1    2  506  502  0.27717961969E+02 -0.17154892037E+03 -0.20476179133E+03  0.26856043768E+03  0.00000000000E+00 0. -1.
<scales pt_clust_3="75.85314" pt_clust_4="48.91947" pt_clust_5="75.85314" pt_clust_6="257.38945"></scales>
<clustering>
<clus scale="   48.919">  4  6 -1 -1</clus>
<clus scale="   75.853">  3  5 -1 -1</clus>
<clus scale="  257.389">  2  4  1 -1</clus>
<clus scale="  269.843">  1  3  2 -1</clus>
</clustering>
</event>
<event>
 6    0  0.2036847E+002  0.1818903E+03  0.7546771E-02  0.1165986E+00
         21   -1    0    0  505  501  0.00000000000E+00  0.00000000000E+00  0.48897805082E+03  0.48897805082E+03  0.00000000000E+00 0.  1.
         21   -1    0    0  504  502 -0.00000000000E+00 -0.00000000000E+00 -0.93865992954E+03  0.93865992954E+03  0.00000000000E+00 0.  1.
         21    1    1    2  503  501 -0.42179601424E+02  0.35064443570E+02 -0.37346956923E+03  0.37747602986E+03  0.00000000000E+00 0.  1.
         21    1    1    2  504  503 -0.11930795652E+03  0.34145490431E+02 -0.53049897038E+03  0.54482057651E+03  0.00000000000E+00 0.  1.
         21    1    1    2  505  506  0.11776692818E+02 -0.69802739821E+02  0.16705167284E+03  0.18143145918E+03  0.00000000000E+00 0.  1.
         21    1    1    2  506  502  0.14971086513E+03  0.59280582091E+00  0.28723498806E+03  0.32390991482E+03  0.00000000000E+00 0.  1.
<scales pt_clust_3="33.92364" pt_clust_4="33.92364" pt_clust_5="70.78922" pt_clust_6="174.58643"></scales>
<clustering>
<clus scale="   33.924">  3  4 -1 -1</clus>
<clus scale="   70.789">  1  5  2 -1</clus>
<clus scale="  174.586">  1  6  2 -1</clus>
<clus scale="   70.789">  1  3  2 -1</clus>
</clustering>
</event>
<event>
 6    0  0.2036847E+002  0.2795362E+03  0.7546771E-02  0.1095943E+00
         21   -1    0    0  503  501  0.00000000000E+00  0.00000000000E+00  0.21108734001E+04  0.21108734001E+04  0.00000000000E+00 0. -1.
         21   -1    0    0  505  502 -0.00000000000E+00 -0.00000000000E+00 -0.40829144533E+02  0.40829144533E+02  0.00000000000E+00 0. -1.
         21    1    1    2  503  506 -0.12471757483E+03  0.73708600424E+02  0.32075327397E+03  0.35195183479E+03  0.00000000000E+00 0. -1.
         21    1    1    2  504  501  0.16905003758E+03 -0.12365076784E+03  0.90381500071E+03  0.92776558629E+03  0.00000000000E+00 0. -1.
         21    1    1    2  505  504  0.38893358499E+02 -0.38438361442E+02  0.54756488121E+03  0.55028856076E+03  0.00000000000E+00 0. -1.
         21    1    1    2  506  502 -0.83225821253E+02  0.88380528859E+02  0.29791109963E+03  0.32169656275E+03  0.00000000000E+00 0. -1.
<scales pt_clust_3="266.56436" pt_clust_4="47.45953" pt_clust_5="47.45953" pt_clust_6="35.96089"></scales>
<clustering>
<clus scale="   35.961">  3  6 -1 -1</clus>
<clus scale="   47.460">  4  5 -1 -1</clus>
<clus scale="  266.564">  2  3  1 -1</clus>
<clus scale="  279.536">  1  3  2 -1</clus>
</clustering>
</event>
<event>
 6    0  0.2036847E+002  0.1591373E+03  0.7546771E-02  0.1189674E+00
         21   -1    0    0  503  501  0.00000000000E+00  0.00000000000E+00  0.13444910819E+03  0.13444910819E+03  0.00000000000E+00 0. -1.
         21   -1    0    0  505  502 -0.00000000000E+00 -0.00000000000E+00 -0.87308964293E+03  0.87308964293E+03  0.00000000000E+00 0. -1.
         21    1    1    2  503  506  0.14675336188E+03 -0.31997472422E+02  0.63969339397E+01  0.15033731482E+03  0.00000000000E+00 0. -1.
         21    1    1    2  504  501 -0.18341271734E+03 -0.12670626964E+02 -0.10803831754E+03  0.21324410362E+03  0.00000000000E+00 0. -1.
         21    1    1    2  505  504  0.64054138294E+00  0.39417478617E+02 -0.13494917487E+03  0.14058957184E+03  0.00000000000E+00 0.  1.
         21    1    1    2  506  502  0.36018814083E+02  0.52506207688E+01 -0.50204997627E+03  0.50336776085E+03  0.00000000000E+00 0. -1.
<scales pt_clust_3="159.13733" pt_clust_4="14000.00000" pt_clust_5="43.68749" pt_clust_6="36.39951"></scales>
<clustering>
<clus scale="   36.400">  2  6  1 -1</clus>
<clus scale="   43.687">  2  5  1 -1</clus>
<clus scale="  159.137">  1  3  2 -1</clus>
<clus scale="  159.137">  1  3  2 -1</clus>
</clustering>
</event>
<event>
 6    0  0.2036847E+002  0.1628724E+03  0.7546771E-02  0.1185492E+00
         21   -1    0    0  503  501  0.00000000000E+00  0.00000000000E+00  0.62890732308E+03  0.62890732308E+03  0.00000000000E+00 0. -1.
         21   -1    0    0  504  502 -0.00000000000E+00 -0.00000000000E+00 -0.76611006444E+03  0.76611006444E+03  0.00000000000E+00 0.  1.
         21    1    1    2  503  502  0.34886327945E+02 -0.10682511255E+01 -0.29925366100E+02  0.45975260458E+02  0.00000000000E+00 0. -1.
         21    1    1    2  504  505 -0.65720517302E+02  0.15037772204E+03 -0.70794316656E+03  0.72671601933E+03  0.00000000000E+00 0.  1.
         21    1    1    2  505  506  0.27551133321E+01 -0.97617630596E+02  0.28611695905E+03  0.30232384409E+03  0.00000000000E+00 0. -1.
         21    1    1    2  506  501  0.28079076026E+02 -0.51691840318E+02  0.31454883225E+03  0.32000226364E+03  0.00000000000E+00 0. -1.
<scales pt_clust_3="34.90268" pt_clust_4="152.58138" pt_clust_5="44.24055" pt_clust_6="44.24055"></scales>
<clustering>
<clus scale="   34.903">  2  3  1 -1</clus>
<clus scale="   44.241">  5  6 -1 -1</clus>
<clus scale="  152.581">  2  4  1 -1</clus>
<clus scale="  162.872">  1  3  2 -1</clus>
</clustering>
</event>
<event>
 6    0  0.2036847E+002  0.1979986E+03  0.7546771E-02  0.1151439E+00
         21   -1    0    0  505  501  0.00000000000E+00  0.00000000000E+00  0.82924091292E+03  0.82924091292E+03  0.00000000000E+00 0. -1.
         21   -1    0    0  503  502 -0.00000000000E+00 -0.00000000000E+00 -0.11211689979E+03  0.11211689979E+03  0.00000000000E+00 0. -1.
         21    1    1    2  503  501  0.50432155546E+02  0.48567418746E+02  0.16894910083E+02  0.72025234907E+02  0.00000000000E+00 0. -1.
         21    1    1    2  504  502  0.97277462209E+02 -0.16634391608E+03  0.64614227915E+02  0.20324419185E+03  0.00000000000E+00 0. -1.
         21    1    1    2  505  506 -0.13038863744E+03  0.69666705901E+02  0.48502943778E+03  0.50705838145E+03  0.00000000000E+00 0. -1.
         21    1    1    2  506  504 -0.17320980319E+02  0.48109791436E+02  0.15058543736E+03  0.15903000451E+03  0.00000000000E+00 0. -1.
<scales pt_clust_3="70.01569" pt_clust_4="187.68431" pt_clust_5="37.09354" pt_clust_6="37.09354"></scales>
<clustering>
<clus scale="   37.094">  5  6 -1 -1</clus>
<clus scale="   70.016">  2  3  1 -1</clus>
<clus scale="  187.684">  2  4  1 -1</clus>
<clus scale="  197.999">  1  3  2 -1</clus>
</clustering>
</event>
<event>
 6    0  0.2036847E+002  0.1338292E+03  0.7546771E-02  0.1221882E+00
         21   -1    0    0  505  501  0.00000000000E+00  0.00000000000E+00  0.10955274325E+04  0.10955274325E+04  0.00000000000E+00 0. -1.
         21   -1    0    0  503  502 -0.00000000000E+00 -0.00000000000E+00 -0.25835024726E+03  0.25835024726E+03  0.00000000000E+00 0.  1.
         21    1    1    2  503  506 -0.19841504507E+02 -0.33949487581E+02 -0.15880549865E+02  0.42408075553E+02  0.00000000000E+00 0.  1.
         21    1    1    2  504  501 -0.23352383549E+02 -0.27354822085E+02  0.22478975820E+03  0.22764897430E+03  0.00000000000E+00 0. -1.
         21    1    1    2  505  502  0.46093125223E+02  0.15954202161E+03  0.83689022474E+03  0.85320775965E+03  0.00000000000E+00 0. -1.
         21    1    1    2  506  504 -0.28992371667E+01 -0.98237711941E+02 -0.20862224786E+03  0.23061287025E+03  0.00000000000E+00 0.  1.
<scales pt_clust_3="39.86268" pt_clust_4="35.96693" pt_clust_5="133.82917" pt_clust_6="14000.00000"></scales>
<clustering>
<clus scale="   35.967">  1  4  2 -1</clus>
<clus scale="   39.863">  2  3  1 -1</clus>
<clus scale="  133.829">  1  5  2 -1</clus>
<clus scale="   35.967">  1  3  2 -1</clus>
</clustering>
</event>
<event>
 6    0  0.2036847E+002  0.9042854E+02  0.7546771E-02  0.1301817E+00
         21   -1    0    0  506  501  0.00000000000E+00  0.00000000000E+00  0.73992268707E+02  0.73992268707E+02  0.00000000000E+00 0. -1.
         21   -1    0    0  504  502 -0.00000000000E+00 -0.00000000000E+00 -0.42496689551E+04  0.42496689551E+04  0.00000000000E+00 0. -1.
         21    1    1    2  503  502  0.68427419771E+02  0.33211414280E+01 -0.15568887846E+04  0.15583953380E+04  0.00000000000E+00 0. -1.
         21    1    1    2  504  501 -0.31556632141E+02  0.15414752978E+02 -0.36426819668E+01  0.35308706764E+02  0.00000000000E+00 0. -1.
         21    1    1    2  505  503 -0.10753293975E+02  0.67832822563E+02 -0.26362171595E+04  0.26371116467E+04  0.00000000000E+00 0.  1.
         21    1    1    2  506  505 -0.26117493654E+02 -0.86568716970E+02  0.21071939710E+02  0.92845532341E+02  0.00000000000E+00 0. -1.
<scales pt_clust_3="68.10976" pt_clust_4="35.12030" pt_clust_5="14000.00000" pt_clust_6="90.42854"></scales>
<clustering>
<clus scale="   35.120">  1  4  2 -1</clus>
<clus scale="   68.110">  2  3  1 -1</clus>
<clus scale="   90.429">  1  6  2 -1</clus>
<clus scale="   35.120">  1  3  2 -1</clus>
</clustering>
</event>
<event>
 6    0  0.2036847E+002  0.9714989E+02  0.7546771E-02  0.1286406E+00
         21   -1    0    0  505  501  0.00000000000E+00  0.00000000000E+00  0.20236782204E+02  0.20236782204E+02  0.00000000000E+00 0.  1.
         21   -1    0    0  506  502 -0.00000000000E+00 -0.00000000000E+00 -0.22058154148E+04  0.22058154148E+04  0.00000000000E+00 0.  1.
         21    1    1    2  503  502 -0.38520874268E+02 -0.41355669690E+02 -0.93264037601E+03  0.93435122954E+03  0.00000000000E+00 0.  1.
         21    1    1    2  504  503  0.58491171392E+01 -0.77367150308E+02 -0.57052730807E+03  0.57577886152E+03  0.00000000000E+00 0.  1.
         21    1    1    2  505  504 -0.29499148098E+00  0.10278652111E+03 -0.14762531779E+03  0.17988438063E+03  0.00000000000E+00 0.  1.
         21    1    1    2  506  501  0.32966748609E+02  0.15936298889E+02 -0.53478563074E+03  0.53603772533E+03  0.00000000000E+00 0.  1.
<scales pt_clust_3="38.16936" pt_clust_4="97.14989" pt_clust_5="14000.00000" pt_clust_6="36.61656"></scales>
<clustering>
<clus scale="   36.617">  2  6  1 -1</clus>
<clus scale="   38.169">  2  3  1 -1</clus>
<clus scale="   97.150">  2  4  1 -1</clus>
<clus scale="   97.150">  1  3  2 -1</clus>
</clustering>
</event>
<event>
 6    0  0.2036847E+002  0.1381225E+03  0.7546771E-02  0.1215878E+00
         21   -1    0    0  503  501  0.00000000000E+00  0.00000000000E+00  0.37378064388E+02  0.37378064388E+02  0.00000000000E+00 0. -1.
         21   -1    0    0  504  502 -0.00000000000E+00 -0.00000000000E+00 -0.92755926927E+03  0.92755926927E+03  0.00000000000E+00 0. -1.
         21    1    1    2  503  505  0.23650308709E+02  0.48081092789E+02 -0.69226706044E+02  0.87541221237E+02  0.00000000000E+00 0. -1.
         21    1    1    2  504  501 -0.41083203816E+02 -0.21408044845E+02 -0.21522575610E+03  0.22015508195E+03  0.00000000000E+00 0. -1.
         21    1    1    2  505  506 -0.67325411817E+01  0.89728402138E+02 -0.87352500445E+02  0.12540722704E+03  0.00000000000E+00 0. -1.
         21    1    1    2  506  502  0.24165436289E+02 -0.11640145008E+03 -0.51837624230E+03  0.53183380343E+03  0.00000000000E+00 0. -1.
<scales pt_clust_3="30.40396" pt_clust_4="46.32639" pt_clust_5="30.40396" pt_clust_6="132.38386"></scales>
<clustering>
<clus scale="   30.404">  3  5 -1 -1</clus>
<clus scale="   46.326">  2  4  1 -1</clus>
<clus scale="  132.384">  2  6  1 -1</clus>
<clus scale="  138.122">  1  3  2 -1</clus>
</clustering>
</event>
<event>
 6    0  0.2036847E+002  0.2215630E+03  0.7546771E-02  0.1132723E+00
         21   -1    0    0  503  501  0.00000000000E+00  0.00000000000E+00  0.27598060995E+03  0.27598060995E+03  0.00000000000E+00 0.  1.
         21   -1    0    0  505  502 -0.00000000000E+00 -0.00000000000E+00 -0.77779900567E+03  0.77779900567E+03  0.00000000000E+00 0.  1.
         21    1    1    2  503  502 -0.15541089377E+03  0.14956187713E+03 -0.54233954780E+03  0.58365528020E+03  0.00000000000E+00 0.  1.
         21    1    1    2  504  501  0.15437150349E+03  0.78976124848E+01  0.12083458009E+03  0.19619869805E+03  0.00000000000E+00 0.  1.
         21    1    1    2  505  506 -0.82151635489E+02 -0.24967646743E+01 -0.47755538984E+02  0.95056386167E+02  0.00000000000E+00 0.  1.
         21    1    1    2  506  504  0.83191025773E+02 -0.15496272494E+03 -0.32557889026E+02  0.17886925121E+03  0.00000000000E+00 0.  1.
<scales pt_clust_3="221.56299" pt_clust_4="150.19001" pt_clust_5="82.18957" pt_clust_6="14000.00000"></scales>
<clustering>
<clus scale="   82.190">  2  5  1 -1</clus>
<clus scale="  150.190">  1  4  2 -1</clus>
<clus scale="  221.563">  2  3  1 -1</clus>
<clus scale="  150.190">  1  3  2 -1</clus>
</clustering>
</event>
<event>
 6    0  0.2036847E+002  0.2235915E+03  0.7546771E-02  0.1131233E+00
         21   -1    0    0  503  501  0.00000000000E+00  0.00000000000E+00  0.19742877603E+03  0.19742877603E+03  0.00000000000E+00 0. -1.
         21   -1    0    0  506  502 -0.00000000000E+00 -0.00000000000E+00 -0.32768486411E+03  0.32768486411E+03  0.00000000000E+00 0. -1.
         21    1    1    2  503  502  0.16928838052E+03  0.12846063478E+03 -0.91793679821E+02  0.23148816411E+03  0.00000000000E+00 0. -1.
         21    1    1    2  504  501 -0.81676767096E+02 -0.15802329718E+03  0.63814680297E+01  0.17799769625E+03  0.00000000000E+00 0. -1.
         21    1    1    2  505  504 -0.42199884563E+02 -0.13158804167E+02 -0.17366334552E+02  0.47492883256E+02  0.00000000000E+00 0.  1.
         21    1    1    2  506  505 -0.45411728862E+02  0.42721466565E+02 -0.27477541743E+02  0.68134896521E+02  0.00000000000E+00 0. -1.
<scales pt_clust_3="209.56276" pt_clust_4="38.85912" pt_clust_5="38.85912" pt_clust_6="62.34861"></scales>
<clustering>
<clus scale="   38.859">  4  5 -1 -1</clus>
<clus scale="   62.349">  2  6  1 -1</clus>
<clus scale="  209.563">  2  3  1 -1</clus>
<clus scale="  223.591">  1  3  2 -1</clus>
</clustering>
</event>
<event>
 6    0  0.2036847E+002  0.7604023E+02  0.7546771E-02  0.1340680E+00
         21   -1    0    0  504  501  0.00000000000E+00  0.00000000000E+00  0.20950197059E+03  0.20950197059E+03  0.00000000000E+00 0.  1.
         21   -1    0    0  503  502 -0.00000000000E+00 -0.00000000000E+00 -0.20898787527E+03  0.20898787527E+03  0.00000000000E+00 0. -1.
         21    1    1    2  503  505 -0.77222967190E+02  0.23978919638E+02 -0.12087904366E+03  0.14543080294E+03  0.00000000000E+00 0. -1.
         21    1    1    2  504  506  0.37633097066E+00  0.56179558913E+02  0.11425029952E+03  0.12731620244E+03  0.00000000000E+00 0. -1.
         21    1    1    2  505  501  0.34137159892E+02 -0.13540399166E+02  0.44947679967E+02  0.58042932640E+02  0.00000000000E+00 0.  1.
         21    1    1    2  506  502  0.42709476328E+02 -0.66618079384E+02 -0.37804840499E+02  0.87699907835E+02  0.00000000000E+00 0.  1.
<scales pt_clust_3="76.04023" pt_clust_4="52.92481" pt_clust_5="36.72449" pt_clust_6="14000.00000"></scales>
<clustering>
<clus scale="   36.724">  1  5  2 -1</clus>
<clus scale="   52.925">  1  4  2 -1</clus>
<clus scale="   76.040">  2  3  1 -1</clus>
<clus scale="   36.724">  1  3  2 -1</clus>
</clustering>
</event>
<event>
 6    0  0.2036847E+002  0.8914100E+02  0.7546771E-02  0.1304945E+00
         21   -1    0    0  502  501  0.00000000000E+00  0.00000000000E+00  0.10522223467E+03  0.10522223467E+03  0.00000000000E+00 0.  1.
         21   -1    0    0  505  502 -0.00000000000E+00 -0.00000000000E+00 -0.73170096338E+03  0.73170096338E+03  0.00000000000E+00 0.  1.
         21    1    1    2  503  501  0.26117359884E+02  0.67836127837E+02  0.73157565335E+02  0.10313043243E+03  0.00000000000E+00 0.  1.
         21    1    1    2  504  503 -0.28373422503E+02 -0.34362971952E+02 -0.53592603659E+02  0.69699584740E+02  0.00000000000E+00 0.  1.
         21    1    1    2  505  506  0.56514554461E+02  0.26381430322E+02 -0.40739165598E+03  0.41213812745E+03  0.00000000000E+00 0.  1.
         21    1    1    2  506  504 -0.54258491842E+02 -0.59854586207E+02 -0.23865203441E+03  0.25195505344E+03  0.00000000000E+00 0.  1.
<scales pt_clust_3="74.80857" pt_clust_4="36.00241" pt_clust_5="62.36886" pt_clust_6="36.00241"></scales>
<clustering>
<clus scale="   36.002">  4  6 -1 -1</clus>
<clus scale="   62.369">  2  5  1 -1</clus>
<clus scale="   74.809">  1  3  2 -1</clus>
<clus scale="   74.809">  1  3  2 -1</clus>
</clustering>
</event>
<event>
 6    0  0.2036847E+002  0.1221961E+03  0.7546771E-02  0.1239518E+00
         21   -1    0    0  503  501  0.00000000000E+00  0.00000000000E+00  0.68703890860E+03  0.68703890860E+03  0.00000000000E+00 0. -1.
         21   -1    0    0  505  502 -0.00000000000E+00 -0.00000000000E+00 -0.90372322708E+02  0.90372322708E+02  0.00000000000E+00 0.  1.
         21    1    1    2  503  504  0.66918630409E+02  0.92768932015E+02  0.54601053678E+03  0.55786349954E+03  0.00000000000E+00 0. -1.
         21    1    1    2  504  502  0.14867348705E+02 -0.26261477164E+02  0.25484114216E+01  0.30285271026E+02  0.00000000000E+00 0. -1.
         21    1    1    2  505  506 -0.60604587579E+02 -0.91305652170E+02 -0.22149930442E+02  0.11180455077E+03  0.00000000000E+00 0.  1.
         21    1    1    2  506  501 -0.21181391535E+02  0.24798197320E+02  0.70257568134E+02  0.77457909975E+02  0.00000000000E+00 0. -1.
<scales pt_clust_3="14000.00000" pt_clust_4="30.17786" pt_clust_5="122.19608" pt_clust_6="31.21998"></scales>
<clustering>
<clus scale="   30.178">  2  4  1 -1</clus>
<clus scale="   31.220">  1  6  2 -1</clus>
<clus scale="  122.196">  2  5  1 -1</clus>
<clus scale="   31.220">  1  3  2 -1</clus>
</clustering>
</event>
<event>
 6    0  0.2036847E+002  0.1030007E+03  0.7546771E-02  0.1274109E+00
         21   -1    0    0  504  501  0.00000000000E+00  0.00000000000E+00  0.34651251168E+03  0.34651251168E+03  0.00000000000E+00 0.  1.
         21   -1    0    0  505  502 -0.00000000000E+00 -0.00000000000E+00 -0.20480446635E+03  0.20480446635E+03  0.00000000000E+00 0. -1.
         21    1    1    2  503  502 -0.58292150597E+02  0.57579675831E+02 -0.35438747561E+02  0.89270928744E+02  0.00000000000E+00 0.  1.
         21    1    1    2  504  503  0.77361182551E+02 -0.10448395612E+03  0.26805451401E+03  0.29791755929E+03  0.00000000000E+00 0.  1.
         21    1    1    2  505  506  0.16815960524E+02  0.42430540718E+02 -0.11291857909E+03  0.12179381272E+03  0.00000000000E+00 0. -1.
         21    1    1    2  506  501 -0.35884992478E+02  0.44737395746E+01  0.22010857963E+02  0.42334677266E+02  0.00000000000E+00 0.  1.
<scales pt_clust_3="14000.00000" pt_clust_4="103.00072" pt_clust_5="45.51604" pt_clust_6="36.16279"></scales>
<clustering>
<clus scale="   36.163">  1  6  2 -1</clus>
<clus scale="   45.516">  2  5  1 -1</clus>
<clus scale="  103.001">  1  4  2 -1</clus>
<clus scale="   36.163">  1  3  2 -1</clus>
</clustering>
</event>
<event>
 6    0  0.4279311E+002  0.1240716E+03  0.7546771E-02  0.1236527E+00
         21   -1    0    0  504  501  0.00000000000E+00  0.00000000000E+00  0.25508129517E+03  0.25508129517E+03  0.00000000000E+00 0.  1.
         21   -1    0    0  506  502 -0.00000000000E+00 -0.00000000000E+00 -0.74095261456E+03  0.74095261456E+03  0.00000000000E+00 0. -1.
         21    1    1    2  503  502 -0.14125526283E+02  0.28957505421E+02 -0.19432793486E+02  0.37625803322E+02  0.00000000000E+00 0. -1.
         21    1    1    2  504  503  0.32268155988E+02 -0.29971005705E+02 -0.38211849429E+02  0.58306436271E+02  0.00000000000E+00 0. -1.
         21    1    1    2  505  501 -0.10458284158E+03  0.67491337469E+02  0.21460386310E+03  0.24808762453E+03  0.00000000000E+00 0.  1.
         21    1    1    2  506  505  0.86440211872E+02 -0.66477837186E+02 -0.64283053958E+03  0.65201404561E+03  0.00000000000E+00 0. -1.
<scales pt_clust_3="32.21906" pt_clust_4="42.01103" pt_clust_5="14000.00000" pt_clust_6="124.07157"></scales>
<clustering>
<clus scale="   32.219">  2  3  1 -1</clus>
<clus scale="   42.011">  2  4  1 -1</clus>
<clus scale="  124.072">  2  6  1 -1</clus>
<clus scale="  124.072">  1  3  2 -1</clus>
</clustering>
</event>
<event>
 6    0  0.2161142E+002  0.2277940E+03  0.7546771E-02  0.1128202E+00
         21   -1    0    0  506  501  0.00000000000E+00  0.00000000000E+00  0.67652570550E+03  0.67652570550E+03  0.00000000000E+00 0.  1.
         21   -1    0    0  505  502 -0.00000000000E+00 -0.00000000000E+00 -0.19616887715E+04  0.19616887715E+04  0.00000000000E+00 0.  1.
         21    1    1    2  503  501 -0.22074976978E+03 -0.57636976702E+02  0.63393256296E+03  0.67373806210E+03  0.00000000000E+00 0.  1.
         21    1    1    2  504  502  0.35503887714E+02  0.44367104772E+02 -0.98179239836E+03  0.98343544756E+03  0.00000000000E+00 0.  1.
         21    1    1    2  505  503 -0.21245233264E+02 -0.32338113707E+02 -0.28755409390E+02  0.48207749416E+02  0.00000000000E+00 0.  1.
         21    1    1    2  506  504  0.20649111533E+03  0.45607985636E+02 -0.90854782122E+03  0.93283321794E+03  0.00000000000E+00 0.  1.
<scales pt_clust_3="227.79397" pt_clust_4="37.18754" pt_clust_5="38.69255" pt_clust_6="14000.00000"></scales>
<clustering>
<clus scale="   38.693">  2  5  1 -1</clus>
<clus scale="   37.188">  2  4  1 -1</clus>
<clus scale="  227.794">  1  3  2 -1</clus>
<clus scale="  227.794">  1  3  2 -1</clus>
</clustering>
</event>
<event>
 6    0  0.2036847E+002  0.3003086E+03  0.7546771E-02  0.1085086E+00
         21   -1    0    0  503  501  0.00000000000E+00  0.00000000000E+00  0.11795706029E+04  0.11795706029E+04  0.00000000000E+00 0.  1.
         21   -1    0    0  504  502 -0.00000000000E+00 -0.00000000000E+00 -0.12590862613E+04  0.12590862613E+04  0.00000000000E+00 0. -1.
         21    1    1    2  503  502 -0.36492088909E+03 -0.53556423957E+02  0.10568002945E+04  0.11193133646E+04  0.00000000000E+00 0.  1.
         21    1    1    2  504  506  0.71952410473E+02  0.41250724239E+02 -0.24064111061E+03  0.25453274002E+03  0.00000000000E+00 0. -1.
         21    1    1    2  505  501  0.82191367673E+02  0.14602236551E+02  0.49072455544E+02  0.96833631169E+02  0.00000000000E+00 0.  1.
         21    1    1    2  506  505  0.21077711095E+03 -0.22965368335E+01 -0.94474729770E+03  0.96797712839E+03  0.00000000000E+00 0. -1.
<scales pt_clust_3="286.79953" pt_clust_4="55.86309" pt_clust_5="83.47842" pt_clust_6="55.86309"></scales>
<clustering>
<clus scale="   55.863">  4  6 -1 -1</clus>
<clus scale="   83.478">  1  5  2 -1</clus>
<clus scale="  286.800">  1  3  2 -1</clus>
<clus scale="   83.478">  1  3  2 -1</clus>
</clustering>
</event>
<event>
 6    0  0.2036847E+002  0.8573270E+02  0.7546771E-02  0.1313527E+00
         21   -1    0    0  505  501  0.00000000000E+00  0.00000000000E+00  0.61198111693E+02  0.61198111693E+02  0.00000000000E+00 0.  1.
         21   -1    0    0  504  502 -0.00000000000E+00 -0.00000000000E+00 -0.11331306087E+04  0.11331306087E+04  0.00000000000E+00 0. -1.
         21    1    1    2  503  501  0.75455940984E+02  0.26893990538E+02 -0.18758056121E+03  0.20396899936E+03  0.00000000000E+00 0.  1.
         21    1    1    2  504  503  0.48480582039E+01  0.47651927581E+02 -0.33835707629E+03  0.34173047998E+03  0.00000000000E+00 0. -1.
         21    1    1    2  505  506 -0.28913986502E+02 -0.88258766516E+02  0.69483470621E+01  0.93133817753E+02  0.00000000000E+00 0.  1.
         21    1    1    2  506  502 -0.51390012686E+02  0.13712848396E+02 -0.55294320653E+03  0.55549542326E+03  0.00000000000E+00 0. -1.
<scales pt_clust_3="14000.00000" pt_clust_4="47.89791" pt_clust_5="85.73270" pt_clust_6="67.18922"></scales>
<clustering>
<clus scale="   47.898">  2  4  1 -1</clus>
<clus scale="   67.189">  2  6  1 -1</clus>
<clus scale="   85.733">  1  5  2 -1</clus>
<clus scale="   85.733">  1  3  2 -1</clus>
</clustering>
</event>
<event>
 6    0  0.2036847E+002  0.1315923E+03  0.7546771E-02  0.1225112E+00
         21   -1    0    0  503  501  0.00000000000E+00  0.00000000000E+00  0.55692633285E+03  0.55692633285E+03  0.00000000000E+00 0.  1.
         21   -1    0    0  501  502 -0.00000000000E+00 -0.00000000000E+00 -0.54669669481E+02  0.54669669481E+02  0.00000000000E+00 0.  1.
         21    1    1    2  503  504  0.36991889119E+02  0.51708580808E+02  0.29312369911E+03  0.29993946084E+03  0.00000000000E+00 0.  1.
         21    1    1    2  504  506  0.13027325598E+02  0.61694291423E+02  0.16242921910E+03  0.17423876728E+03  0.00000000000E+00 0.  1.
         21    1    1    2  505  502 -0.26275114293E+02 -0.56215181541E+02  0.42784792147E+02  0.75372851252E+02  0.00000000000E+00 0. -1.
         21    1    1    2  506  505 -0.23744100424E+02 -0.57187690690E+02  0.39189530068E+01  0.62044922951E+02  0.00000000000E+00 0.  1.
<scales pt_clust_3="44.02622" pt_clust_4="44.02622" pt_clust_5="129.23778" pt_clust_6="36.57088"></scales>
<clustering>
<clus scale="   36.571">  5  6 -1 -1</clus>
<clus scale="   44.026">  3  4 -1 -1</clus>
<clus scale="  129.238">  2  5  1 -1</clus>
<clus scale="  131.592">  1  3  2 -1</clus>
</clustering>
</event>
<event>
 6    0  0.2036847E+002  0.1299332E+03  0.7546771E-02  0.1227555E+00
         21   -1    0    0  506  501  0.00000000000E+00  0.00000000000E+00  0.21933309821E+03  0.21933309821E+03  0.00000000000E+00 0. -1.
         21   -1    0    0  503  502 -0.00000000000E+00 -0.00000000000E+00 -0.18908439018E+03  0.18908439018E+03  0.00000000000E+00 0. -1.
         21    1    1    2  503  505  0.53834753182E+02  0.17246172472E+02  0.65173373534E+02  0.86273864715E+02  0.00000000000E+00 0. -1.
         21    1    1    2  504  502 -0.33071975723E+02 -0.15019982552E+02 -0.34681431396E+01  0.36488127808E+02  0.00000000000E+00 0. -1.
         21    1    1    2  505  501  0.75646745313E+02 -0.18479192933E+02  0.96894705726E+02  0.12430806348E+03  0.00000000000E+00 0. -1.
         21    1    1    2  506  504 -0.96409522772E+02  0.16253003014E+02 -0.12835122809E+03  0.16134743239E+03  0.00000000000E+00 0. -1.
<scales pt_clust_3="30.85807" pt_clust_4="36.32293" pt_clust_5="30.85807" pt_clust_6="124.78358"></scales>
<clustering>
<clus scale="   30.858">  3  5 -1 -1</clus>
<clus scale="   36.323">  2  4  1 -1</clus>
<clus scale="  124.784">  2  6  1 -1</clus>
<clus scale="  129.933">  1  3  2 -1</clus>
</clustering>
</event>
<event>
 6    0  0.2036847E+002  0.1474238E+03  0.7546771E-02  0.1203675E+00
         21   -1    0    0  505  501  0.00000000000E+00  0.00000000000E+00  0.72386269870E+03  0.72386269870E+03  0.00000000000E+00 0.  1.
         21   -1    0    0  504  502 -0.00000000000E+00 -0.00000000000E+00 -0.86620297067E+02  0.86620297067E+02  0.00000000000E+00 0.  1.
         21    1    1    2  503  501 -0.28671839626E+02 -0.12527179460E+03  0.28799922332E+03  0.31537065422E+03  0.00000000000E+00 0.  1.
         21    1    1    2  504  506 -0.20880347299E+02  0.75408400548E+02  0.15087529425E+03  0.16995814246E+03  0.00000000000E+00 0. -1.
         21    1    1    2  505  502  0.10866569943E+03 -0.52983769744E+02  0.40114129774E+02  0.12737604758E+03  0.00000000000E+00 0.  1.
         21    1    1    2  506  503 -0.59113512509E+02  0.10284716380E+03  0.15825375429E+03  0.19777815150E+03  0.00000000000E+00 0.  1.
<scales pt_clust_3="142.26256" pt_clust_4="31.40396" pt_clust_5="120.89464" pt_clust_6="31.40396"></scales>
<clustering>
<clus scale="   31.404">  4  6 -1 -1</clus>
<clus scale="  120.895">  2  5  1 -1</clus>
<clus scale="  142.263">  1  3  2 -1</clus>
<clus scale="  142.263">  1  3  2 -1</clus>
</clustering>
</event>
<event>
 6    0  0.2036847E+002  0.2113046E+03  0.7546771E-02  0.1140537E+00
         21   -1    0    0  506  501  0.00000000000E+00  0.00000000000E+00  0.11063515579E+04  0.11063515579E+04  0.00000000000E+00 0. -1.
         21   -1    0    0  504  502 -0.00000000000E+00 -0.00000000000E+00 -0.11557430830E+04  0.11557430830E+04  0.00000000000E+00 0.  1.
         21    1    1    2  503  501  0.11317681590E+03  0.70958453846E+01  0.63674999465E+03  0.64676881369E+03  0.00000000000E+00 0. -1.
         21    1    1    2  504  505 -0.15297098723E+03  0.53542290216E+01 -0.66728621459E+03  0.68461644947E+03  0.00000000000E+00 0.  1.
         21    1    1    2  505  503  0.75894913280E+02  0.61503138539E+02  0.44704667024E+03  0.45759523520E+03  0.00000000000E+00 0. -1.
         21    1    1    2  506  502 -0.36100741950E+02 -0.73953212945E+02 -0.46590197535E+03  0.47311414258E+03  0.00000000000E+00 0.  1.
<scales pt_clust_3="62.61189" pt_clust_4="200.24694" pt_clust_5="62.61189" pt_clust_6="82.29424"></scales>
<clustering>
<clus scale="   62.612">  3  5 -1 -1</clus>
<clus scale="   82.294">  2  6  1 -1</clus>
<clus scale="  200.247">  2  4  1 -1</clus>
<clus scale="  211.305">  1  3  2 -1</clus>
</clustering>
</event>
<event>
 6    0  0.2036847E+002  0.9583109E+02  0.7546771E-02  0.1289315E+00
         21   -1    0    0  506  501  0.00000000000E+00  0.00000000000E+00  0.43070865442E+03  0.43070865442E+03  0.00000000000E+00 0.  1.
         21   -1    0    0  503  502 -0.00000000000E+00 -0.00000000000E+00 -0.50368086807E+02  0.50368086807E+02  0.00000000000E+00 0.  1.
         21    1    1    2  503  505  0.34919507950E+02 -0.17610850180E+02  0.24765933921E+02  0.46291095931E+02  0.00000000000E+00 0.  1.
         21    1    1    2  504  502  0.34651873324E+01  0.36300074883E+02  0.15827964274E+02  0.39752074320E+02  0.00000000000E+00 0.  1.
         21    1    1    2  505  501 -0.11282357606E+02  0.88579866823E+02  0.17686360323E+03  0.19812727865E+03  0.00000000000E+00 0.  1.
         21    1    1    2  506  504 -0.27102337676E+02 -0.10726909153E+03  0.16288306619E+03  0.19690629232E+03  0.00000000000E+00 0.  1.
<scales pt_clust_3="36.65328" pt_clust_4="36.46509" pt_clust_5="95.83109" pt_clust_6="14000.00000"></scales>
<clustering>
<clus scale="   36.465">  2  4  1 -1</clus>
<clus scale="   36.653">  2  3  1 -1</clus>
<clus scale="   95.831">  1  5  2 -1</clus>
<clus scale="   95.831">  1  3  2 -1</clus>
</clustering>
</event>
<event>
 6    0  0.2036847E+002  0.1233248E+03  0.7546771E-02  0.1237711E+00
         21   -1    0    0  503  501  0.00000000000E+00  0.00000000000E+00  0.90762955247E+02  0.90762955247E+02  0.00000000000E+00 0.  1.
         21   -1    0    0  506  502 -0.00000000000E+00 -0.00000000000E+00 -0.78585240472E+03  0.78585240472E+03  0.00000000000E+00 0.  1.
         21    1    1    2  503  504 -0.64334299247E+02  0.30003981898E+02 -0.19882681032E+02  0.73718803533E+02  0.00000000000E+00 0.  1.
         21    1    1    2  504  502  0.36751678285E+02 -0.12920623915E+03 -0.56872053901E+03  0.58436973705E+03  0.00000000000E+00 0.  1.
         21    1    1    2  505  501 -0.18891902951E+01  0.83847116724E+02  0.21266400609E+02  0.86522643381E+02  0.00000000000E+00 0.  1.
         21    1    1    2  506  505  0.29471811257E+02  0.15355140527E+02 -0.12775263004E+03  0.13200417600E+03  0.00000000000E+00 0.  1.
<scales pt_clust_3="69.56977" pt_clust_4="14000.00000" pt_clust_5="123.32485" pt_clust_6="33.23203"></scales>
<clustering>
<clus scale="   33.232">  2  6  1 -1</clus>
<clus scale="   69.570">  1  3  2 -1</clus>
<clus scale="  123.325">  1  5  2 -1</clus>
<clus scale="   69.570">  1  3  2 -1</clus>
</clustering>
</event>
<event>
 6    0  0.2036847E+002  0.1198822E+03  0.7546771E-02  0.1243291E+00
         21   -1    0    0  506  501  0.00000000000E+00  0.00000000000E+00  0.49644709705E+03  0.49644709705E+03  0.00000000000E+00 0. -1.
         21   -1    0    0  505  502 -0.00000000000E+00 -0.00000000000E+00 -0.61536477092E+03  0.61536477092E+03  0.00000000000E+00 0.  1.
         21    1    1    2  503  504 -0.30580802351E+02 -0.86665369372E+02 -0.51519711822E+03  0.52332985998E+03  0.00000000000E+00 0.  1.
         21    1    1    2  504  502 -0.75937271489E+02  0.33353250131E+02 -0.55884031786E+02  0.10000966705E+03  0.00000000000E+00 0.  1.
         21    1    1    2  505  501  0.13048444270E+03  0.76235607896E+02  0.35589295886E+03  0.38664952588E+03  0.00000000000E+00 0. -1.
         21    1    1    2  506  503 -0.23966368866E+02 -0.22923488654E+02  0.96270517274E+02  0.10182281505E+03  0.00000000000E+00 0. -1.
<scales pt_clust_3="14000.00000" pt_clust_4="83.66291" pt_clust_5="119.88223" pt_clust_6="33.16434"></scales>
<clustering>
<clus scale="   33.164">  1  6  2 -1</clus>
<clus scale="   83.663">  2  4  1 -1</clus>
<clus scale="  119.882">  1  5  2 -1</clus>
<clus scale="   33.164">  1  3  2 -1</clus>
</clustering>
</event>
<event>
 6    0  0.2036847E+002  0.1034635E+03  0.7546771E-02  0.1273177E+00
         21   -1    0    0  502  501  0.00000000000E+00  0.00000000000E+00  0.16227614491E+03  0.16227614491E+03  0.00000000000E+00 0.  1.
         21   -1    0    0  504  502 -0.00000000000E+00 -0.00000000000E+00 -0.13685854687E+03  0.13685854687E+03  0.00000000000E+00 0.  1.
         21    1    1    2  503  505 -0.75152483194E+01 -0.45688295992E+02  0.29251596348E+01  0.46394567643E+02  0.00000000000E+00 0. -1.
         21    1    1    2  504  506 -0.85084642781E+02  0.69637697237E+02 -0.34620828124E+02  0.11527101567E+03  0.00000000000E+00 0.  1.
         21    1    1    2  505  501  0.74269997040E+02  0.18768464338E+02  0.23580066446E+02  0.80151776322E+02  0.00000000000E+00 0.  1.
         21    1    1    2  506  503  0.18329894061E+02 -0.42717865583E+02  0.33533200082E+02  0.57317332143E+02  0.00000000000E+00 0.  1.
<scales pt_clust_3="38.58088" pt_clust_4="95.97058" pt_clust_5="76.60475" pt_clust_6="38.58088"></scales>
<clustering>
<clus scale="   38.581">  3  6 -1 -1</clus>
<clus scale="   76.605">  1  5  2 -1</clus>
<clus scale="   95.971">  2  4  1 -1</clus>
<clus scale="   76.605">  1  3  2 -1</clus>
</clustering>
</event>
<event>
 6    0  0.2036847E+002  0.9476987E+02  0.7546771E-02  0.1291695E+00
         21   -1    0    0  505  501  0.00000000000E+00  0.00000000000E+00  0.24898467053E+04  0.24898467053E+04  0.00000000000E+00 0.  1.
         21   -1    0    0  504  502 -0.00000000000E+00 -0.00000000000E+00 -0.18785861898E+02  0.18785861898E+02  0.00000000000E+00 0.  1.
         21    1    1    2  503  501  0.49360929233E+02  0.62395323958E+02  0.11315440045E+04  0.11343374771E+04  0.00000000000E+00 0.  1.
         21    1    1    2  504  506 -0.68520534186E+01  0.48572010732E+02  0.65543520780E+02  0.81866623106E+02  0.00000000000E+00 0.  1.
         21    1    1    2  505  502 -0.90254773419E+01 -0.13545542034E+03  0.11996955810E+04  0.12073521099E+04  0.00000000000E+00 0.  1.
         21    1    1    2  506  503 -0.33483398472E+02  0.24488085654E+02  0.74277737112E+02  0.85076357131E+02  0.00000000000E+00 0.  1.
<scales pt_clust_3="79.55927" pt_clust_4="33.85398" pt_clust_5="87.32744" pt_clust_6="33.85398"></scales>
<clustering>
<clus scale="   33.854">  4  6 -1 -1</clus>
<clus scale="   79.559">  1  3  2 -1</clus>
<clus scale="   87.327">  1  5  2 -1</clus>
<clus scale="   79.559">  1  3  2 -1</clus>
</clustering>
</event>
<event>
 6    0  0.2036847E+002  0.1338249E+03  0.7546771E-02  0.1221888E+00
         21   -1    0    0  506  501  0.00000000000E+00  0.00000000000E+00  0.23328766187E+03  0.23328766187E+03  0.00000000000E+00 0. -1.
         21   -1    0    0  505  502 -0.00000000000E+00 -0.00000000000E+00 -0.35437404848E+03  0.35437404848E+03  0.00000000000E+00 0. -1.
         21    1    1    2  503  501 -0.49606113310E+02 -0.40671439713E+02  0.35237263536E+01  0.64244448270E+02  0.00000000000E+00 0. -1.
         21    1    1    2  504  503  0.67043071331E+01  0.43039239605E+02 -0.15899528465E+03  0.16485394876E+03  0.00000000000E+00 0. -1.
         21    1    1    2  505  504  0.61802832513E+02  0.60773708178E+02 -0.14417653728E+03  0.16822576383E+03  0.00000000000E+00 0. -1.
         21    1    1    2  506  502 -0.18901026337E+02 -0.63141508070E+02  0.17856170897E+03  0.19033754950E+03  0.00000000000E+00 0. -1.
<scales pt_clust_3="64.14774" pt_clust_4="42.28830" pt_clust_5="42.28830" pt_clust_6="119.79362"></scales>
<clustering>
<clus scale="   42.288">  4  5 -1 -1</clus>
<clus scale="   64.148">  1  3  2 -1</clus>
<clus scale="  119.794">  1  6  2 -1</clus>
<clus scale="   64.148">  1  3  2 -1</clus>
</clustering>
</event>
<event>
 6    0  0.2036847E+002  0.1672025E+03  0.7546771E-02  0.1180797E+00
         21   -1    0    0  506  501  0.00000000000E+00  0.00000000000E+00  0.73402399200E+03  0.73402399200E+03  0.00000000000E+00 0. -1.
         21   -1    0    0  505  502 -0.00000000000E+00 -0.00000000000E+00 -0.36181132878E+03  0.36181132878E+03  0.00000000000E+00 0.  1.
         21    1    1    2  503  502  0.10032040528E+03 -0.13257813740E+03 -0.24391891854E+03  0.29519076045E+03  0.00000000000E+00 0.  1.
         21    1    1    2  504  503 -0.92820498783E+02  0.54405107859E+02  0.43214109339E+03  0.44533300501E+03  0.00000000000E+00 0. -1.
         21    1    1    2  505  501  0.21783702789E+02  0.26483697326E+02 -0.78774404963E+02  0.85914625115E+02  0.00000000000E+00 0.  1.
         21    1    1    2  506  504 -0.29283609288E+02  0.51689332219E+02  0.26276489334E+03  0.26939693021E+03  0.00000000000E+00 0. -1.
<scales pt_clust_3="161.79479" pt_clust_4="31.34282" pt_clust_5="34.29163" pt_clust_6="31.34282"></scales>
<clustering>
<clus scale="   31.343">  4  6 -1 -1</clus>
<clus scale="   34.292">  2  5  1 -1</clus>
<clus scale="  161.795">  2  3  1 -1</clus>
<clus scale="  167.202">  1  3  2 -1</clus>
</clustering>
</event>
<event>
 6    0  0.2036847E+002  0.1912373E+03  0.7546771E-02  0.1157350E+00
         21   -1    0    0  502  501  0.00000000000E+00  0.00000000000E+00  0.41681326565E+03  0.41681326565E+03  0.00000000000E+00 0. -1.
         21   -1    0    0  505  502 -0.00000000000E+00 -0.00000000000E+00 -0.14464668202E+04  0.14464668202E+04  0.00000000000E+00 0.  1.
         21    1    1    2  503  504 -0.16316245119E+02 -0.10654046437E+03 -0.71487777691E+03  0.72295734751E+03  0.00000000000E+00 0.  1.
         21    1    1    2  504  506  0.31966198270E+02  0.18120062103E+03  0.24417463272E+03  0.30573968365E+03  0.00000000000E+00 0. -1.
         21    1    1    2  505  503  0.32917087362E+02 -0.75438368033E+02 -0.68996351372E+03  0.69485547582E+03  0.00000000000E+00 0.  1.
         21    1    1    2  506  501 -0.48567040513E+02  0.77821137403E+00  0.13101310337E+03  0.13972757885E+03  0.00000000000E+00 0. -1.
<scales pt_clust_3="49.53029" pt_clust_4="182.61832" pt_clust_5="49.53029" pt_clust_6="48.57327"></scales>
<clustering>
<clus scale="   48.573">  1  6  2 -1</clus>
<clus scale="   49.530">  3  5 -1 -1</clus>
<clus scale="  182.618">  1  4  2 -1</clus>
<clus scale="   48.573">  1  3  2 -1</clus>
</clustering>
</event>
<event>
 6    0  0.2036847E+002  0.1864304E+03  0.7546771E-02  0.1161721E+00
         21   -1    0    0  505  501  0.00000000000E+00  0.00000000000E+00  0.19780570500E+03  0.19780570500E+03  0.00000000000E+00 0. -1.
         21   -1    0    0  503  502 -0.00000000000E+00 -0.00000000000E+00 -0.24973459935E+03  0.24973459935E+03  0.00000000000E+00 0.  1.
         21    1    1    2  503  504  0.59973266389E+02  0.33441494572E+02 -0.19589351283E+02  0.71406364732E+02  0.00000000000E+00 0. -1.
         21    1    1    2  504  506 -0.69217793602E+02  0.42089595400E+02  0.19840855026E+01  0.81034397557E+02  0.00000000000E+00 0.  1.
         21    1    1    2  505  502  0.13478464643E+03 -0.92859249238E+02 -0.39092697163E+02  0.16827947009E+03  0.00000000000E+00 0. -1.
         21    1    1    2  506  501 -0.12554011922E+03  0.17328159266E+02  0.47690685977E+01  0.12682007196E+03  0.00000000000E+00 0.  1.
<scales pt_clust_3="68.66678" pt_clust_4="32.93363" pt_clust_5="181.82283" pt_clust_6="32.93363"></scales>
<clustering>
<clus scale="   32.934">  4  6 -1 -1</clus>
<clus scale="   68.667">  2  3  1 -1</clus>
<clus scale="  181.823">  2  5  1 -1</clus>
<clus scale="  186.430">  1  3  2 -1</clus>
</clustering>
</event>
<event>
 6    0  0.2036847E+002  0.1361906E+03  0.7546771E-02  0.1218549E+00
         21   -1    0    0  505  501  0.00000000000E+00  0.00000000000E+00  0.44145564394E+03  0.44145564394E+03  0.00000000000E+00 0. -1.
         21   -1    0    0  504  502 -0.00000000000E+00 -0.00000000000E+00 -0.60082059063E+02  0.60082059063E+02  0.00000000000E+00 0. -1.
         21    1    1    2  503  502  0.64050183537E+01 -0.12147388728E+03  0.24584474846E+03  0.27429285426E+03  0.00000000000E+00 0. -1.
         21    1    1    2  504  506 -0.12867194505E+02  0.66137539749E+02  0.15608267297E+02  0.69161816535E+02  0.00000000000E+00 0. -1.
         21    1    1    2  505  503  0.30551160263E+02 -0.79463993691E+01  0.59394600604E+02  0.67262450426E+02  0.00000000000E+00 0. -1.
         21    1    1    2  506  501 -0.24088984112E+02  0.63282746901E+02  0.60525968514E+02  0.90820581784E+02  0.00000000000E+00 0. -1.
<scales pt_clust_3="129.86647" pt_clust_4="40.49672" pt_clust_5="31.56768" pt_clust_6="40.49672"></scales>
<clustering>
<clus scale="   31.568">  1  5  2 -1</clus>
<clus scale="   40.497">  4  6 -1 -1</clus>
<clus scale="  129.866">  1  3  2 -1</clus>
<clus scale="   31.568">  1  3  2 -1</clus>
</clustering>
</event>
<event>
 6    0  0.2036847E+002  0.1514839E+03  0.7546771E-02  0.1198661E+00
         21   -1    0    0  506  501  0.00000000000E+00  0.00000000000E+00  0.78015177796E+03  0.78015177796E+03  0.00000000000E+00 0.  1.
         21   -1    0    0  504  502 -0.00000000000E+00 -0.00000000000E+00 -0.65891854139E+02  0.65891854139E+02  0.00000000000E+00 0.  1.
         21    1    1    2  503  502 -0.82610030555E+02 -0.96804904617E+01  0.14522513987E+02  0.84433597912E+02  0.00000000000E+00 0.  1.
         21    1    1    2  504  505  0.44946435941E+02 -0.29410002222E+01  0.10684711344E+03  0.11595316829E+03  0.00000000000E+00 0.  1.
         21    1    1    2  505  501  0.92491108602E+02 -0.11790316976E+02  0.57573554993E+03  0.58323669312E+03  0.00000000000E+00 0.  1.
         21    1    1    2  506  503 -0.54827513988E+02  0.24411807660E+02  0.17154746460E+02  0.62420172776E+02  0.00000000000E+00 0.  1.
<scales pt_clust_3="143.39659" pt_clust_4="43.07739" pt_clust_5="43.07739" pt_clust_6="32.41846"></scales>
<clustering>
<clus scale="   32.418">  3  6 -1 -1</clus>
<clus scale="   43.077">  4  5 -1 -1</clus>
<clus scale="  143.397">  2  3  1 -1</clus>
<clus scale="  151.484">  1  3  2 -1</clus>
</clustering>
</event>
<event>
 6    0  0.2036847E+002  0.1140700E+03  0.7546771E-02  0.1253213E+00
         21   -1    0    0  503  501  0.00000000000E+00  0.00000000000E+00  0.94582978650E+03  0.94582978650E+03  0.00000000000E+00 0.  1.
         21   -1    0    0  504  502 -0.00000000000E+00 -0.00000000000E+00 -0.49750407883E+02  0.49750407883E+02  0.00000000000E+00 0.  1.
         21    1    1    2  503  506  0.62544104002E+02  0.70288695137E+02  0.34956424133E+03  0.36200472984E+03  0.00000000000E+00 0.  1.
         21    1    1    2  504  505  0.12523905225E+02 -0.96049839695E+02  0.53656429546E+02  0.11073135211E+03  0.00000000000E+00 0.  1.
         21    1    1    2  505  501 -0.43470770405E+02  0.87320769046E+02  0.36082952644E+03  0.37378144916E+03  0.00000000000E+00 0.  1.
         21    1    1    2  506  502 -0.31597238823E+02 -0.61559624487E+02  0.13202918130E+03  0.14906266328E+03  0.00000000000E+00 0.  1.
<scales pt_clust_3="84.02092" pt_clust_4="114.07002" pt_clust_5="14000.00000" pt_clust_6="69.19518"></scales>
<clustering>
<clus scale="   69.195">  2  6  1 -1</clus>
<clus scale="   84.021">  1  3  2 -1</clus>
<clus scale="  114.070">  2  4  1 -1</clus>
<clus scale="   84.021">  1  3  2 -1</clus>
</clustering>
</event>
<event>
 6    0  0.2036847E+002  0.1911159E+03  0.7546771E-02  0.1157459E+00
         21   -1    0    0  506  501  0.00000000000E+00  0.00000000000E+00  0.21968252838E+03  0.21968252838E+03  0.00000000000E+00 0.  1.
         21   -1    0    0  505  502 -0.00000000000E+00 -0.00000000000E+00 -0.10362163596E+04  0.10362163596E+04  0.00000000000E+00 0. -1.
         21    1    1    2  503  502 -0.32220712159E+02  0.30701414149E+02 -0.43121139876E+03  0.43350204329E+03  0.00000000000E+00 0. -1.
         21    1    1    2  504  503 -0.11557215517E+03  0.71296499971E+02 -0.55013919122E+03  0.56665090106E+03  0.00000000000E+00 0. -1.
         21    1    1    2  505  501  0.11382098141E+03 -0.75553881217E+02  0.16296849052E+03  0.21265543416E+03  0.00000000000E+00 0.  1.
         21    1    1    2  506  504  0.33971885920E+02 -0.26444032903E+02  0.18482682411E+01  0.43090509450E+02  0.00000000000E+00 0. -1.
<scales pt_clust_3="40.52402" pt_clust_4="40.52402" pt_clust_5="177.52374" pt_clust_6="43.05085"></scales>
<clustering>
<clus scale="   40.524">  3  4 -1 -1</clus>
<clus scale="   43.051">  1  6  2 -1</clus>
<clus scale="  177.524">  1  5  2 -1</clus>
<clus scale="   43.051">  1  3  2 -1</clus>
</clustering>
</event>
<event>
 6    0  0.2036847E+002  0.9634363E+02  0.7546771E-02  0.1288178E+00
         21   -1    0    0  504  501  0.00000000000E+00  0.00000000000E+00  0.15099784946E+03  0.15099784946E+03  0.00000000000E+00 0. -1.
         21   -1    0    0  503  502 -0.00000000000E+00 -0.00000000000E+00 -0.29638855701E+03  0.29638855701E+03  0.00000000000E+00 0.  1.
         21    1    1    2  503  501  0.14149423479E+02 -0.40568604441E+02 -0.45603459452E+02  0.62655353842E+02  0.00000000000E+00 0.  1.
         21    1    1    2  504  506 -0.42149428354E+01 -0.43286714622E+02  0.73619443248E+02  0.85506302867E+02  0.00000000000E+00 0. -1.
         21    1    1    2  505  502 -0.32200216144E+02  0.12370567215E+03 -0.20648593908E+03  0.24285055133E+03  0.00000000000E+00 0.  1.
         21    1    1    2  506  505  0.22265735500E+02 -0.39850353085E+02  0.33079247740E+02  0.56374198437E+02  0.00000000000E+00 0. -1.
<scales pt_clust_3="42.96531" pt_clust_4="37.90252" pt_clust_5="88.17161" pt_clust_6="37.90252"></scales>
<clustering>
<clus scale="   37.903">  4  6 -1 -1</clus>
<clus scale="   42.965">  2  3  1 -1</clus>
<clus scale="   88.172">  2  5  1 -1</clus>
<clus scale="   96.344">  1  3  2 -1</clus>
</clustering>
</event>
<event>
 6    0  0.2036847E+002  0.1161110E+03  0.7546771E-02  0.1249654E+00
         21   -1    0    0  505  501  0.00000000000E+00  0.00000000000E+00  0.30247349620E+03  0.30247349620E+03  0.00000000000E+00 0.  1.
         21   -1    0    0  506  502 -0.00000000000E+00 -0.00000000000E+00 -0.15342934402E+03  0.15342934402E+03  0.00000000000E+00 0.  1.
         21    1    1    2  503  502  0.20472589093E+01 -0.32049990067E+02  0.79896743437E+01  0.33094229534E+02  0.00000000000E+00 0.  1.
         21    1    1    2  504  501 -0.50783834337E+02  0.96174352068E+02  0.16701516883E+03  0.19930521931E+03  0.00000000000E+00 0.  1.
         21    1    1    2  505  503  0.24506684223E+02  0.25510796798E+02  0.77073397404E+02  0.84803814256E+02  0.00000000000E+00 0. -1.
         21    1    1    2  506  504  0.24229891204E+02 -0.89635158800E+02 -0.10303408840E+03  0.13869957712E+03  0.00000000000E+00 0.  1.
<scales pt_clust_3="32.11531" pt_clust_4="116.11101" pt_clust_5="34.78566" pt_clust_6="14000.00000"></scales>
<clustering>
<clus scale="   32.115">  2  3  1 -1</clus>
<clus scale="   34.786">  1  5  2 -1</clus>
<clus scale="  116.111">  1  4  2 -1</clus>
<clus scale="   34.786">  1  3  2 -1</clus>
</clustering>
</event>
<event>
 6    0  0.2036847E+002  0.1073537E+03  0.7546771E-02  0.1265550E+00
         21   -1    0    0  506  501  0.00000000000E+00  0.00000000000E+00  0.52632222761E+03  0.52632222761E+03  0.00000000000E+00 0. -1.
         21   -1    0    0  505  502 -0.00000000000E+00 -0.00000000000E+00 -0.44960894632E+02  0.44960894632E+02  0.00000000000E+00 0. -1.
         21    1    1    2  503  502  0.25310302411E+02 -0.56053903955E+02  0.53333544914E+02  0.81407116211E+02  0.00000000000E+00 0. -1.
         21    1    1    2  504  503  0.34533171617E+02  0.43115442306E+02  0.12095558158E+03  0.13297268149E+03  0.00000000000E+00 0. -1.
         21    1    1    2  505  501 -0.81440245907E+02 -0.38007271453E+02  0.71287236669E+02  0.11471240756E+03  0.00000000000E+00 0. -1.
         21    1    1    2  506  504  0.21596771879E+02  0.50945733102E+02  0.23578496982E+03  0.24219091698E+03  0.00000000000E+00 0. -1.
<scales pt_clust_3="61.50326" pt_clust_4="38.51366" pt_clust_5="100.19471" pt_clust_6="38.51366"></scales>
<clustering>
<clus scale="   38.514">  4  6 -1 -1</clus>
<clus scale="   61.503">  2  3  1 -1</clus>
<clus scale="  100.195">  2  5  1 -1</clus>
<clus scale="  107.354">  1  3  2 -1</clus>
</clustering>
</event>
<event>
 6    0  0.2036847E+002  0.1280408E+03  0.7546771E-02  0.1230392E+00
         21   -1    0    0  504  501  0.00000000000E+00  0.00000000000E+00  0.98086129453E+02  0.98086129453E+02  0.00000000000E+00 0.  1.
         21   -1    0    0  506  502 -0.00000000000E+00 -0.00000000000E+00 -0.12545268623E+04  0.12545268623E+04  0.00000000000E+00 0. -1.
         21    1    1    2  503  501  0.25467394895E+02 -0.61464729371E+02  0.34996670818E+02  0.75174916879E+02  0.00000000000E+00 0.  1.
         21    1    1    2  504  502  0.31335379994E+02 -0.97121874794E+01 -0.10660480626E+03  0.11153841197E+03  0.00000000000E+00 0.  1.
         21    1    1    2  505  503 -0.15058517758E+02 -0.57653311302E+02  0.11961830944E+02  0.60776217888E+02  0.00000000000E+00 0. -1.
         21    1    1    2  506  505 -0.41744257131E+02  0.12883022815E+03 -0.10967944283E+04  0.11051234450E+04  0.00000000000E+00 0. -1.
<scales pt_clust_3="42.00879" pt_clust_4="32.80598" pt_clust_5="42.00879" pt_clust_6="120.05956"></scales>
<clustering>
<clus scale="   32.806">  2  4  1 -1</clus>
<clus scale="   42.009">  3  5 -1 -1</clus>
<clus scale="  120.060">  2  6  1 -1</clus>
<clus scale="  128.041">  1  3  2 -1</clus>
</clustering>
</event>
<event>
 6    0  0.2036847E+002  0.1197131E+03  0.7546771E-02  0.1243571E+00
         21   -1    0    0  505  501  0.00000000000E+00  0.00000000000E+00  0.33808418907E+03  0.33808418907E+03  0.00000000000E+00 0. -1.
         21   -1    0    0  503  502 -0.00000000000E+00 -0.00000000000E+00 -0.36469867927E+03  0.36469867927E+03  0.00000000000E+00 0. -1.
         21    1    1    2  503  506  0.15866772102E+02 -0.29845205375E+02 -0.35288774517E+02  0.48865001255E+02  0.00000000000E+00 0. -1.
         21    1    1    2  504  502  0.84152009236E+02 -0.44650087355E+02 -0.29764719651E+03  0.31252047061E+03  0.00000000000E+00 0. -1.
         21    1    1    2  505  504 -0.20965123537E+02  0.51709018753E+02  0.61106350497E+02  0.82748686372E+02  0.00000000000E+00 0. -1.
         21    1    1    2  506  501 -0.79053657801E+02  0.22786273977E+02  0.24521513034E+03  0.25864871011E+03  0.00000000000E+00 0. -1.
<scales pt_clust_3="33.80075" pt_clust_4="119.71306" pt_clust_5="54.66995" pt_clust_6="14000.00000"></scales>
<clustering>
<clus scale="   33.801">  2  3  1 -1</clus>
<clus scale="   54.670">  1  5  2 -1</clus>
<clus scale="  119.713">  2  4  1 -1</clus>
<clus scale="   54.670">  1  3  2 -1</clus>
</clustering>
</event>
<event>
 6    0  0.2036847E+002  0.9164646E+02  0.7546771E-02  0.1298913E+00
         21   -1    0    0  505  501  0.00000000000E+00  0.00000000000E+00  0.10131458505E+04  0.10131458505E+04  0.00000000000E+00 0.  1.
         21   -1    0    0  504  502 -0.00000000000E+00 -0.00000000000E+00 -0.64791876451E+02  0.64791876451E+02  0.00000000000E+00 0.  1.
         21    1    1    2  503  501 -0.72190579614E+02 -0.21967397341E+01  0.52197631774E+03  0.52694931609E+03  0.00000000000E+00 0. -1.
         21    1    1    2  504  506  0.42308680635E+02  0.40355357719E+02 -0.22147747227E+02  0.62522812324E+02  0.00000000000E+00 0.  1.
         21    1    1    2  505  502 -0.36563093240E+02 -0.71817957863E+02  0.37587620254E+03  0.38441851997E+03  0.00000000000E+00 0.  1.
         21    1    1    2  506  503  0.66444992219E+02  0.33659339879E+02  0.72649200990E+02  0.10404707856E+03  0.00000000000E+00 0.  1.
<scales pt_clust_3="67.54417" pt_clust_4="58.46862" pt_clust_5="14000.00000" pt_clust_6="91.64646"></scales>
<clustering>
<clus scale="   58.469">  2  4  1 -1</clus>
<clus scale="   67.544">  1  3  2 -1</clus>
<clus scale="   91.646">  2  6  1 -1</clus>
<clus scale="   67.544">  1  3  2 -1</clus>
</clustering>
</event>
<event>
 6    0  0.2036847E+002  0.1429414E+03  0.7546771E-02  0.1209425E+00
         21   -1    0    0  506  501  0.00000000000E+00  0.00000000000E+00  0.33318591480E+02  0.33318591480E+02  0.00000000000E+00 0. -1.
         21   -1    0    0  504  502 -0.00000000000E+00 -0.00000000000E+00 -0.17201388077E+04  0.17201388077E+04  0.00000000000E+00 0. -1.
         21    1    1    2  503  502  0.85108582234E+02 -0.17193958539E+02 -0.98072293394E+03  0.98455907702E+03  0.00000000000E+00 0. -1.
         21    1    1    2  504  501 -0.33948747769E+02  0.52525735032E+02 -0.20352795227E+03  0.21292040219E+03  0.00000000000E+00 0. -1.
         21    1    1    2  505  503  0.56858451986E+02  0.37895875417E+01 -0.39336917466E+03  0.39747522200E+03  0.00000000000E+00 0. -1.
         21    1    1    2  506  505 -0.10801828645E+03 -0.39121364035E+02 -0.10920015534E+03  0.15850269795E+03  0.00000000000E+00 0. -1.
<scales pt_clust_3="31.94957" pt_clust_4="62.54175" pt_clust_5="31.94957" pt_clust_6="137.39318"></scales>
<clustering>
<clus scale="   31.950">  3  5 -1 -1</clus>
<clus scale="   62.542">  1  4  2 -1</clus>
<clus scale="  137.393">  1  6  2 -1</clus>
<clus scale="   62.542">  1  3  2 -1</clus>
</clustering>
</event>
<event>
 6    0  0.2036847E+002  0.1228667E+03  0.7546771E-02  0.1238441E+00
         21   -1    0    0  505  501  0.00000000000E+00  0.00000000000E+00  0.17004231806E+04  0.17004231806E+04  0.00000000000E+00 0. -1.
         21   -1    0    0  503  502 -0.00000000000E+00 -0.00000000000E+00 -0.33185532205E+02  0.33185532205E+02  0.00000000000E+00 0. -1.
         21    1    1    2  503  501 -0.47524554229E+01  0.37692927397E+02  0.23248684566E+03  0.23557053299E+03  0.00000000000E+00 0. -1.
         21    1    1    2  504  502 -0.39202047742E+01 -0.76722835033E+02  0.99526213874E+02  0.12572680171E+03  0.00000000000E+00 0. -1.
         21    1    1    2  505  506  0.12708669568E+03 -0.15414412148E+01  0.10860746922E+04  0.10934860042E+04  0.00000000000E+00 0. -1.
         21    1    1    2  506  504 -0.11841403548E+03  0.40571348851E+02  0.24914989666E+03  0.27882537394E+03  0.00000000000E+00 0. -1.
<scales pt_clust_3="37.99135" pt_clust_4="73.95209" pt_clust_5="122.86671" pt_clust_6="14000.00000"></scales>
<clustering>
<clus scale="   37.991">  1  3  2 -1</clus>
<clus scale="   73.952">  2  4  1 -1</clus>
<clus scale="  122.867">  1  5  2 -1</clus>
<clus scale="   37.991">  1  3  2 -1</clus>
</clustering>
</event>
<event>
 6    0  0.2036847E+002  0.1335630E+03  0.7546771E-02  0.1222263E+00
         21   -1    0    0  506  501  0.00000000000E+00  0.00000000000E+00  0.33665699435E+02  0.33665699435E+02  0.00000000000E+00 0. -1.
         21   -1    0    0  504  502 -0.00000000000E+00 -0.00000000000E+00 -0.85735499246E+03  0.85735499246E+03  0.00000000000E+00 0. -1.
         21    1    1    2  503  501  0.57416957339E+02 -0.79936055007E+01 -0.20504830683E+03  0.21308545904E+03  0.00000000000E+00 0. -1.
         21    1    1    2  504  503  0.67043619789E+02 -0.11902616082E+02 -0.48657292542E+03  0.49131428941E+03  0.00000000000E+00 0. -1.
         21    1    1    2  505  502 -0.67212444740E+02  0.12333103152E+02 -0.98326256204E+02  0.11974001345E+03  0.00000000000E+00 0. -1.
         21    1    1    2  506  505 -0.57248132388E+02  0.75631184304E+01 -0.33741804570E+02  0.66880930002E+02  0.00000000000E+00 0. -1.
<scales pt_clust_3="40.77399" pt_clust_4="40.77399" pt_clust_5="131.85372" pt_clust_6="35.59226"></scales>
<clustering>
<clus scale="   35.592">  5  6 -1 -1</clus>
<clus scale="   40.774">  3  4 -1 -1</clus>
<clus scale="  131.854">  1  5  2 -1</clus>
<clus scale="  131.854">  1  3  2 -1</clus>
</clustering>
</event>
<event>
 6    0  0.2036847E+002  0.1092184E+03  0.7546771E-02  0.1262024E+00
         21   -1    0    0  505  501  0.00000000000E+00  0.00000000000E+00  0.78296544754E+02  0.78296544754E+02  0.00000000000E+00 0. -1.
         21   -1    0    0  506  502 -0.00000000000E+00 -0.00000000000E+00 -0.15076016850E+04  0.15076016850E+04  0.00000000000E+00 0.  1.
         21    1    1    2  503  501 -0.34716509091E+02 -0.80831254563E+01 -0.73630808505E+02  0.81805066357E+02  0.00000000000E+00 0.  1.
         21    1    1    2  504  502  0.42977567244E+02  0.24313321781E+02 -0.17859596920E+03  0.18529632785E+03  0.00000000000E+00 0. -1.
         21    1    1    2  505  504  0.87942477013E+02 -0.86085160017E+02  0.12130725182E+02  0.12365956709E+03  0.00000000000E+00 0. -1.
         21    1    1    2  506  503 -0.96203535165E+02  0.69854963692E+02 -0.11892090877E+04  0.11951372685E+04  0.00000000000E+00 0.  1.
<scales pt_clust_3="35.64510" pt_clust_4="47.83658" pt_clust_5="14000.00000" pt_clust_6="109.21838"></scales>
<clustering>
<clus scale="   35.645">  1  3  2 -1</clus>
<clus scale="   47.837">  2  4  1 -1</clus>
<clus scale="  109.218">  2  6  1 -1</clus>
<clus scale="   35.645">  1  3  2 -1</clus>
</clustering>
</event>
<event>
 6    0  0.2036847E+002  0.1234269E+03  0.7546771E-02  0.1237548E+00
         21   -1    0    0  506  501  0.00000000000E+00  0.00000000000E+00  0.16846917897E+03  0.16846917897E+03  0.00000000000E+00 0.  1.
         21   -1    0    0  505  502 -0.00000000000E+00 -0.00000000000E+00 -0.45898686242E+03  0.45898686242E+03  0.00000000000E+00 0.  1.
         21    1    1    2  503  502  0.12385868021E+03  0.39015744529E+02 -0.32335406492E+03  0.34845523713E+03  0.00000000000E+00 0.  1.
         21    1    1    2  504  501  0.36801926979E+02  0.53942464179E+01 -0.64965471307E+01  0.37758242125E+02  0.00000000000E+00 0.  1.
         21    1    1    2  505  504 -0.10484223628E+03  0.59111622125E+02  0.22240510651E+02  0.12239574622E+03  0.00000000000E+00 0.  1.
         21    1    1    2  506  503 -0.55818370904E+02 -0.10352161307E+03  0.17092417950E+02  0.11884681592E+03  0.00000000000E+00 0.  1.
<scales pt_clust_3="14000.00000" pt_clust_4="37.19516" pt_clust_5="106.98709" pt_clust_6="123.42690"></scales>
<clustering>
<clus scale="   37.195">  1  4  2 -1</clus>
<clus scale="  106.987">  1  5  2 -1</clus>
<clus scale="  123.427">  1  6  2 -1</clus>
<clus scale="   37.195">  1  3  2 -1</clus>
</clustering>
</event>
<event>
 6    0  0.2036847E+002  0.1736388E+03  0.7546771E-02  0.1174105E+00
         21   -1    0    0  506  501  0.00000000000E+00  0.00000000000E+00  0.84461446887E+02  0.84461446887E+02  0.00000000000E+00 0.  1.
         21   -1    0    0  505  502 -0.00000000000E+00 -0.00000000000E+00 -0.41277709017E+03  0.41277709017E+03  0.00000000000E+00 0.  1.
         21    1    1    2  503  502  0.48221735142E+02  0.28834937188E+02 -0.69305911112E+02  0.89219384990E+02  0.00000000000E+00 0. -1.
         21    1    1    2  504  501 -0.15178504009E+03  0.16968723218E+02 -0.14308519173E+03  0.20928451461E+03  0.00000000000E+00 0.  1.
         21    1    1    2  505  504 -0.20052614402E+02 -0.30471236734E+02 -0.32126015701E+02  0.48607453104E+02  0.00000000000E+00 0.  1.
         21    1    1    2  506  503  0.12361591935E+03 -0.15332423673E+02 -0.83798524747E+02  0.15012718436E+03  0.00000000000E+00 0.  1.
<scales pt_clust_3="41.23375" pt_clust_4="161.29200" pt_clust_5="36.47744" pt_clust_6="41.23375"></scales>
<clustering>
<clus scale="   36.477">  2  5  1 -1</clus>
<clus scale="   41.234">  3  6 -1 -1</clus>
<clus scale="  161.292">  1  4  2 -1</clus>
<clus scale="  161.292">  1  3  2 -1</clus>
</clustering>
</event>
<event>
 6    0  0.2036847E+002  0.1307065E+03  0.7546771E-02  0.1226411E+00
         21   -1    0    0  506  501  0.00000000000E+00  0.00000000000E+00  0.20074728559E+03  0.20074728559E+03  0.00000000000E+00 0.  1.
         21   -1    0    0  503  502 -0.00000000000E+00 -0.00000000000E+00 -0.53957189443E+03  0.53957189443E+03  0.00000000000E+00 0.  1.
         21    1    1    2  503  505 -0.55388771025E+02 -0.42328940492E+01 -0.75483274751E+02  0.93720638681E+02  0.00000000000E+00 0. -1.
         21    1    1    2  504  501  0.58634051333E+02  0.16998320035E+02 -0.13106463731E+02  0.62439364597E+02  0.00000000000E+00 0.  1.
         21    1    1    2  505  504 -0.87381163967E+02 -0.43870841087E+01 -0.40147021351E+03  0.41089298687E+03  0.00000000000E+00 0.  1.
         21    1    1    2  506  502  0.84135883658E+02 -0.83783418774E+01  0.15123534316E+03  0.17326618987E+03  0.00000000000E+00 0.  1.
<scales pt_clust_3="55.55028" pt_clust_4="56.54163" pt_clust_5="130.70653" pt_clust_6="14000.00000"></scales>
<clustering>
<clus scale="   55.550">  2  3  1 -1</clus>
<clus scale="   56.542">  1  4  2 -1</clus>
<clus scale="  130.707">  2  5  1 -1</clus>
<clus scale="   56.542">  1  3  2 -1</clus>
</clustering>
</event>
<event>
 6    0  0.2036847E+002  0.9230011E+02  0.7546771E-02  0.1297375E+00
         21   -1    0    0  503  501  0.00000000000E+00  0.00000000000E+00  0.14193894819E+04  0.14193894819E+04  0.00000000000E+00 0.  1.
         21   -1    0    0  506  502 -0.00000000000E+00 -0.00000000000E+00 -0.10802670503E+03  0.10802670503E+03  0.00000000000E+00 0.  1.
         21    1    1    2  503  502 -0.29400786589E+02  0.45410945414E+02  0.48116685761E+02  0.72400108177E+02  0.00000000000E+00 0.  1.
         21    1    1    2  504  505 -0.52676181519E+02  0.35498898665E+02  0.51476949732E+03  0.51867387372E+03  0.00000000000E+00 0.  1.
         21    1    1    2  505  501  0.39208100184E+01  0.47611951922E+02  0.78098871392E+03  0.78244849159E+03  0.00000000000E+00 0.  1.
         21    1    1    2  506  504  0.78156158089E+02 -0.12852179600E+03 -0.32512120109E+02  0.15389371348E+03  0.00000000000E+00 0.  1.
<scales pt_clust_3="57.73891" pt_clust_4="14000.00000" pt_clust_5="47.77312" pt_clust_6="92.30011"></scales>
<clustering>
<clus scale="   47.773">  1  5  2 -1</clus>
<clus scale="   57.739">  2  3  1 -1</clus>
<clus scale="   92.300">  2  6  1 -1</clus>
<clus scale="   47.773">  1  3  2 -1</clus>
</clustering>
</event>
<event>
 6    0  0.2036847E+002  0.1222866E+03  0.7546771E-02  0.1239372E+00
         21   -1    0    0  503  501  0.00000000000E+00  0.00000000000E+00  0.25211157047E+04  0.25211157047E+04  0.00000000000E+00 0.  1.
         21   -1    0    0  505  502 -0.00000000000E+00 -0.00000000000E+00 -0.99184274916E+02  0.99184274916E+02  0.00000000000E+00 0. -1.
         21    1    1    2  503  504  0.43254418721E+02  0.26672540628E+02  0.80673302644E+03  0.80833195231E+03  0.00000000000E+00 0.  1.
         21    1    1    2  504  506  0.25279275602E+02  0.37529730292E+02  0.15349292482E+04  0.15355960795E+04  0.00000000000E+00 0.  1.
         21    1    1    2  505  501 -0.13075422714E+03  0.40803241220E+02  0.14537435827E+02  0.13774218471E+03  0.00000000000E+00 0. -1.
         21    1    1    2  506  502  0.62220532816E+02 -0.10500551214E+03  0.65731719269E+02  0.13862976304E+03  0.00000000000E+00 0. -1.
<scales pt_clust_3="103.03596" pt_clust_4="40.00833" pt_clust_5="122.28663" pt_clust_6="14000.00000"></scales>
<clustering>
<clus scale="   40.008">  3  4 -1 -1</clus>
<clus scale="  103.036">  1  3  2 -1</clus>
<clus scale="  122.287">  2  5  1 -1</clus>
<clus scale="  103.036">  1  3  2 -1</clus>
</clustering>
</event>
<event>
 6    0  0.2036847E+002  0.2460957E+03  0.7546771E-02  0.1115797E+00
         21   -1    0    0  503  501  0.00000000000E+00  0.00000000000E+00  0.12395135191E+04  0.12395135191E+04  0.00000000000E+00 0.  1.
         21   -1    0    0  504  502 -0.00000000000E+00 -0.00000000000E+00 -0.77356142312E+02  0.77356142312E+02  0.00000000000E+00 0.  1.
         21    1    1    2  503  506  0.26124356890E+01 -0.44951219488E+02  0.89864303417E+02  0.10051382981E+03  0.00000000000E+00 0. -1.
         21    1    1    2  504  505  0.11791153731E+02  0.22381918843E+03  0.57953990942E+03  0.62136991159E+03  0.00000000000E+00 0.  1.
         21    1    1    2  505  501 -0.46962486474E+02  0.15335784358E+02  0.34572553444E+03  0.34923746446E+03  0.00000000000E+00 0.  1.
         21    1    1    2  506  502  0.32558897054E+02 -0.19420375330E+03  0.14702762952E+03  0.24574845557E+03  0.00000000000E+00 0.  1.
<scales pt_clust_3="34.96876" pt_clust_4="234.97963" pt_clust_5="49.40305" pt_clust_6="34.96876"></scales>
<clustering>
<clus scale="   34.969">  3  6 -1 -1</clus>
<clus scale="   49.403">  1  5  2 -1</clus>
<clus scale="  234.980">  1  4  2 -1</clus>
<clus scale="   49.403">  1  3  2 -1</clus>
</clustering>
</event>
<event>
 6    0  0.2036847E+002  0.7231594E+02  0.7546771E-02  0.1352390E+00
         21   -1    0    0  504  501  0.00000000000E+00  0.00000000000E+00  0.11271987509E+04  0.11271987509E+04  0.00000000000E+00 0.  1.
         21   -1    0    0  503  502 -0.00000000000E+00 -0.00000000000E+00 -0.48050487973E+02  0.48050487973E+02  0.00000000000E+00 0.  1.
         21    1    1    2  503  506  0.24968739413E+02  0.76184376916E+02  0.23667259880E+02  0.83592083502E+02  0.00000000000E+00 0.  1.
         21    1    1    2  504  505  0.29844936654E+02  0.18315315994E+02  0.32660274092E+03  0.32847453694E+03  0.00000000000E+00 0.  1.
         21    1    1    2  505  502 -0.50901697166E+02 -0.91040902359E+01  0.31423848104E+02  0.60508887472E+02  0.00000000000E+00 0.  1.
         21    1    1    2  506  501 -0.39119789009E+01 -0.85395602675E+02  0.69745441401E+03  0.70267373094E+03  0.00000000000E+00 0.  1.
<scales pt_clust_3="72.31594" pt_clust_4="35.01673" pt_clust_5="49.84074" pt_clust_6="14000.00000"></scales>
<clustering>
<clus scale="   35.017">  1  4  2 -1</clus>
<clus scale="   49.841">  2  5  1 -1</clus>
<clus scale="   72.316">  2  3  1 -1</clus>
<clus scale="   35.017">  1  3  2 -1</clus>
</clustering>
</event>
<event>
 6    0  0.2036847E+002  0.1929909E+03  0.7546771E-02  0.1155791E+00
         21   -1    0    0  502  501  0.00000000000E+00  0.00000000000E+00  0.22467454659E+03  0.22467454659E+03  0.00000000000E+00 0.  1.
         21   -1    0    0  504  502 -0.00000000000E+00 -0.00000000000E+00 -0.39489521627E+03  0.39489521627E+03  0.00000000000E+00 0.  1.
         21    1    1    2  503  505  0.33762195740E+02 -0.51045898199E+02 -0.61158709589E+02  0.86521427072E+02  0.00000000000E+00 0.  1.
         21    1    1    2  504  503  0.97163345100E+02 -0.96427349464E+02 -0.24006838220E+03  0.27635444178E+03  0.00000000000E+00 0.  1.
         21    1    1    2  505  506 -0.10939710604E+03  0.86049901381E+02  0.13167992649E+03  0.19160353696E+03  0.00000000000E+00 0.  1.
         21    1    1    2  506  501 -0.21528434803E+02  0.61423346282E+02 -0.67350437762E+00  0.65090357057E+02  0.00000000000E+00 0.  1.
<scales pt_clust_3="30.28346" pt_clust_4="30.28346" pt_clust_5="187.60123" pt_clust_6="65.08687"></scales>
<clustering>
<clus scale="   30.283">  3  4 -1 -1</clus>
<clus scale="   65.087">  1  6  2 -1</clus>
<clus scale="  187.601">  1  5  2 -1</clus>
<clus scale="   65.087">  1  3  2 -1</clus>
</clustering>
</event>
<event>
 6    0  0.2036847E+002  0.7378306E+02  0.7546771E-02  0.1347681E+00
         21   -1    0    0  505  501  0.00000000000E+00  0.00000000000E+00  0.88966859317E+02  0.88966859317E+02  0.00000000000E+00 0. -1.
         21   -1    0    0  503  502 -0.00000000000E+00 -0.00000000000E+00 -0.13095178356E+04  0.13095178356E+04  0.00000000000E+00 0. -1.
         21    1    1    2  503  506  0.33170199684E+01 -0.37098717625E+02 -0.41148963755E+03  0.41317192461E+03  0.00000000000E+00 0.  1.
         21    1    1    2  504  501  0.71186012783E+02 -0.29084653491E+02 -0.76308150423E+02  0.10833420192E+03  0.00000000000E+00 0.  1.
         21    1    1    2  505  502 -0.17649683918E+01  0.66285353932E+02  0.54831102969E+02  0.86042507589E+02  0.00000000000E+00 0. -1.
         21    1    1    2  506  504 -0.72738064360E+02 -0.10198281605E+00 -0.78758429129E+03  0.79093606081E+03  0.00000000000E+00 0. -1.
<scales pt_clust_3="37.24671" pt_clust_4="14000.00000" pt_clust_5="65.66226" pt_clust_6="73.78306"></scales>
<clustering>
<clus scale="   37.247">  2  3  1 -1</clus>
<clus scale="   65.662">  1  5  2 -1</clus>
<clus scale="   73.783">  2  6  1 -1</clus>
<clus scale="   65.662">  1  3  2 -1</clus>
</clustering>
</event>
<event>
 6    0  0.2036847E+002  0.1325035E+03  0.7546771E-02  0.1223788E+00
         21   -1    0    0  504  501  0.00000000000E+00  0.00000000000E+00  0.13846734283E+03  0.13846734283E+03  0.00000000000E+00 0. -1.
         21   -1    0    0  503  502 -0.00000000000E+00 -0.00000000000E+00 -0.37735251098E+03  0.37735251098E+03  0.00000000000E+00 0. -1.
         21    1    1    2  503  506  0.13021276435E+03  0.49022102365E+02 -0.25048095556E+03  0.28652964876E+03  0.00000000000E+00 0. -1.
         21    1    1    2  504  502 -0.79180089207E+01 -0.73208794043E+02 -0.43333149321E+02  0.85439945111E+02  0.00000000000E+00 0. -1.
         21    1    1    2  505  501 -0.49706732543E+02 -0.39660560632E+01  0.41435080576E+02  0.64833284377E+02  0.00000000000E+00 0. -1.
         21    1    1    2  506  505 -0.72588022888E+02  0.28152747741E+02  0.13493856151E+02  0.79016975556E+02  0.00000000000E+00 0. -1.
<scales pt_clust_3="124.18722" pt_clust_4="73.63574" pt_clust_5="36.97591" pt_clust_6="36.97591"></scales>
<clustering>
<clus scale="   36.976">  5  6 -1 -1</clus>
<clus scale="   73.636">  2  4  1 -1</clus>
<clus scale="  124.187">  2  3  1 -1</clus>
<clus scale="  132.503">  1  3  2 -1</clus>
</clustering>
</event>
<event>
 6    0  0.2036847E+002  0.1281581E+03  0.7546771E-02  0.1230215E+00
         21   -1    0    0  503  501  0.00000000000E+00  0.00000000000E+00  0.44222145749E+03  0.44222145749E+03  0.00000000000E+00 0. -1.
         21   -1    0    0  504  502 -0.00000000000E+00 -0.00000000000E+00 -0.80335566077E+02  0.80335566077E+02  0.00000000000E+00 0.  1.
         21    1    1    2  503  506  0.92827318735E+02 -0.77842101083E+02  0.33495691686E+03  0.35619157760E+03  0.00000000000E+00 0. -1.
         21    1    1    2  504  505 -0.38545289208E+02  0.26487147767E+02 -0.97181068664E-01  0.46768769079E+02  0.00000000000E+00 0.  1.
         21    1    1    2  505  501 -0.23973211005E+02  0.65515037474E+02  0.43595376183E+02  0.82264766490E+02  0.00000000000E+00 0.  1.
         21    1    1    2  506  502 -0.30308818522E+02 -0.14160084159E+02 -0.16569220562E+02  0.37331910393E+02  0.00000000000E+00 0.  1.
<scales pt_clust_3="118.49009" pt_clust_4="43.61975" pt_clust_5="43.61975" pt_clust_6="33.45344"></scales>
<clustering>
<clus scale="   33.453">  2  6  1 -1</clus>
<clus scale="   43.620">  4  5 -1 -1</clus>
<clus scale="  118.490">  1  3  2 -1</clus>
<clus scale="  118.490">  1  3  2 -1</clus>
</clustering>
</event>
<event>
 6    0  0.2036847E+002  0.9668126E+02  0.7546771E-02  0.1287434E+00
         21   -1    0    0  505  501  0.00000000000E+00  0.00000000000E+00  0.29330559736E+03  0.29330559736E+03  0.00000000000E+00 0. -1.
         21   -1    0    0  503  502 -0.00000000000E+00 -0.00000000000E+00 -0.97951448272E+02  0.97951448272E+02  0.00000000000E+00 0. -1.
         21    1    1    2  503  506  0.45800602156E+02  0.24649808228E+01  0.73011115481E+01  0.46444348614E+02  0.00000000000E+00 0.  1.
         21    1    1    2  504  502 -0.55388573646E+02 -0.69443136763E+02  0.22746907484E+02  0.91693321098E+02  0.00000000000E+00 0. -1.
         21    1    1    2  505  504  0.78999306669E+02  0.62726380715E+02  0.15182873794E+03  0.18228399534E+03  0.00000000000E+00 0. -1.
         21    1    1    2  506  501 -0.69411335180E+02  0.42517752251E+01  0.13477392117E+02  0.70835380582E+02  0.00000000000E+00 0. -1.
<scales pt_clust_3="45.86689" pt_clust_4="96.68126" pt_clust_5="14000.00000" pt_clust_6="52.90463"></scales>
<clustering>
<clus scale="   45.867">  2  3  1 -1</clus>
<clus scale="   52.905">  2  6  1 -1</clus>
<clus scale="   96.681">  2  4  1 -1</clus>
<clus scale="   96.681">  1  3  2 -1</clus>
</clustering>
</event>
<event>
 6    0  0.2036847E+002  0.1460761E+03  0.7546771E-02  0.1205379E+00
         21   -1    0    0  503  501  0.00000000000E+00  0.00000000000E+00  0.33230455184E+03  0.33230455184E+03  0.00000000000E+00 0. -1.
         21   -1    0    0  506  502 -0.00000000000E+00 -0.00000000000E+00 -0.24318125582E+03  0.24318125582E+03  0.00000000000E+00 0. -1.
         21    1    1    2  503  502  0.36074696912E+02 -0.15728899996E+02 -0.37888488672E+01  0.39536532829E+02  0.00000000000E+00 0. -1.
         21    1    1    2  504  505 -0.12326067988E+03 -0.49955103579E+02 -0.54389094916E+02  0.14369022661E+03  0.00000000000E+00 0. -1.
         21    1    1    2  505  501  0.14566496145E+03  0.32519167888E+02  0.23705033137E+03  0.28012253904E+03  0.00000000000E+00 0. -1.
         21    1    1    2  506  504 -0.58478978487E+02  0.33164835687E+02 -0.89749091570E+02  0.11213650917E+03  0.00000000000E+00 0. -1.
<scales pt_clust_3="39.35457" pt_clust_4="146.07613" pt_clust_5="14000.00000" pt_clust_6="49.42923"></scales>
<clustering>
<clus scale="   39.355">  2  3  1 -1</clus>
<clus scale="   49.429">  2  6  1 -1</clus>
<clus scale="  146.076">  2  4  1 -1</clus>
<clus scale="  146.076">  1  3  2 -1</clus>
</clustering>
</event>
<event>
 6    0  0.2036847E+002  0.1795162E+03  0.7546771E-02  0.1168272E+00
         21   -1    0    0  502  501  0.00000000000E+00  0.00000000000E+00  0.20883890263E+03  0.20883890263E+03  0.00000000000E+00 0.  1.
         21   -1    0    0  503  502 -0.00000000000E+00 -0.00000000000E+00 -0.11043134437E+04  0.11043134437E+04  0.00000000000E+00 0. -1.
         21    1    1    2  503  506  0.23131101302E+02  0.76307528022E+02 -0.56028066960E+03  0.56592606885E+03  0.00000000000E+00 0. -1.
         21    1    1    2  504  505  0.96543993964E+02 -0.11482894621E+03  0.11947778437E+03  0.19178469859E+03  0.00000000000E+00 0.  1.
         21    1    1    2  505  501 -0.13929678414E+02 -0.57649868559E+02  0.17719143425E+02  0.61899202978E+02  0.00000000000E+00 0.  1.
         21    1    1    2  506  504 -0.10574541685E+03  0.96171286743E+02 -0.47239079924E+03  0.49354237588E+03  0.00000000000E+00 0. -1.
<scales pt_clust_3="78.74758" pt_clust_4="14000.00000" pt_clust_5="59.30888" pt_clust_6="179.51620"></scales>
<clustering>
<clus scale="   59.309">  1  5  2 -1</clus>
<clus scale="   78.748">  2  3  1 -1</clus>
<clus scale="  179.516">  2  6  1 -1</clus>
<clus scale="   59.309">  1  3  2 -1</clus>
</clustering>
</event>
<event>
 6    0  0.2036847E+002  0.8836010E+02  0.7546771E-02  0.1306872E+00
         21   -1    0    0  504  501  0.00000000000E+00  0.00000000000E+00  0.17115675260E+03  0.17115675260E+03  0.00000000000E+00 0. -1.
         21   -1    0    0  505  502 -0.00000000000E+00 -0.00000000000E+00 -0.69618144280E+03  0.69618144280E+03  0.00000000000E+00 0. -1.
         21    1    1    2  503  502  0.44000997981E+02 -0.22754335925E+02 -0.15652794984E+03  0.16417931267E+03  0.00000000000E+00 0. -1.
         21    1    1    2  504  503 -0.65161050420E+02 -0.28379801712E+02  0.61402422498E+01  0.71337775491E+02  0.00000000000E+00 0. -1.
         21    1    1    2  505  506 -0.30681325239E+02 -0.43318484081E+02 -0.47893321212E+03  0.48186601504E+03  0.00000000000E+00 0. -1.
         21    1    1    2  506  501  0.51841377679E+02  0.94452621718E+02  0.10429622951E+03  0.14995509221E+03  0.00000000000E+00 0. -1.
<scales pt_clust_3="49.53633" pt_clust_4="88.36010" pt_clust_5="64.31945" pt_clust_6="14000.00000"></scales>
<clustering>
<clus scale="   49.536">  2  3  1 -1</clus>
<clus scale="   64.319">  2  5  1 -1</clus>
<clus scale="   88.360">  2  4  1 -1</clus>
<clus scale="   88.360">  1  3  2 -1</clus>
</clustering>
</event>
<event>
 6    0  0.2036847E+002  0.1023394E+03  0.7546771E-02  0.1275452E+00
         21   -1    0    0  503  501  0.00000000000E+00  0.00000000000E+00  0.11711578448E+03  0.11711578448E+03  0.00000000000E+00 0. -1.
         21   -1    0    0  505  502 -0.00000000000E+00 -0.00000000000E+00 -0.23988837504E+03  0.23988837504E+03  0.00000000000E+00 0.  1.
         21    1    1    2  503  502 -0.40746943736E+02 -0.11761364326E+03 -0.48087304978E+02  0.13343789344E+03  0.00000000000E+00 0. -1.
         21    1    1    2  504  501  0.29553139452E+02 -0.21165633826E+02  0.14059530856E+02  0.38974895954E+02  0.00000000000E+00 0. -1.
         21    1    1    2  505  506 -0.22616152360E+02  0.94414546883E+02 -0.84400436641E+02  0.12864303602E+03  0.00000000000E+00 0.  1.
         21    1    1    2  506  504  0.33809956644E+02  0.44364730203E+02 -0.43443798018E+01  0.55948334114E+02  0.00000000000E+00 0.  1.
<scales pt_clust_3="14000.00000" pt_clust_4="36.35068" pt_clust_5="102.33936" pt_clust_6="57.03329"></scales>
<clustering>
<clus scale="   36.351">  1  4  2 -1</clus>
<clus scale="   57.033">  1  6  2 -1</clus>
<clus scale="  102.339">  2  5  1 -1</clus>
<clus scale="   36.351">  1  3  2 -1</clus>
</clustering>
</event>
<event>
 6    0  0.2036847E+002  0.7221360E+02  0.7546771E-02  0.1352723E+00
         21   -1    0    0  503  501  0.00000000000E+00  0.00000000000E+00  0.28136167920E+03  0.28136167920E+03  0.00000000000E+00 0.  1.
         21   -1    0    0  504  502 -0.00000000000E+00 -0.00000000000E+00 -0.25989369573E+03  0.25989369573E+03  0.00000000000E+00 0.  1.
         21    1    1    2  503  502 -0.37423855041E+02 -0.14339576613E+02  0.17709834423E+03  0.18157640792E+03  0.00000000000E+00 0.  1.
         21    1    1    2  504  505 -0.40132799488E+02 -0.19584985730E+02 -0.85643779655E+02  0.96587112258E+02  0.00000000000E+00 0.  1.
         21    1    1    2  505  506  0.65836084367E+02  0.89385240679E+02 -0.13634121140E+03  0.17582103737E+03  0.00000000000E+00 0.  1.
         21    1    1    2  506  501  0.11720570162E+02 -0.55460678335E+02  0.66354630286E+02  0.87270817383E+02  0.00000000000E+00 0. -1.
<scales pt_clust_3="40.07703" pt_clust_4="46.79803" pt_clust_5="14000.00000" pt_clust_6="72.21360"></scales>
<clustering>
<clus scale="   40.077">  1  3  2 -1</clus>
<clus scale="   46.798">  2  4  1 -1</clus>
<clus scale="   72.214">  1  6  2 -1</clus>
<clus scale="   40.077">  1  3  2 -1</clus>
</clustering>
</event>
<event>
 6    0  0.2036847E+002  0.1033101E+03  0.7546771E-02  0.1273485E+00
         21   -1    0    0  504  501  0.00000000000E+00  0.00000000000E+00  0.21245881623E+03  0.21245881623E+03  0.00000000000E+00 0.  1.
         21   -1    0    0  506  502 -0.00000000000E+00 -0.00000000000E+00 -0.20268971733E+03  0.20268971733E+03  0.00000000000E+00 0.  1.
         21    1    1    2  503  501 -0.46272956334E+02  0.50815131207E+01  0.81728088369E+02  0.94055774368E+02  0.00000000000E+00 0.  1.
         21    1    1    2  504  502 -0.35231026136E+02  0.72852434148E+02  0.81658316247E+02  0.11496426826E+03  0.00000000000E+00 0.  1.
         21    1    1    2  505  503  0.51458731428E+02 -0.89442310813E+02 -0.13118966548E+03  0.16690912597E+03  0.00000000000E+00 0.  1.
         21    1    1    2  506  505  0.30045251042E+02  0.11508363544E+02 -0.22427640242E+02  0.39219364968E+02  0.00000000000E+00 0.  1.
<scales pt_clust_3="45.52814" pt_clust_4="14000.00000" pt_clust_5="103.31006" pt_clust_6="32.17390"></scales>
<clustering>
<clus scale="   32.174">  2  6  1 -1</clus>
<clus scale="   45.528">  1  3  2 -1</clus>
<clus scale="  103.310">  2  5  1 -1</clus>
<clus scale="   45.528">  1  3  2 -1</clus>
</clustering>
</event>
<event>
 6    0  0.2036847E+002  0.1343554E+03  0.7546771E-02  0.1221133E+00
         21   -1    0    0  505  501  0.00000000000E+00  0.00000000000E+00  0.21089991233E+03  0.21089991233E+03  0.00000000000E+00 0.  1.
         21   -1    0    0  506  502 -0.00000000000E+00 -0.00000000000E+00 -0.28195661827E+03  0.28195661827E+03  0.00000000000E+00 0.  1.
         21    1    1    2  503  501 -0.84884936429E+01 -0.42863679285E+02  0.84617691108E+02  0.95233939195E+02  0.00000000000E+00 0.  1.
         21    1    1    2  504  502  0.19267267827E+02  0.41530624997E+02 -0.76551762848E+02  0.89197493335E+02  0.00000000000E+00 0.  1.
         21    1    1    2  505  504  0.84825053991E+02  0.39270686361E+02 -0.15472796691E+03  0.18077118226E+03  0.00000000000E+00 0.  1.
         21    1    1    2  506  503 -0.95603828176E+02 -0.37937632073E+02  0.75605332704E+02  0.12765391581E+03  0.00000000000E+00 0.  1.
<scales pt_clust_3="43.69610" pt_clust_4="31.52189" pt_clust_5="31.52189" pt_clust_6="126.58062"></scales>
<clustering>
<clus scale="   31.522">  4  5 -1 -1</clus>
<clus scale="   43.696">  1  3  2 -1</clus>
<clus scale="  126.581">  1  6  2 -1</clus>
<clus scale="   43.696">  1  3  2 -1</clus>
</clustering>
</event>
<event>
 6    0  0.2036847E+002  0.1094771E+03  0.7546771E-02  0.1261541E+00
         21   -1    0    0  506  501  0.00000000000E+00  0.00000000000E+00  0.75980428918E+03  0.75980428918E+03  0.00000000000E+00 0. -1.
         21   -1    0    0  504  502 -0.00000000000E+00 -0.00000000000E+00 -0.88001577702E+03  0.88001577702E+03  0.00000000000E+00 0. -1.
         21    1    1    2  503  501  0.73851901183E+02  0.58470600572E+02  0.71883135184E+03  0.72497684572E+03  0.00000000000E+00 0. -1.
         21    1    1    2  504  503  0.26475912715E+02 -0.26764382412E+02 -0.35652682114E+03  0.35850896825E+03  0.00000000000E+00 0. -1.
         21    1    1    2  505  502 -0.91528387924E+02 -0.61676823663E+02 -0.50559236003E+03  0.51749889942E+03  0.00000000000E+00 0. -1.
         21    1    1    2  506  505 -0.87994259737E+01  0.29970605503E+02  0.23076341497E+02  0.38835352819E+02  0.00000000000E+00 0. -1.
<scales pt_clust_3="109.47714" pt_clust_4="37.60974" pt_clust_5="14000.00000" pt_clust_6="31.23567"></scales>
<clustering>
<clus scale="   31.236">  1  6  2 -1</clus>
<clus scale="   37.610">  2  4  1 -1</clus>
<clus scale="  109.477">  1  3  2 -1</clus>
<clus scale="   31.236">  1  3  2 -1</clus>
</clustering>
</event>
<event>
 6    0  0.2036847E+002  0.1276682E+03  0.7546771E-02  0.1230957E+00
         21   -1    0    0  506  501  0.00000000000E+00  0.00000000000E+00  0.38255217196E+03  0.38255217196E+03  0.00000000000E+00 0.  1.
         21   -1    0    0  504  502 -0.00000000000E+00 -0.00000000000E+00 -0.84267622031E+03  0.84267622031E+03  0.00000000000E+00 0.  1.
         21    1    1    2  503  502 -0.22189759588E+02  0.83379688001E+02 -0.53324644018E+03  0.54018175068E+03  0.00000000000E+00 0.  1.
         21    1    1    2  504  501 -0.25566017767E+02 -0.50580092937E+02  0.20177840315E+02  0.60159058385E+02  0.00000000000E+00 0.  1.
         21    1    1    2  505  503  0.23753235904E+02  0.34624388480E+02 -0.28061368745E+03  0.28373774173E+03  0.00000000000E+00 0. -1.
         21    1    1    2  506  505  0.24002541451E+02 -0.67423983544E+02  0.33355823897E+03  0.34114984148E+03  0.00000000000E+00 0.  1.
<scales pt_clust_3="35.21067" pt_clust_4="56.67422" pt_clust_5="35.21067" pt_clust_6="117.26706"></scales>
<clustering>
<clus scale="   35.211">  3  5 -1 -1</clus>
<clus scale="   56.674">  1  4  2 -1</clus>
<clus scale="  117.267">  1  6  2 -1</clus>
<clus scale="   56.674">  1  3  2 -1</clus>
</clustering>
</event>
<event>
 6    0  0.2036847E+002  0.1433059E+03  0.7546771E-02  0.1208949E+00
         21   -1    0    0  505  501  0.00000000000E+00  0.00000000000E+00  0.91242041079E+03  0.91242041079E+03  0.00000000000E+00 0.  1.
         21   -1    0    0  506  502 -0.00000000000E+00 -0.00000000000E+00 -0.10719539232E+03  0.10719539232E+03  0.00000000000E+00 0. -1.
         21    1    1    2  503  501 -0.11107477783E+02 -0.43010377584E+02  0.92099709208E+01  0.45366201153E+02  0.00000000000E+00 0.  1.
         21    1    1    2  504  502 -0.12364154031E+02  0.40758129529E+02  0.15725178972E+03  0.16291784063E+03  0.00000000000E+00 0. -1.
         21    1    1    2  505  504  0.30987937962E+02  0.88337479838E+02  0.69948260143E+03  0.70571925887E+03  0.00000000000E+00 0.  1.
         21    1    1    2  506  503 -0.75163061477E+01 -0.86085231783E+02 -0.60719343593E+02  0.10561250246E+03  0.00000000000E+00 0. -1.
<scales pt_clust_3="40.10502" pt_clust_4="40.04192" pt_clust_5="40.04192" pt_clust_6="141.92024"></scales>
<clustering>
<clus scale="   40.042">  4  5 -1 -1</clus>
<clus scale="   40.105">  3  6 -1 -1</clus>
<clus scale="  141.920">  2  3  1 -1</clus>
<clus scale="  143.306">  1  3  2 -1</clus>
</clustering>
</event>
<event>
 6    0  0.2036847E+002  0.2013110E+03  0.7546771E-02  0.1148638E+00
         21   -1    0    0  505  501  0.00000000000E+00  0.00000000000E+00  0.11767769686E+04  0.11767769686E+04  0.00000000000E+00 0. -1.
         21   -1    0    0  506  502 -0.00000000000E+00 -0.00000000000E+00 -0.55759308666E+03  0.55759308666E+03  0.00000000000E+00 0.  1.
         21    1    1    2  503  501 -0.11122305629E+03 -0.63937315266E+02  0.79365832264E+01  0.12853613455E+03  0.00000000000E+00 0.  1.
         21    1    1    2  504  502  0.28759440263E+02 -0.47755296563E+02 -0.42995500267E+03  0.43355389293E+03  0.00000000000E+00 0.  1.
         21    1    1    2  505  504  0.13411868347E+03  0.13560085664E+03  0.10842615983E+04  0.11009080920E+04  0.00000000000E+00 0. -1.
         21    1    1    2  506  503 -0.51655067448E+02 -0.23908244808E+02 -0.43059296899E+02  0.71371935747E+02  0.00000000000E+00 0.  1.
<scales pt_clust_3="44.60076" pt_clust_4="55.74651" pt_clust_5="189.84895" pt_clust_6="44.60076"></scales>
<clustering>
<clus scale="   44.601">  3  6 -1 -1</clus>
<clus scale="   55.747">  2  4  1 -1</clus>
<clus scale="  189.849">  1  5  2 -1</clus>
<clus scale="  189.849">  1  3  2 -1</clus>
</clustering>
</event>
<event>
 6    0  0.2036847E+002  0.8673236E+02  0.7546771E-02  0.1310963E+00
         21   -1    0    0  505  501  0.00000000000E+00  0.00000000000E+00  0.22925763420E+03  0.22925763420E+03  0.00000000000E+00 0. -1.
         21   -1    0    0  503  502 -0.00000000000E+00 -0.00000000000E+00 -0.39883569334E+03  0.39883569334E+03  0.00000000000E+00 0.  1.
         21    1    1    2  503  501  0.35074086884E+02 -0.69934397929E+02 -0.29913692216E+03  0.30919881919E+03  0.00000000000E+00 0.  1.
         21    1    1    2  504  502 -0.33682265902E+02  0.31823591398E+02 -0.35197728500E+02  0.58190343677E+02  0.00000000000E+00 0.  1.
         21    1    1    2  505  506 -0.74272846259E+02  0.55182307243E+02  0.16107520957E+03  0.18575996840E+03  0.00000000000E+00 0. -1.
         21    1    1    2  506  504  0.72881025277E+02 -0.17071500711E+02  0.36813819471E+01  0.74944196273E+02  0.00000000000E+00 0.  1.
<scales pt_clust_3="42.86552" pt_clust_4="46.33828" pt_clust_5="14000.00000" pt_clust_6="86.73236"></scales>
<clustering>
<clus scale="   46.338">  2  4  1 -1</clus>
<clus scale="   42.866">  2  3  1 -1</clus>
<clus scale="   86.732">  2  6  1 -1</clus>
<clus scale="   86.732">  1  3  2 -1</clus>
</clustering>
</event>
<event>
 6    0  0.2036847E+002  0.1007607E+03  0.7546771E-02  0.1278704E+00
         21   -1    0    0  505  501  0.00000000000E+00  0.00000000000E+00  0.53152977529E+03  0.53152977529E+03  0.00000000000E+00 0. -1.
         21   -1    0    0  504  502 -0.00000000000E+00 -0.00000000000E+00 -0.24242177489E+03  0.24242177489E+03  0.00000000000E+00 0.  1.
         21    1    1    2  503  502 -0.34743122265E+02  0.81385267193E+02 -0.17153333738E+03  0.19301381322E+03  0.00000000000E+00 0.  1.
         21    1    1    2  504  506 -0.65258010980E+02 -0.26902577018E+02 -0.24797744693E+02  0.74815003770E+02  0.00000000000E+00 0.  1.
         21    1    1    2  505  503  0.28346682535E+02 -0.51528155034E+02  0.32648494805E+03  0.33173951600E+03  0.00000000000E+00 0. -1.
         21    1    1    2  506  501  0.71654450710E+02 -0.29545351405E+01  0.15895413442E+03  0.17438321718E+03  0.00000000000E+00 0. -1.
<scales pt_clust_3="14000.00000" pt_clust_4="70.14695" pt_clust_5="58.81059" pt_clust_6="100.76066"></scales>
<clustering>
<clus scale="   58.811">  1  5  2 -1</clus>
<clus scale="   70.147">  2  4  1 -1</clus>
<clus scale="  100.761">  1  6  2 -1</clus>
<clus scale="   58.811">  1  3  2 -1</clus>
</clustering>
</event>
<event>
 6    0  0.3624409E+002  0.1310779E+03  0.7546771E-02  0.1225865E+00
         21   -1    0    0  506  501  0.00000000000E+00  0.00000000000E+00  0.87885699210E+03  0.87885699210E+03  0.00000000000E+00 0.  1.
         21   -1    0    0  503  502 -0.00000000000E+00 -0.00000000000E+00 -0.19192031621E+04  0.19192031621E+04  0.00000000000E+00 0. -1.
         21    1    1    2  503  504  0.61790268719E+02 -0.70917447391E+01 -0.12455010673E+04  0.12470530217E+04  0.00000000000E+00 0. -1.
         21    1    1    2  504  505  0.58817150597E+02 -0.49445430632E+02 -0.64905108170E+03  0.65358367059E+03  0.00000000000E+00 0.  1.
         21    1    1    2  505  501 -0.10791665809E+03  0.26190023384E+02  0.85722810050E+03  0.86439107973E+03  0.00000000000E+00 0.  1.
         21    1    1    2  506  502 -0.12690761224E+02  0.30347151988E+02 -0.30221214450E+01  0.33032382176E+02  0.00000000000E+00 0. -1.
<scales pt_clust_3="62.18147" pt_clust_4="131.07794" pt_clust_5="14000.00000" pt_clust_6="32.89385"></scales>
<clustering>
<clus scale="   32.894">  1  6  2 -1</clus>
<clus scale="   62.181">  2  3  1 -1</clus>
<clus scale="  131.078">  2  4  1 -1</clus>
<clus scale="   32.894">  1  3  2 -1</clus>
</clustering>
</event>
<event>
 6    0  0.2036847E+002  0.9222877E+02  0.7546771E-02  0.1297542E+00
         21   -1    0    0  505  501  0.00000000000E+00  0.00000000000E+00  0.18074066195E+03  0.18074066195E+03  0.00000000000E+00 0. -1.
         21   -1    0    0  504  502 -0.00000000000E+00 -0.00000000000E+00 -0.76673488722E+03  0.76673488722E+03  0.00000000000E+00 0.  1.
         21    1    1    2  503  506  0.36965173986E+02  0.64403064886E+02 -0.41168868201E+03  0.41833210461E+03  0.00000000000E+00 0.  1.
         21    1    1    2  504  501 -0.16968920486E+02  0.34840557218E+02 -0.15462805569E+02  0.41724178192E+02  0.00000000000E+00 0.  1.
         21    1    1    2  505  503 -0.54740968522E+02 -0.95910509335E+02  0.14461625690E+03  0.18195950427E+03  0.00000000000E+00 0. -1.
         21    1    1    2  506  502  0.34744715022E+02 -0.33331127680E+01 -0.30345899459E+03  0.30545976210E+03  0.00000000000E+00 0.  1.
<scales pt_clust_3="92.22877" pt_clust_4="37.67185" pt_clust_5="14000.00000" pt_clust_6="34.90422"></scales>
<clustering>
<clus scale="   34.904">  2  6  1 -1</clus>
<clus scale="   37.672">  1  4  2 -1</clus>
<clus scale="   92.229">  2  3  1 -1</clus>
<clus scale="   37.672">  1  3  2 -1</clus>
</clustering>
</event>
<event>
 6    0  0.2036847E+002  0.1354827E+03  0.7546771E-02  0.1219540E+00
         21   -1    0    0  506  501  0.00000000000E+00  0.00000000000E+00  0.78767039205E+03  0.78767039205E+03  0.00000000000E+00 0.  1.
         21   -1    0    0  503  502 -0.00000000000E+00 -0.00000000000E+00 -0.47855822597E+02  0.47855822597E+02  0.00000000000E+00 0.  1.
         21    1    1    2  503  504  0.12846630460E+02  0.60601180831E+02  0.23318596377E+02  0.66191358720E+02  0.00000000000E+00 0.  1.
         21    1    1    2  504  501  0.91370430274E+02  0.34799304265E+02  0.12499477850E+03  0.15869228639E+03  0.00000000000E+00 0.  1.
         21    1    1    2  505  502 -0.55277908101E+02 -0.39158760547E+02  0.17760958591E+03  0.19009003304E+03  0.00000000000E+00 0.  1.
         21    1    1    2  506  505 -0.48939152633E+02 -0.56241724549E+02  0.41389160866E+03  0.42055253651E+03  0.00000000000E+00 0.  1.
<scales pt_clust_3="61.94787" pt_clust_4="123.72277" pt_clust_5="52.62864" pt_clust_6="52.62864"></scales>
<clustering>
<clus scale="   52.629">  5  6 -1 -1</clus>
<clus scale="   61.948">  2  3  1 -1</clus>
<clus scale="  123.723">  2  4  1 -1</clus>
<clus scale="  135.483">  1  3  2 -1</clus>
</clustering>
</event>
<event>
 6    0  0.2036847E+002  0.1636891E+03  0.7546771E-02  0.1184594E+00
         21   -1    0    0  506  501  0.00000000000E+00  0.00000000000E+00  0.31674661924E+03  0.31674661924E+03  0.00000000000E+00 0. -1.
         21   -1    0    0  501  502 -0.00000000000E+00 -0.00000000000E+00 -0.35229607315E+03  0.35229607315E+03  0.00000000000E+00 0. -1.
         21    1    1    2  503  504 -0.31343396481E+02  0.93059370633E+02  0.12452148285E+03  0.15858138181E+03  0.00000000000E+00 0. -1.
         21    1    1    2  504  505 -0.11903998639E+02 -0.49368460584E+02 -0.10448396497E+03  0.11617163604E+03  0.00000000000E+00 0.  1.
         21    1    1    2  505  502  0.46999839037E+02 -0.10229329711E+03 -0.20493108486E+03  0.23381542517E+03  0.00000000000E+00 0. -1.
         21    1    1    2  506  503 -0.37524439174E+01  0.58602387058E+02  0.14934411307E+03  0.16047424937E+03  0.00000000000E+00 0. -1.
<scales pt_clust_3="39.13545" pt_clust_4="33.71822" pt_clust_5="163.56427" pt_clust_6="39.13545"></scales>
<clustering>
<clus scale="   33.718">  4  5 -1 -1</clus>
<clus scale="   39.135">  3  6 -1 -1</clus>
<clus scale="  163.564">  2  4  1 -1</clus>
<clus scale="  163.689">  1  3  2 -1</clus>
</clustering>
</event>
<event>
 6    0  0.2036847E+002  0.1092319E+03  0.7546771E-02  0.1261999E+00
         21   -1    0    0  505  501  0.00000000000E+00  0.00000000000E+00  0.10214350331E+03  0.10214350331E+03  0.00000000000E+00 0.  1.
         21   -1    0    0  501  502 -0.00000000000E+00 -0.00000000000E+00 -0.41015266923E+03  0.41015266923E+03  0.00000000000E+00 0.  1.
         21    1    1    2  503  502  0.35647342924E+02 -0.34403986294E+02 -0.17915117785E+03  0.18587498986E+03  0.00000000000E+00 0.  1.
         21    1    1    2  504  503  0.80089165000E+02  0.62839238651E+02 -0.15922556296E+03  0.18898630682E+03  0.00000000000E+00 0.  1.
         21    1    1    2  505  506 -0.24361853716E+02  0.18904802460E+02  0.10857075596E+02  0.32692010691E+02  0.00000000000E+00 0.  1.
         21    1    1    2  506  504 -0.91374654208E+02 -0.47340054817E+02  0.19510499290E+02  0.10474286517E+03  0.00000000000E+00 0.  1.
<scales pt_clust_3="48.25933" pt_clust_4="109.23185" pt_clust_5="30.83653" pt_clust_6="14000.00000"></scales>
<clustering>
<clus scale="   30.837">  1  5  2 -1</clus>
<clus scale="   48.259">  2  3  1 -1</clus>
<clus scale="  109.232">  2  4  1 -1</clus>
<clus scale="   30.837">  1  3  2 -1</clus>
</clustering>
</event>
<event>
 6    0  0.2036847E+002  0.2165865E+03  0.7546771E-02  0.1136454E+00
         21   -1    0    0  503  501  0.00000000000E+00  0.00000000000E+00  0.21993906381E+03  0.21993906381E+03  0.00000000000E+00 0. -1.
         21   -1    0    0  504  502 -0.00000000000E+00 -0.00000000000E+00 -0.42151232432E+03  0.42151232432E+03  0.00000000000E+00 0. -1.
         21    1    1    2  503  506 -0.51227524976E+01 -0.13696748959E+03  0.55974399428E+02  0.14805225155E+03  0.00000000000E+00 0. -1.
         21    1    1    2  504  501  0.26846867482E+02  0.34652708323E+02 -0.31827317515E+02  0.54171418921E+02  0.00000000000E+00 0. -1.
         21    1    1    2  505  502 -0.73015104220E+02  0.16644318341E+03 -0.28494848691E+03  0.33797955403E+03  0.00000000000E+00 0. -1.
         21    1    1    2  506  505  0.51290989235E+02 -0.64128402146E+02  0.59228144491E+02  0.10124816363E+03  0.00000000000E+00 0. -1.
<scales pt_clust_3="62.25802" pt_clust_4="43.83565" pt_clust_5="201.49863" pt_clust_6="62.25802"></scales>
<clustering>
<clus scale="   43.836">  2  4  1 -1</clus>
<clus scale="   62.258">  3  6 -1 -1</clus>
<clus scale="  201.499">  2  5  1 -1</clus>
<clus scale="  216.586">  1  3  2 -1</clus>
</clustering>
</event>
<event>
 6    0  0.2036847E+002  0.1412459E+03  0.7546771E-02  0.1211662E+00
         21   -1    0    0  504  501  0.00000000000E+00  0.00000000000E+00  0.59671812067E+03  0.59671812067E+03  0.00000000000E+00 0.  1.
         21   -1    0    0  505  502 -0.00000000000E+00 -0.00000000000E+00 -0.53831230363E+02  0.53831230363E+02  0.00000000000E+00 0.  1.
         21    1    1    2  503  502  0.72637151982E+02 -0.39432454066E+02  0.98289492934E+02  0.12842078766E+03  0.00000000000E+00 0.  1.
         21    1    1    2  504  503 -0.34972385016E+00 -0.95001279839E+02  0.10109018754E+03  0.13872487698E+03  0.00000000000E+00 0.  1.
         21    1    1    2  505  506 -0.54685238537E+02  0.32995128332E+02  0.17063570491E+03  0.18219686495E+03  0.00000000000E+00 0.  1.
         21    1    1    2  506  501 -0.17602189594E+02  0.10143860557E+03  0.17287150493E+03  0.20120682144E+03  0.00000000000E+00 0.  1.
<scales pt_clust_3="82.65031" pt_clust_4="119.36136" pt_clust_5="59.48155" pt_clust_6="59.48155"></scales>
<clustering>
<clus scale="   59.482">  5  6 -1 -1</clus>
<clus scale="   82.650">  2  3  1 -1</clus>
<clus scale="  119.361">  2  4  1 -1</clus>
<clus scale="  141.246">  1  3  2 -1</clus>
</clustering>
</event>
<event>
 6    0  0.2066178E+002  0.7541866E+02  0.7546771E-02  0.1342579E+00
         21   -1    0    0  503  501  0.00000000000E+00  0.00000000000E+00  0.22532804544E+04  0.22532804544E+04  0.00000000000E+00 0. -1.
         21   -1    0    0  506  502 -0.00000000000E+00 -0.00000000000E+00 -0.90611410550E+03  0.90611410550E+03  0.00000000000E+00 0.  1.
         21    1    1    2  503  502  0.10990596952E+02 -0.28692575180E+02  0.11142552963E+03  0.11558419332E+03  0.00000000000E+00 0.  1.
         21    1    1    2  504  505 -0.21141325652E+00 -0.86174253644E+02 -0.23283251856E+03  0.24826805752E+03  0.00000000000E+00 0.  1.
         21    1    1    2  505  501  0.29380907474E+02  0.51173267519E+02  0.21295114770E+04  0.21303288647E+04  0.00000000000E+00 0. -1.
         21    1    1    2  506  504 -0.40160091170E+02  0.63693561306E+02 -0.66093813921E+03  0.66521344435E+03  0.00000000000E+00 0.  1.
<scales pt_clust_3="30.72551" pt_clust_4="75.41866" pt_clust_5="46.22893" pt_clust_6="14000.00000"></scales>
<clustering>
<clus scale="   30.726">  1  3  2 -1</clus>
<clus scale="   46.229">  1  5  2 -1</clus>
<clus scale="   75.419">  1  4  2 -1</clus>
<clus scale="   30.726">  1  3  2 -1</clus>
</clustering>
</event>
<event>
 6    0  0.2036847E+002  0.1336197E+03  0.7546771E-02  0.1222181E+00
         21   -1    0    0  503  501  0.00000000000E+00  0.00000000000E+00  0.17637608764E+03  0.17637608764E+03  0.00000000000E+00 0. -1.
         21   -1    0    0  505  502 -0.00000000000E+00 -0.00000000000E+00 -0.35691573904E+03  0.35691573904E+03  0.00000000000E+00 0.  1.
         21    1    1    2  503  506 -0.49562868465E+02  0.89062426031E+01 -0.11359977764E+03  0.12426064770E+03  0.00000000000E+00 0.  1.
         21    1    1    2  504  501  0.64008558756E+02  0.99162560002E+01  0.10820826235E+03  0.12611286916E+03  0.00000000000E+00 0. -1.
         21    1    1    2  505  504  0.80133889677E+02  0.19988974989E+02 -0.29294935646E+01  0.82641281019E+02  0.00000000000E+00 0. -1.
         21    1    1    2  506  502 -0.94579579968E+02 -0.38811473593E+02 -0.17221864254E+03  0.20027702881E+03  0.00000000000E+00 0.  1.
<scales pt_clust_3="31.08064" pt_clust_4="64.77212" pt_clust_5="126.06770" pt_clust_6="31.08064"></scales>
<clustering>
<clus scale="   31.081">  3  6 -1 -1</clus>
<clus scale="   64.772">  1  4  2 -1</clus>
<clus scale="  126.068">  1  5  2 -1</clus>
<clus scale="   64.772">  1  3  2 -1</clus>
</clustering>
</event>
<event>
 6    0  0.2036847E+002  0.9683889E+02  0.7546771E-02  0.1287087E+00
         21   -1    0    0  505  501  0.00000000000E+00  0.00000000000E+00  0.12748072980E+04  0.12748072980E+04  0.00000000000E+00 0.  1.
         21   -1    0    0  503  502 -0.00000000000E+00 -0.00000000000E+00 -0.29636071363E+02  0.29636071363E+02  0.00000000000E+00 0. -1.
         21    1    1    2  503  504  0.89203904840E+02  0.64473044588E+02  0.17143426618E+03  0.20372485793E+03  0.00000000000E+00 0. -1.
         21    1    1    2  504  501  0.13734182677E+02  0.34459999719E+02  0.15869266985E+03  0.16297080358E+03  0.00000000000E+00 0. -1.
         21    1    1    2  505  506 -0.36444322614E+02 -0.46773850668E+02  0.74985528181E+03  0.75219606846E+03  0.00000000000E+00 0.  1.
         21    1    1    2  506  502 -0.66493764902E+02 -0.52159193638E+02  0.16518900876E+03  0.18555163935E+03  0.00000000000E+00 0.  1.
<scales pt_clust_3="96.83889" pt_clust_4="37.09608" pt_clust_5="35.96137" pt_clust_6="14000.00000"></scales>
<clustering>
<clus scale="   37.096">  1  4  2 -1</clus>
<clus scale="   35.961">  1  5  2 -1</clus>
<clus scale="   96.839">  1  3  2 -1</clus>
<clus scale="   37.096">  1  3  2 -1</clus>
</clustering>
</event>
<event>
 6    0  0.2036847E+002  0.1601941E+03  0.7546771E-02  0.1188478E+00
         21   -1    0    0  503  501  0.00000000000E+00  0.00000000000E+00  0.14378767712E+04  0.14378767712E+04  0.00000000000E+00 0. -1.
         21   -1    0    0  506  502 -0.00000000000E+00 -0.00000000000E+00 -0.10448235641E+03  0.10448235641E+03  0.00000000000E+00 0.  1.
         21    1    1    2  503  505  0.35354702207E+02  0.83559960218E+02  0.11055735587E+04  0.11092903658E+04  0.00000000000E+00 0. -1.
         21    1    1    2  504  502 -0.54073418231E+02 -0.50169053599E+02 -0.34066434526E+01  0.73840867531E+02  0.00000000000E+00 0.  1.
         21    1    1    2  505  504  0.91746430404E-01 -0.87822531198E+02 -0.29178253670E+02  0.92542832735E+02  0.00000000000E+00 0.  1.
         21    1    1    2  506  501  0.18626969594E+02  0.54431624578E+02  0.26040575321E+03  0.26668506155E+03  0.00000000000E+00 0. -1.
<scales pt_clust_3="144.90027" pt_clust_4="62.47972" pt_clust_5="62.47972" pt_clust_6="57.53056"></scales>
<clustering>
<clus scale="   57.531">  1  6  2 -1</clus>
<clus scale="   62.480">  4  5 -1 -1</clus>
<clus scale="  144.900">  1  3  2 -1</clus>
<clus scale="   57.531">  1  3  2 -1</clus>
</clustering>
</event>
<event>
 6    0  0.2036847E+002  0.1491560E+03  0.7546771E-02  0.1201514E+00
         21   -1    0    0  504  501  0.00000000000E+00  0.00000000000E+00  0.20150631297E+03  0.20150631297E+03  0.00000000000E+00 0.  1.
         21   -1    0    0  503  502 -0.00000000000E+00 -0.00000000000E+00 -0.47026526840E+03  0.47026526840E+03  0.00000000000E+00 0.  1.
         21    1    1    2  503  505  0.37026061132E+02  0.51857427590E+02 -0.12645714657E+03  0.14160343187E+03  0.00000000000E+00 0.  1.
         21    1    1    2  504  506 -0.14291213663E+03 -0.43084171943E+02  0.12029311105E+03  0.19170434850E+03  0.00000000000E+00 0.  1.
         21    1    1    2  505  501  0.14889445622E+03  0.19262075095E+02 -0.23833600095E+03  0.28168179916E+03  0.00000000000E+00 0.  1.
         21    1    1    2  506  502 -0.43008380722E+02 -0.28035330742E+02 -0.24258918956E+02  0.56782001823E+02  0.00000000000E+00 0. -1.
<scales pt_clust_3="49.15625" pt_clust_4="14000.00000" pt_clust_5="149.15605" pt_clust_6="51.33907"></scales>
<clustering>
<clus scale="   51.339">  2  6  1 -1</clus>
<clus scale="   49.156">  2  3  1 -1</clus>
<clus scale="  149.156">  2  5  1 -1</clus>
<clus scale="  149.156">  1  3  2 -1</clus>
</clustering>
</event>
<event>
 6    0  0.2036847E+002  0.1824469E+03  0.7546771E-02  0.1165456E+00
         21   -1    0    0  505  501  0.00000000000E+00  0.00000000000E+00  0.23147219010E+03  0.23147219010E+03  0.00000000000E+00 0. -1.
         21   -1    0    0  503  502 -0.00000000000E+00 -0.00000000000E+00 -0.77796356553E+03  0.77796356553E+03  0.00000000000E+00 0. -1.
         21    1    1    2  503  501 -0.56454679909E+00 -0.38672665436E+02 -0.57522521036E+02  0.69316189966E+02  0.00000000000E+00 0. -1.
         21    1    1    2  504  506 -0.11246398069E+03  0.27418534897E+02  0.12549332745E+03  0.17072931278E+03  0.00000000000E+00 0. -1.
         21    1    1    2  505  504 -0.49731599835E+02 -0.42454761159E+02  0.50548222996E+02  0.82648421735E+02  0.00000000000E+00 0. -1.
         21    1    1    2  506  502  0.16276012732E+03  0.53708891697E+02 -0.66501040484E+03  0.68674183115E+03  0.00000000000E+00 0. -1.
<scales pt_clust_3="38.67679" pt_clust_4="61.75122" pt_clust_5="61.75122" pt_clust_6="163.12793"></scales>
<clustering>
<clus scale="   38.677">  2  3  1 -1</clus>
<clus scale="   61.751">  4  5 -1 -1</clus>
<clus scale="  163.128">  2  6  1 -1</clus>
<clus scale="  182.447">  1  3  2 -1</clus>
</clustering>
</event>
<event>
 6    0  0.2036847E+002  0.1129681E+03  0.7546771E-02  0.1255170E+00
         21   -1    0    0  505  501  0.00000000000E+00  0.00000000000E+00  0.19055687934E+03  0.19055687934E+03  0.00000000000E+00 0. -1.
         21   -1    0    0  501  502 -0.00000000000E+00 -0.00000000000E+00 -0.17200683298E+03  0.17200683298E+03  0.00000000000E+00 0. -1.
         21    1    1    2  503  504  0.22600174120E+01  0.60280882002E+02  0.12684893413E+01  0.60336568338E+02  0.00000000000E+00 0. -1.
         21    1    1    2  504  506  0.28900205470E+02  0.55936103837E+02  0.22145799594E+02  0.66742085885E+02  0.00000000000E+00 0. -1.
         21    1    1    2  505  503  0.56345930855E+02 -0.98770549511E+02  0.56714398684E+02  0.12707087941E+03  0.00000000000E+00 0. -1.
         21    1    1    2  506  502 -0.87506153737E+02 -0.17446436327E+02 -0.61578641261E+02  0.10841417869E+03  0.00000000000E+00 0. -1.
<scales pt_clust_3="32.80770" pt_clust_4="32.80770" pt_clust_5="107.88129" pt_clust_6="89.22839"></scales>
<clustering>
<clus scale="   32.808">  3  4 -1 -1</clus>
<clus scale="   89.228">  2  6  1 -1</clus>
<clus scale="  107.881">  1  5  2 -1</clus>
<clus scale="  107.881">  1  3  2 -1</clus>
</clustering>
</event>
<event>
 6    0  0.2036847E+002  0.1342084E+03  0.7546771E-02  0.1221341E+00
         21   -1    0    0  505  501  0.00000000000E+00  0.00000000000E+00  0.10535946817E+04  0.10535946817E+04  0.00000000000E+00 0. -1.
         21   -1    0    0  504  502 -0.00000000000E+00 -0.00000000000E+00 -0.30888728227E+03  0.30888728227E+03  0.00000000000E+00 0. -1.
         21    1    1    2  503  502 -0.47403453151E+02  0.54609012285E+02 -0.25503558603E+03  0.26508938443E+03  0.00000000000E+00 0. -1.
         21    1    1    2  504  501 -0.25217452488E+01  0.62475062935E+02 -0.22353567806E+02  0.66401616558E+02  0.00000000000E+00 0.  1.
         21    1    1    2  505  506  0.79603418691E+01 -0.72420712081E+02  0.49239428765E+03  0.49775522206E+03  0.00000000000E+00 0. -1.
         21    1    1    2  506  503  0.41964856530E+02 -0.44663363138E+02  0.52970226562E+03  0.53323574092E+03  0.00000000000E+00 0. -1.
<scales pt_clust_3="126.30166" pt_clust_4="62.52594" pt_clust_5="41.62500" pt_clust_6="41.62500"></scales>
<clustering>
<clus scale="   41.625">  5  6 -1 -1</clus>
<clus scale="   62.526">  2  4  1 -1</clus>
<clus scale="  126.302">  2  3  1 -1</clus>
<clus scale="  134.208">  1  3  2 -1</clus>
</clustering>
</event>
<event>
 6    0  0.2036847E+002  0.1650476E+03  0.7546771E-02  0.1183113E+00
         21   -1    0    0  505  501  0.00000000000E+00  0.00000000000E+00  0.11949285196E+04  0.11949285196E+04  0.00000000000E+00 0.  1.
         21   -1    0    0  503  502 -0.00000000000E+00 -0.00000000000E+00 -0.45538874707E+02  0.45538874707E+02  0.00000000000E+00 0.  1.
         21    1    1    2  503  504  0.12060259812E+03  0.53128416563E+02  0.11941646746E+03  0.17784236847E+03  0.00000000000E+00 0.  1.
         21    1    1    2  504  501  0.12875613694E+02  0.36358818533E+02  0.34349859224E+02  0.51649375038E+02  0.00000000000E+00 0.  1.
         21    1    1    2  505  506 -0.16546862664E+02 -0.32743629859E+02  0.11228094530E+03  0.11812262542E+03  0.00000000000E+00 0.  1.
         21    1    1    2  506  502 -0.11693134915E+03 -0.56743605236E+02  0.88334237291E+03  0.89285302538E+03  0.00000000000E+00 0.  1.
<scales pt_clust_3="30.59390" pt_clust_4="30.59390" pt_clust_5="36.68711" pt_clust_6="155.05722"></scales>
<clustering>
<clus scale="   30.594">  3  4 -1 -1</clus>
<clus scale="   36.687">  1  5  2 -1</clus>
<clus scale="  155.057">  1  6  2 -1</clus>
<clus scale="   36.687">  1  3  2 -1</clus>
</clustering>
</event>
<event>
 6    0  0.2036847E+002  0.9321261E+02  0.7546771E-02  0.1295253E+00
         21   -1    0    0  505  501  0.00000000000E+00  0.00000000000E+00  0.27801639233E+03  0.27801639233E+03  0.00000000000E+00 0.  1.
         21   -1    0    0  506  502 -0.00000000000E+00 -0.00000000000E+00 -0.46159967109E+03  0.46159967109E+03  0.00000000000E+00 0. -1.
         21    1    1    2  503  501  0.50910434650E+02 -0.44781708569E+02  0.21017644266E+03  0.22084250231E+03  0.00000000000E+00 0.  1.
         21    1    1    2  504  502  0.36811763559E+02  0.18738291786E+02 -0.17982781584E+03  0.18451090175E+03  0.00000000000E+00 0. -1.
         21    1    1    2  505  504  0.37212623733E+02  0.13727402310E+02  0.36642253851E+02  0.53998849122E+02  0.00000000000E+00 0. -1.
         21    1    1    2  506  503 -0.12493482194E+03  0.12316014474E+02 -0.25057415944E+03  0.28026381023E+03  0.00000000000E+00 0. -1.
<scales pt_clust_3="93.21261" pt_clust_4="41.70293" pt_clust_5="39.66385" pt_clust_6="14000.00000"></scales>
<clustering>
<clus scale="   39.664">  1  5  2 -1</clus>
<clus scale="   41.703">  2  4  1 -1</clus>
<clus scale="   93.213">  1  3  2 -1</clus>
<clus scale="   39.664">  1  3  2 -1</clus>
</clustering>
</event>
<event>
 6    0  0.2036847E+002  0.6744592E+02  0.7546771E-02  0.1369000E+00
         21   -1    0    0  504  501  0.00000000000E+00  0.00000000000E+00  0.58075811420E+03  0.58075811420E+03  0.00000000000E+00 0. -1.
         21   -1    0    0  503  502 -0.00000000000E+00 -0.00000000000E+00 -0.15748509477E+03  0.15748509477E+03  0.00000000000E+00 0. -1.
         21    1    1    2  503  501  0.28225184874E+02  0.70196053121E+02 -0.33452926856E+02  0.82723909785E+02  0.00000000000E+00 0.  1.
         21    1    1    2  504  505 -0.30709152862E+02  0.33218443204E+02  0.40372355729E+03  0.40625020339E+03  0.00000000000E+00 0. -1.
         21    1    1    2  505  506 -0.50193153196E+02 -0.42456883828E+02  0.12499193149E+03  0.14122649380E+03  0.00000000000E+00 0. -1.
         21    1    1    2  506  502  0.52677121185E+02 -0.60957612497E+02 -0.71989542505E+02  0.10804260200E+03  0.00000000000E+00 0. -1.
<scales pt_clust_3="67.44592" pt_clust_4="45.23845" pt_clust_5="75.45892" pt_clust_6="14000.00000"></scales>
<clustering>
<clus scale="   45.238">  1  4  2 -1</clus>
<clus scale="   75.459">  1  5  2 -1</clus>
<clus scale="   67.446">  1  3  2 -1</clus>
<clus scale="   45.238">  1  3  2 -1</clus>
</clustering>
</event>
<event>
 6    0  0.2036847E+002  0.8903918E+02  0.7546771E-02  0.1305195E+00
         21   -1    0    0  503  501  0.00000000000E+00  0.00000000000E+00  0.43932719073E+03  0.43932719073E+03  0.00000000000E+00 0. -1.
         21   -1    0    0  504  502 -0.00000000000E+00 -0.00000000000E+00 -0.76658662015E+02  0.76658662015E+02  0.00000000000E+00 0. -1.
         21    1    1    2  503  505 -0.61739201705E+02 -0.45205058151E+02  0.18299469556E+02  0.78677168833E+02  0.00000000000E+00 0. -1.
         21    1    1    2  504  506  0.34185406456E+02 -0.35551334529E+01  0.27409638059E+02  0.43960996883E+02  0.00000000000E+00 0. -1.
         21    1    1    2  505  502 -0.51538401461E+02  0.23218501390E+01 -0.11046447961E+02  0.52760040047E+02  0.00000000000E+00 0. -1.
         21    1    1    2  506  501  0.79092196710E+02  0.46438341464E+02  0.32800586906E+03  0.34058764699E+03  0.00000000000E+00 0. -1.
<scales pt_clust_3="89.03918" pt_clust_4="34.36977" pt_clust_5="35.59580" pt_clust_6="14000.00000"></scales>
<clustering>
<clus scale="   34.370">  2  4  1 -1</clus>
<clus scale="   35.596">  2  5  1 -1</clus>
<clus scale="   89.039">  2  3  1 -1</clus>
<clus scale="   89.039">  1  3  2 -1</clus>
</clustering>
</event>
<event>
 6    0  0.2036847E+002  0.1108753E+03  0.7546771E-02  0.1258958E+00
         21   -1    0    0  505  501  0.00000000000E+00  0.00000000000E+00  0.25498759303E+03  0.25498759303E+03  0.00000000000E+00 0. -1.
         21   -1    0    0  506  502 -0.00000000000E+00 -0.00000000000E+00 -0.21232000509E+03  0.21232000509E+03  0.00000000000E+00 0. -1.
         21    1    1    2  503  501 -0.10346313478E+03 -0.24102946870E+02  0.90648088664E+02  0.13965188250E+03  0.00000000000E+00 0. -1.
         21    1    1    2  504  502 -0.41319891922E+02  0.39209192659E+02 -0.35085090046E+02  0.66900357256E+02  0.00000000000E+00 0. -1.
         21    1    1    2  505  504  0.12161420518E+03 -0.54089373857E+02  0.81473156660E+02  0.15605624153E+03  0.00000000000E+00 0. -1.
         21    1    1    2  506  503  0.23168821524E+02  0.38983128068E+02 -0.94368567336E+02  0.10469911683E+03  0.00000000000E+00 0. -1.
<scales pt_clust_3="110.87526" pt_clust_4="64.66474" pt_clust_5="14000.00000" pt_clust_6="45.34841"></scales>
<clustering>
<clus scale="   45.348">  2  6  1 -1</clus>
<clus scale="   64.665">  2  4  1 -1</clus>
<clus scale="  110.875">  1  3  2 -1</clus>
<clus scale="  110.875">  1  3  2 -1</clus>
</clustering>
</event>
<event>
 6    0  0.2036847E+002  0.1369034E+03  0.7546771E-02  0.1217557E+00
         21   -1    0    0  504  501  0.00000000000E+00  0.00000000000E+00  0.13102125843E+04  0.13102125843E+04  0.00000000000E+00 0. -1.
         21   -1    0    0  506  502 -0.00000000000E+00 -0.00000000000E+00 -0.61901809213E+03  0.61901809213E+03  0.00000000000E+00 0.  1.
         21    1    1    2  503  502 -0.23881410971E+02 -0.35148213861E+02 -0.29052517492E+03  0.29361640960E+03  0.00000000000E+00 0.  1.
         21    1    1    2  504  505  0.57582107554E+02  0.40024010749E+02  0.34862484060E+03  0.35560778961E+03  0.00000000000E+00 0. -1.
         21    1    1    2  505  503 -0.86617764206E+02 -0.22219825094E+02 -0.31644403316E+03  0.32883610481E+03  0.00000000000E+00 0.  1.
         21    1    1    2  506  501  0.52917067623E+02  0.17344028206E+02  0.94953885962E+03  0.95117037238E+03  0.00000000000E+00 0. -1.
<scales pt_clust_3="40.98212" pt_clust_4="123.32152" pt_clust_5="40.98212" pt_clust_6="55.68690"></scales>
<clustering>
<clus scale="   40.982">  3  5 -1 -1</clus>
<clus scale="   55.687">  1  6  2 -1</clus>
<clus scale="  123.322">  1  4  2 -1</clus>
<clus scale="   55.687">  1  3  2 -1</clus>
</clustering>
</event>
<event>
 6    0  0.2036847E+002  0.1712425E+03  0.7546771E-02  0.1176558E+00
         21   -1    0    0  506  501  0.00000000000E+00  0.00000000000E+00  0.21654665992E+03  0.21654665992E+03  0.00000000000E+00 0.  1.
         21   -1    0    0  504  502 -0.00000000000E+00 -0.00000000000E+00 -0.33167390198E+03  0.33167390198E+03  0.00000000000E+00 0. -1.
         21    1    1    2  503  501  0.20373050983E+02  0.27186214914E+02  0.34030216632E+02  0.48085414958E+02  0.00000000000E+00 0. -1.
         21    1    1    2  504  503  0.14901274850E+03 -0.26871351992E+02  0.11050888398E+03  0.18745421364E+03  0.00000000000E+00 0.  1.
         21    1    1    2  505  502 -0.92466729527E+02 -0.12022291778E+02 -0.11169089102E+03  0.14549737698E+03  0.00000000000E+00 0.  1.
         21    1    1    2  506  505 -0.76919069954E+02  0.11707428857E+02 -0.14797545165E+03  0.16718355632E+03  0.00000000000E+00 0. -1.
<scales pt_clust_3="33.97281" pt_clust_4="166.35170" pt_clust_5="37.36582" pt_clust_6="37.36582"></scales>
<clustering>
<clus scale="   33.973">  1  3  2 -1</clus>
<clus scale="   37.366">  5  6 -1 -1</clus>
<clus scale="  166.352">  1  4  2 -1</clus>
<clus scale="   33.973">  1  3  2 -1</clus>
</clustering>
</event>
<event>
 6    0  0.2036847E+002  0.1145118E+03  0.7546771E-02  0.1252436E+00
         21   -1    0    0  505  501  0.00000000000E+00  0.00000000000E+00  0.21082380838E+02  0.21082380838E+02  0.00000000000E+00 0.  1.
         21   -1    0    0  501  502 -0.00000000000E+00 -0.00000000000E+00 -0.97855635123E+03  0.97855635123E+03  0.00000000000E+00 0. -1.
         21    1    1    2  503  502 -0.17090248833E+02  0.98783999444E+02 -0.53618665745E+03  0.54547821843E+03  0.00000000000E+00 0. -1.
         21    1    1    2  504  506 -0.39351672909E+01 -0.34315755071E+02 -0.10056483957E+03  0.10633129147E+03  0.00000000000E+00 0.  1.
         21    1    1    2  505  504 -0.45694679489E+02 -0.83811877099E+01 -0.13239332118E+03  0.14030766028E+03  0.00000000000E+00 0. -1.
         21    1    1    2  506  503  0.66720095613E+02 -0.56087056663E+02 -0.18832915220E+03  0.20752156189E+03  0.00000000000E+00 0.  1.
<scales pt_clust_3="100.91429" pt_clust_4="34.07053" pt_clust_5="46.45695" pt_clust_6="34.07053"></scales>
<clustering>
<clus scale="   34.071">  4  6 -1 -1</clus>
<clus scale="   46.457">  1  5  2 -1</clus>
<clus scale="  100.914">  2  3  1 -1</clus>
<clus scale="   46.457">  1  3  2 -1</clus>
</clustering>
</event>
<event>
 6    0  0.2036847E+002  0.1825296E+03  0.7546771E-02  0.1165377E+00
         21   -1    0    0  502  501  0.00000000000E+00  0.00000000000E+00  0.59435104899E+02  0.59435104899E+02  0.00000000000E+00 0. -1.
         21   -1    0    0  506  502 -0.00000000000E+00 -0.00000000000E+00 -0.95855564676E+03  0.95855564676E+03  0.00000000000E+00 0.  1.
         21    1    1    2  503  505  0.13196748219E+02 -0.56870067364E+02 -0.61413130496E+02  0.84734475409E+02  0.00000000000E+00 0. -1.
         21    1    1    2  504  503 -0.71435256028E+02  0.43424257731E+02 -0.51424829262E+03  0.52099901001E+03  0.00000000000E+00 0.  1.
         21    1    1    2  505  501  0.84984855814E+02 -0.71809934908E+02 -0.45353540032E+02  0.12015005644E+03  0.00000000000E+00 0. -1.
         21    1    1    2  506  504 -0.26746348006E+02  0.85255744541E+02 -0.27810557871E+03  0.29210720980E+03  0.00000000000E+00 0.  1.
<scales pt_clust_3="47.94242" pt_clust_4="81.61143" pt_clust_5="174.86723" pt_clust_6="81.61143"></scales>
<clustering>
<clus scale="   47.942">  3  5 -1 -1</clus>
<clus scale="   81.611">  4  6 -1 -1</clus>
<clus scale="  174.867">  1  3  2 -1</clus>
<clus scale="  174.867">  1  3  2 -1</clus>
</clustering>
</event>
<event>
 6    0  0.2036847E+002  0.8797552E+02  0.7546771E-02  0.1307830E+00
         21   -1    0    0  504  501  0.00000000000E+00  0.00000000000E+00  0.15607422009E+04  0.15607422009E+04  0.00000000000E+00 0. -1.
         21   -1    0    0  505  502 -0.00000000000E+00 -0.00000000000E+00 -0.20068988444E+03  0.20068988444E+03  0.00000000000E+00 0.  1.
         21    1    1    2  503  501  0.30770796707E+02 -0.53113907161E+02  0.28507575851E+03  0.29160952857E+03  0.00000000000E+00 0. -1.
         21    1    1    2  504  506  0.55532220668E+02  0.23488871583E+02  0.12417162716E+04  0.12431793329E+04  0.00000000000E+00 0. -1.
         21    1    1    2  505  503 -0.73626142885E+02 -0.28603128991E+02 -0.44520516069E+02  0.90669864096E+02  0.00000000000E+00 0.  1.
         21    1    1    2  506  502 -0.12676874490E+02  0.58228164568E+02 -0.12221919760E+03  0.13597335974E+03  0.00000000000E+00 0.  1.
<scales pt_clust_3="58.80031" pt_clust_4="87.97552" pt_clust_5="14000.00000" pt_clust_6="59.59213"></scales>
<clustering>
<clus scale="   59.592">  2  6  1 -1</clus>
<clus scale="   58.800">  1  3  2 -1</clus>
<clus scale="   87.976">  1  4  2 -1</clus>
<clus scale="   58.800">  1  3  2 -1</clus>
</clustering>
</event>
<event>
 6    0  0.2036847E+002  0.1903265E+03  0.7546771E-02  0.1158167E+00
         21   -1    0    0  503  501  0.00000000000E+00  0.00000000000E+00  0.98482775182E+02  0.98482775182E+02  0.00000000000E+00 0.  1.
         21   -1    0    0  506  502 -0.00000000000E+00 -0.00000000000E+00 -0.57403490349E+03  0.57403490349E+03  0.00000000000E+00 0. -1.
         21    1    1    2  503  504  0.31756859819E+02 -0.11908616553E+03 -0.10475760923E+01  0.12325222263E+03  0.00000000000E+00 0.  1.
         21    1    1    2  504  502 -0.18357873981E+02 -0.55765650642E+02 -0.30438550321E+02  0.66131117292E+02  0.00000000000E+00 0.  1.
         21    1    1    2  505  501  0.15716897957E+02  0.14721383233E+03 -0.31680806902E+03  0.34969456088E+03  0.00000000000E+00 0. -1.
         21    1    1    2  506  505 -0.29115883795E+02  0.27637983843E+02 -0.12725793288E+03  0.13343977788E+03  0.00000000000E+00 0. -1.
<scales pt_clust_3="186.74762" pt_clust_4="44.31168" pt_clust_5="38.51781" pt_clust_6="38.51781"></scales>
<clustering>
<clus scale="   38.518">  5  6 -1 -1</clus>
<clus scale="   44.312">  3  4 -1 -1</clus>
<clus scale="  186.748">  1  3  2 -1</clus>
<clus scale="  186.748">  1  3  2 -1</clus>
</clustering>
</event>
<event>
 6    0  0.2036847E+002  0.1051731E+03  0.7546771E-02  0.1269779E+00
         21   -1    0    0  504  501  0.00000000000E+00  0.00000000000E+00  0.81896526371E+03  0.81896526371E+03  0.00000000000E+00 0. -1.
         21   -1    0    0  506  502 -0.00000000000E+00 -0.00000000000E+00 -0.53777884194E+03  0.53777884194E+03  0.00000000000E+00 0. -1.
         21    1    1    2  503  501  0.43497934670E+02  0.64847960733E+02  0.70713092226E+03  0.71142917395E+03  0.00000000000E+00 0. -1.
         21    1    1    2  504  505 -0.39015847819E+02  0.41043346221E+02  0.85281845159E+02  0.10237082477E+03  0.00000000000E+00 0.  1.
         21    1    1    2  505  502 -0.51218877639E+02  0.32944977789E+01 -0.75299005446E+02  0.91127204299E+02  0.00000000000E+00 0. -1.
         21    1    1    2  506  503  0.46736790788E+02 -0.10918580473E+03 -0.43592734020E+03  0.45181690263E+03  0.00000000000E+00 0. -1.
<scales pt_clust_3="14000.00000" pt_clust_4="57.34050" pt_clust_5="51.32472" pt_clust_6="105.17308"></scales>
<clustering>
<clus scale="   51.325">  2  5  1 -1</clus>
<clus scale="   57.340">  1  4  2 -1</clus>
<clus scale="  105.173">  2  6  1 -1</clus>
<clus scale="   57.340">  1  3  2 -1</clus>
</clustering>
</event>
<event>
 6    0  0.2036847E+002  0.1041732E+03  0.7546771E-02  0.1271757E+00
         21   -1    0    0  504  501  0.00000000000E+00  0.00000000000E+00  0.58930035844E+03  0.58930035844E+03  0.00000000000E+00 0. -1.
         21   -1    0    0  503  502 -0.00000000000E+00 -0.00000000000E+00 -0.15838375898E+03  0.15838375898E+03  0.00000000000E+00 0. -1.
         21    1    1    2  503  505  0.37919831467E+02 -0.55934914789E+02 -0.90594349263E+01  0.68181388019E+02  0.00000000000E+00 0. -1.
         21    1    1    2  504  506 -0.10219760843E+03  0.32917602813E+01  0.13834338841E+03  0.17202929974E+03  0.00000000000E+00 0. -1.
         21    1    1    2  505  501  0.10214614697E+03  0.30358453667E+02  0.39240987699E+03  0.40662142418E+03  0.00000000000E+00 0. -1.
         21    1    1    2  506  502 -0.37868370009E+02  0.22284700841E+02 -0.90777231011E+02  0.10085200548E+03  0.00000000000E+00 0. -1.
<scales pt_clust_3="44.61747" pt_clust_4="104.17323" pt_clust_5="14000.00000" pt_clust_6="43.93884"></scales>
<clustering>
<clus scale="   43.939">  2  6  1 -1</clus>
<clus scale="   44.617">  2  3  1 -1</clus>
<clus scale="  104.173">  2  4  1 -1</clus>
<clus scale="  104.173">  1  3  2 -1</clus>
</clustering>
</event>
<event>
 6    0  0.2036847E+002  0.1165005E+03  0.7546771E-02  0.1248984E+00
         21   -1    0    0  505  501  0.00000000000E+00  0.00000000000E+00  0.58327037161E+02  0.58327037161E+02  0.00000000000E+00 0.  1.
         21   -1    0    0  501  502 -0.00000000000E+00 -0.00000000000E+00 -0.52453951677E+03  0.52453951677E+03  0.00000000000E+00 0.  1.
         21    1    1    2  503  506 -0.46762282012E+02  0.62229357512E+02 -0.80781264757E+02  0.11218206938E+03  0.00000000000E+00 0.  1.
         21    1    1    2  504  502 -0.11252167089E+02 -0.90949611763E+02 -0.15844243874E+03  0.18303674368E+03  0.00000000000E+00 0.  1.
         21    1    1    2  505  503  0.89186472486E+02 -0.40950551446E+02 -0.10477927991E+03  0.14356138770E+03  0.00000000000E+00 0.  1.
         21    1    1    2  506  504 -0.31172023386E+02  0.69670805698E+02 -0.12220949620E+03  0.14408635317E+03  0.00000000000E+00 0.  1.
<scales pt_clust_3="31.26422" pt_clust_4="91.64302" pt_clust_5="112.14058" pt_clust_6="31.26422"></scales>
<clustering>
<clus scale="   31.264">  3  6 -1 -1</clus>
<clus scale="   91.643">  2  4  1 -1</clus>
<clus scale="  112.141">  1  5  2 -1</clus>
<clus scale="  112.141">  1  3  2 -1</clus>
</clustering>
</event>
<event>
 6    0  0.2036847E+002  0.1088664E+03  0.7546771E-02  0.1262684E+00
         21   -1    0    0  504  501  0.00000000000E+00  0.00000000000E+00  0.39478520651E+03  0.39478520651E+03  0.00000000000E+00 0.  1.
         21   -1    0    0  506  502 -0.00000000000E+00 -0.00000000000E+00 -0.11877172959E+03  0.11877172959E+03  0.00000000000E+00 0.  1.
         21    1    1    2  503  502 -0.65002798130E+02 -0.87497938217E+02  0.23686990803E+03  0.26074624885E+03  0.00000000000E+00 0.  1.
         21    1    1    2  504  503 -0.27559434762E+02  0.24376025028E+02  0.69916418524E+02  0.79006446697E+02  0.00000000000E+00 0.  1.
         21    1    1    2  505  501  0.11451436120E+03  0.21114846291E+02  0.15148168195E+01  0.11645458482E+03  0.00000000000E+00 0.  1.
         21    1    1    2  506  505 -0.21952128311E+02  0.42007066898E+02 -0.32287666460E+02  0.57349655728E+02  0.00000000000E+00 0.  1.
<scales pt_clust_3="108.86640" pt_clust_4="36.79284" pt_clust_5="14000.00000" pt_clust_6="48.74433"></scales>
<clustering>
<clus scale="   36.793">  1  4  2 -1</clus>
<clus scale="   48.744">  2  6  1 -1</clus>
<clus scale="  108.866">  1  3  2 -1</clus>
<clus scale="   36.793">  1  3  2 -1</clus>
</clustering>
</event>
<event>
 6    0  0.2036847E+002  0.9027100E+02  0.7546771E-02  0.1302197E+00
         21   -1    0    0  506  501  0.00000000000E+00  0.00000000000E+00  0.28194760909E+03  0.28194760909E+03  0.00000000000E+00 0.  1.
         21   -1    0    0  505  502 -0.00000000000E+00 -0.00000000000E+00 -0.51627113577E+03  0.51627113577E+03  0.00000000000E+00 0.  1.
         21    1    1    2  503  504  0.75364394188E+00  0.49027478213E+02  0.70152703318E+01  0.49532571273E+02  0.00000000000E+00 0.  1.
         21    1    1    2  504  502  0.46041984329E+02  0.37437613832E+02 -0.10379757206E+02  0.60242664368E+02  0.00000000000E+00 0.  1.
         21    1    1    2  505  501 -0.74341487600E+02 -0.14616561555E+02 -0.44997221590E+03  0.45630614256E+03  0.00000000000E+00 0.  1.
         21    1    1    2  506  503  0.27545859328E+02 -0.71848530490E+02  0.21901317609E+03  0.23213736667E+03  0.00000000000E+00 0.  1.
<scales pt_clust_3="44.28291" pt_clust_4="44.28291" pt_clust_5="75.76477" pt_clust_6="75.99746"></scales>
<clustering>
<clus scale="   44.283">  3  4 -1 -1</clus>
<clus scale="   75.765">  2  5  1 -1</clus>
<clus scale="   75.997">  1  6  2 -1</clus>
<clus scale="   75.997">  1  3  2 -1</clus>
</clustering>
</event>
<event>
 6    0  0.2036847E+002  0.1814678E+03  0.7546771E-02  0.1166390E+00
         21   -1    0    0  502  501  0.00000000000E+00  0.00000000000E+00  0.76738684328E+03  0.76738684328E+03  0.00000000000E+00 0.  1.
         21   -1    0    0  503  502 -0.00000000000E+00 -0.00000000000E+00 -0.59303288577E+03  0.59303288577E+03  0.00000000000E+00 0.  1.
         21    1    1    2  503  504  0.46613469921E+02 -0.84475571144E+02 -0.25962292755E+03  0.27697112161E+03  0.00000000000E+00 0.  1.
         21    1    1    2  504  505  0.15793083591E+01 -0.83642828680E+02 -0.29811905638E+03  0.30963460527E+03  0.00000000000E+00 0.  1.
         21    1    1    2  505  506 -0.90637823023E+02  0.14125468498E+03  0.68392679374E+03  0.70421868776E+03  0.00000000000E+00 0.  1.
         21    1    1    2  506  501  0.42445044743E+02  0.26863714847E+02  0.48169147700E+02  0.69595314417E+02  0.00000000000E+00 0. -1.
<scales pt_clust_3="46.03228" pt_clust_4="46.03228" pt_clust_5="174.60450" pt_clust_6="50.23187"></scales>
<clustering>
<clus scale="   46.032">  3  4 -1 -1</clus>
<clus scale="   50.232">  1  6  2 -1</clus>
<clus scale="  174.605">  1  5  2 -1</clus>
<clus scale="   50.232">  1  3  2 -1</clus>
</clustering>
</event>
<event>
 6    0  0.2036847E+002  0.1185036E+03  0.7546771E-02  0.1245586E+00
         21   -1    0    0  503  501  0.00000000000E+00  0.00000000000E+00  0.11392012093E+03  0.11392012093E+03  0.00000000000E+00 0. -1.
         21   -1    0    0  504  502 -0.00000000000E+00 -0.00000000000E+00 -0.41870882949E+03  0.41870882949E+03  0.00000000000E+00 0. -1.
         21    1    1    2  503  506 -0.83405298022E+02  0.82102570098E+01 -0.27946148999E+02  0.88345001568E+02  0.00000000000E+00 0. -1.
         21    1    1    2  504  501 -0.25243983280E+02  0.50982458428E+02 -0.12261171592E+03  0.13516694359E+03  0.00000000000E+00 0. -1.
         21    1    1    2  505  502  0.70215494878E+02  0.87526153422E+02 -0.92287896519E+02  0.14528626603E+03  0.00000000000E+00 0. -1.
         21    1    1    2  506  505  0.38433786424E+02 -0.14671886886E+03 -0.61942947124E+02  0.16383073923E+03  0.00000000000E+00 0. -1.
<scales pt_clust_3="90.37097" pt_clust_4="56.88998" pt_clust_5="118.50361" pt_clust_6="14000.00000"></scales>
<clustering>
<clus scale="   56.890">  2  4  1 -1</clus>
<clus scale="   90.371">  1  3  2 -1</clus>
<clus scale="  118.504">  2  5  1 -1</clus>
<clus scale="   90.371">  1  3  2 -1</clus>
</clustering>
</event>
<event>
 6    0  0.2036847E+002  0.1148212E+03  0.7546771E-02  0.1251893E+00
         21   -1    0    0  503  501  0.00000000000E+00  0.00000000000E+00  0.11853778702E+03  0.11853778702E+03  0.00000000000E+00 0.  1.
         21   -1    0    0  504  502 -0.00000000000E+00 -0.00000000000E+00 -0.33543453124E+03  0.33543453124E+03  0.00000000000E+00 0.  1.
         21    1    1    2  503  505  0.69580030148E+02 -0.17593395290E+02 -0.13144869178E+03  0.14976537225E+03  0.00000000000E+00 0.  1.
         21    1    1    2  504  506 -0.18208359131E+02  0.94819475890E+02 -0.30456207467E+00  0.96552421556E+02  0.00000000000E+00 0.  1.
         21    1    1    2  505  502  0.28488216443E+02 -0.44502456634E+02 -0.10637606938E+03  0.11877674545E+03  0.00000000000E+00 0.  1.
         21    1    1    2  506  501 -0.79859887459E+02 -0.32723623966E+02  0.21232579012E+02  0.88877779011E+02  0.00000000000E+00 0.  1.
<scales pt_clust_3="39.14202" pt_clust_4="105.37049" pt_clust_5="39.14202" pt_clust_6="86.30433"></scales>
<clustering>
<clus scale="   39.142">  3  5 -1 -1</clus>
<clus scale="   86.304">  1  6  2 -1</clus>
<clus scale="  105.370">  1  4  2 -1</clus>
<clus scale="   86.304">  1  3  2 -1</clus>
</clustering>
</event>
<event>
 6    0  0.2036847E+002  0.3730037E+03  0.7546771E-02  0.1053550E+00
         21   -1    0    0  503  501  0.00000000000E+00  0.00000000000E+00  0.93160993155E+02  0.93160993155E+02  0.00000000000E+00 0. -1.
         21   -1    0    0  505  502 -0.00000000000E+00 -0.00000000000E+00 -0.15905189366E+04  0.15905189366E+04  0.00000000000E+00 0. -1.
         21    1    1    2  503  506 -0.12658677048E+03 -0.10439130193E+02 -0.20487579042E+03  0.24105450712E+03  0.00000000000E+00 0. -1.
         21    1    1    2  504  501  0.15023693771E+03 -0.28764071025E+02 -0.36134896861E+03  0.39239213339E+03  0.00000000000E+00 0. -1.
         21    1    1    2  505  504  0.21485715581E+03 -0.16403795501E+02 -0.60608901263E+03  0.64325467207E+03  0.00000000000E+00 0. -1.
         21    1    1    2  506  502 -0.23850732303E+03  0.55606996719E+02 -0.32504417178E+03  0.40697861716E+03  0.00000000000E+00 0. -1.
<scales pt_clust_3="44.38189" pt_clust_4="30.31070" pt_clust_5="369.63233" pt_clust_6="44.38189"></scales>
<clustering>
<clus scale="   30.311">  4  5 -1 -1</clus>
<clus scale="   44.382">  3  6 -1 -1</clus>
<clus scale="  369.632">  2  4  1 -1</clus>
<clus scale="  373.004">  1  3  2 -1</clus>
</clustering>
</event>
<event>
 6    0  0.2036847E+002  0.1593334E+03  0.7546771E-02  0.1189451E+00
         21   -1    0    0  505  501  0.00000000000E+00  0.00000000000E+00  0.14136291027E+03  0.14136291027E+03  0.00000000000E+00 0.  1.
         21   -1    0    0  503  502 -0.00000000000E+00 -0.00000000000E+00 -0.13340079802E+04  0.13340079802E+04  0.00000000000E+00 0.  1.
         21    1    1    2  503  501 -0.25728923316E+02 -0.17835827159E+03  0.62508305580E+02  0.19073787984E+03  0.00000000000E+00 0.  1.
         21    1    1    2  504  506 -0.15864222621E+02  0.10232569383E+03 -0.74707559947E+03  0.75421758963E+03  0.00000000000E+00 0.  1.
         21    1    1    2  505  504  0.19310191884E+02  0.27030128569E+02 -0.18769613075E+02  0.38155074840E+02  0.00000000000E+00 0.  1.
         21    1    1    2  506  502  0.22282954053E+02  0.49002449191E+02 -0.48930816293E+03  0.49226034614E+03  0.00000000000E+00 0.  1.
<scales pt_clust_3="152.53233" pt_clust_4="33.20612" pt_clust_5="33.21914" pt_clust_6="33.20612"></scales>
<clustering>
<clus scale="   33.206">  4  6 -1 -1</clus>
<clus scale="   33.219">  1  5  2 -1</clus>
<clus scale="  152.532">  1  3  2 -1</clus>
<clus scale="   33.219">  1  3  2 -1</clus>
</clustering>
</event>
<event>
 6    0  0.2036847E+002  0.1022230E+03  0.7546771E-02  0.1275689E+00
         21   -1    0    0  503  501  0.00000000000E+00  0.00000000000E+00  0.14463001203E+04  0.14463001203E+04  0.00000000000E+00 0.  1.
         21   -1    0    0  506  502 -0.00000000000E+00 -0.00000000000E+00 -0.27216249207E+03  0.27216249207E+03  0.00000000000E+00 0. -1.
         21    1    1    2  503  504  0.28949329693E+02 -0.28854755516E+02  0.26158951446E+03  0.26476354485E+03  0.00000000000E+00 0. -1.
         21    1    1    2  504  505  0.59414845025E+02 -0.24364850175E+02  0.11541665542E+04  0.11559516446E+04  0.00000000000E+00 0.  1.
         21    1    1    2  505  502 -0.11122610552E+03  0.15016137587E+02 -0.22267960241E+03  0.24936506625E+03  0.00000000000E+00 0. -1.
         21    1    1    2  506  501  0.22861930807E+02  0.38203468104E+02 -0.18938838011E+02  0.48382356708E+02  0.00000000000E+00 0. -1.
<scales pt_clust_3="40.87372" pt_clust_4="102.22303" pt_clust_5="14000.00000" pt_clust_6="44.40122"></scales>
<clustering>
<clus scale="   40.874">  1  3  2 -1</clus>
<clus scale="   44.401">  2  6  1 -1</clus>
<clus scale="  102.223">  1  4  2 -1</clus>
<clus scale="   40.874">  1  3  2 -1</clus>
</clustering>
</event>
<event>
 6    0  0.2036847E+002  0.1026211E+03  0.7546771E-02  0.1274879E+00
         21   -1    0    0  504  501  0.00000000000E+00  0.00000000000E+00  0.24736647399E+02  0.24736647399E+02  0.00000000000E+00 0.  1.
         21   -1    0    0  505  502 -0.00000000000E+00 -0.00000000000E+00 -0.11902323753E+04  0.11902323753E+04  0.00000000000E+00 0.  1.
         21    1    1    2  503  501  0.45863636237E+02  0.14615236446E+02 -0.73010848541E+02  0.87450913488E+02  0.00000000000E+00 0.  1.
         21    1    1    2  504  502  0.55886043649E+02 -0.21853732823E+01 -0.26057640563E+03  0.26651095456E+03  0.00000000000E+00 0.  1.
         21    1    1    2  505  506 -0.14069087857E+03  0.12416289212E+02 -0.77474070347E+03  0.78750952068E+03  0.00000000000E+00 0.  1.
         21    1    1    2  506  503  0.38941198688E+02 -0.24846152376E+02 -0.57167770292E+02  0.73497633998E+02  0.00000000000E+00 0.  1.
<scales pt_clust_3="39.92930" pt_clust_4="55.92876" pt_clust_5="94.17888" pt_clust_6="39.92930"></scales>
<clustering>
<clus scale="   39.929">  3  6 -1 -1</clus>
<clus scale="   55.929">  2  4  1 -1</clus>
<clus scale="   94.179">  2  5  1 -1</clus>
<clus scale="  102.621">  1  3  2 -1</clus>
</clustering>
</event>
<event>
 6    0  0.2036847E+002  0.1337681E+03  0.7546771E-02  0.1221969E+00
         21   -1    0    0  504  501  0.00000000000E+00  0.00000000000E+00  0.45654585166E+02  0.45654585166E+02  0.00000000000E+00 0.  1.
         21   -1    0    0  505  502 -0.00000000000E+00 -0.00000000000E+00 -0.92621496895E+03  0.92621496895E+03  0.00000000000E+00 0.  1.
         21    1    1    2  503  501  0.11462974994E+02  0.40885383751E+02 -0.22491437786E+02  0.48050797848E+02  0.00000000000E+00 0.  1.
         21    1    1    2  504  506 -0.29743002114E+02  0.40668367245E+02 -0.63239588327E+02  0.80856711539E+02  0.00000000000E+00 0.  1.
         21    1    1    2  505  503 -0.12437047039E+03 -0.23499960327E+02 -0.34329854703E+03  0.36588817204E+03  0.00000000000E+00 0.  1.
         21    1    1    2  506  502  0.14265049751E+03 -0.58053790669E+02 -0.45153081064E+03  0.47707387269E+03  0.00000000000E+00 0.  1.
<scales pt_clust_3="42.46192" pt_clust_4="58.10625" pt_clust_5="133.76810" pt_clust_6="14000.00000"></scales>
<clustering>
<clus scale="   42.462">  1  3  2 -1</clus>
<clus scale="   58.106">  1  4  2 -1</clus>
<clus scale="  133.768">  2  5  1 -1</clus>
<clus scale="   42.462">  1  3  2 -1</clus>
</clustering>
</event>
<event>
 6    0  0.2036847E+002  0.1694558E+03  0.7546771E-02  0.1178417E+00
         21   -1    0    0  504  501  0.00000000000E+00  0.00000000000E+00  0.28365761258E+03  0.28365761258E+03  0.00000000000E+00 0. -1.
         21   -1    0    0  505  502 -0.00000000000E+00 -0.00000000000E+00 -0.13338091698E+03  0.13338091698E+03  0.00000000000E+00 0. -1.
         21    1    1    2  503  502 -0.20665476646E+02 -0.21976918478E+02 -0.14359614258E+02  0.33410258790E+02  0.00000000000E+00 0.  1.
         21    1    1    2  504  503 -0.15648061114E+03  0.10060422014E+02  0.11484184751E+03  0.19436060221E+03  0.00000000000E+00 0. -1.
         21    1    1    2  505  506  0.78709125008E+02  0.33175705974E+01  0.35981231413E+00  0.78779833073E+02  0.00000000000E+00 0. -1.
         21    1    1    2  506  501  0.98436962774E+02  0.85989258665E+01  0.49434650038E+02  0.11048783549E+03  0.00000000000E+00 0. -1.
<scales pt_clust_3="30.16698" pt_clust_4="163.99770" pt_clust_5="37.45346" pt_clust_6="37.45346"></scales>
<clustering>
<clus scale="   30.167">  2  3  1 -1</clus>
<clus scale="   37.453">  5  6 -1 -1</clus>
<clus scale="  163.998">  1  4  2 -1</clus>
<clus scale="  163.998">  1  3  2 -1</clus>
</clustering>
</event>
<event>
 6    0  0.2036847E+002  0.8795592E+02  0.7546771E-02  0.1307879E+00
         21   -1    0    0  506  501  0.00000000000E+00  0.00000000000E+00  0.23786794697E+03  0.23786794697E+03  0.00000000000E+00 0.  1.
         21   -1    0    0  503  502 -0.00000000000E+00 -0.00000000000E+00 -0.59751054203E+03  0.59751054203E+03  0.00000000000E+00 0.  1.
         21    1    1    2  503  504 -0.51121722785E+02 -0.55169419424E+02 -0.13250968112E+02  0.76372007542E+02  0.00000000000E+00 0.  1.
         21    1    1    2  504  501 -0.63606796858E+02  0.11732344714E+02  0.17385959199E+03  0.18550102492E+03  0.00000000000E+00 0.  1.
         21    1    1    2  505  502  0.87328051558E+02  0.24645728289E+02 -0.53091325465E+03  0.53861162676E+03  0.00000000000E+00 0.  1.
         21    1    1    2  506  505  0.27400468086E+02  0.18791346421E+02  0.10662035712E+02  0.34893829786E+02  0.00000000000E+00 0.  1.
<scales pt_clust_3="14000.00000" pt_clust_4="49.09482" pt_clust_5="87.95592" pt_clust_6="33.22500"></scales>
<clustering>
<clus scale="   33.225">  1  6  2 -1</clus>
<clus scale="   49.095">  1  4  2 -1</clus>
<clus scale="   87.956">  2  5  1 -1</clus>
<clus scale="   33.225">  1  3  2 -1</clus>
</clustering>
</event>
<event>
 6    0  0.2036847E+002  0.8847010E+02  0.7546771E-02  0.1306599E+00
         21   -1    0    0  505  501  0.00000000000E+00  0.00000000000E+00  0.52954247812E+03  0.52954247812E+03  0.00000000000E+00 0.  1.
         21   -1    0    0  506  502 -0.00000000000E+00 -0.00000000000E+00 -0.47506202265E+02  0.47506202265E+02  0.00000000000E+00 0. -1.
         21    1    1    2  503  502  0.52043926377E+02  0.24107141197E+02  0.76288800153E+02  0.95444777532E+02  0.00000000000E+00 0. -1.
         21    1    1    2  504  501 -0.38979234548E+02 -0.84325640954E+02  0.33675989108E+03  0.34933854452E+03  0.00000000000E+00 0.  1.
         21    1    1    2  505  503  0.24596742658E+02  0.67848903346E+02  0.32056595843E+02  0.78968973475E+02  0.00000000000E+00 0. -1.
         21    1    1    2  506  504 -0.37661434488E+02 -0.76304035894E+01  0.36930988785E+02  0.53296384861E+02  0.00000000000E+00 0.  1.
<scales pt_clust_3="48.30014" pt_clust_4="88.47010" pt_clust_5="14000.00000" pt_clust_6="38.42664"></scales>
<clustering>
<clus scale="   38.427">  2  6  1 -1</clus>
<clus scale="   48.300">  2  3  1 -1</clus>
<clus scale="   88.470">  1  4  2 -1</clus>
<clus scale="   88.470">  1  3  2 -1</clus>
</clustering>
</event>
<event>
 6    0  0.2036847E+002  0.1977430E+03  0.7546771E-02  0.1151657E+00
         21   -1    0    0  504  501  0.00000000000E+00  0.00000000000E+00  0.86816057911E+02  0.86816057911E+02  0.00000000000E+00 0.  1.
         21   -1    0    0  503  502 -0.00000000000E+00 -0.00000000000E+00 -0.44091058971E+03  0.44091058971E+03  0.00000000000E+00 0.  1.
         21    1    1    2  503  505  0.42048751026E+01 -0.74268979633E+02 -0.12175158723E+03  0.14267799867E+03  0.00000000000E+00 0.  1.
         21    1    1    2  504  506  0.16812839135E+02  0.91210989355E+02 -0.12364763857E+03  0.15456666737E+03  0.00000000000E+00 0.  1.
         21    1    1    2  505  501 -0.37883569493E+02 -0.10224278374E+03 -0.90375438829E+02  0.14162087279E+03  0.00000000000E+00 0.  1.
         21    1    1    2  506  502  0.16865855256E+02  0.85300774022E+02 -0.18319867160E+02  0.88861108788E+02  0.00000000000E+00 0.  1.
<scales pt_clust_3="49.12517" pt_clust_4="79.91257" pt_clust_5="189.28279" pt_clust_6="79.91257"></scales>
<clustering>
<clus scale="   49.125">  3  5 -1 -1</clus>
<clus scale="   79.913">  4  6 -1 -1</clus>
<clus scale="  189.283">  2  3  1 -1</clus>
<clus scale="  197.743">  1  3  2 -1</clus>
</clustering>
</event>
<event>
 6    0  0.2036847E+002  0.1051187E+03  0.7546771E-02  0.1269886E+00
         21   -1    0    0  504  501  0.00000000000E+00  0.00000000000E+00  0.79548697904E+03  0.79548697904E+03  0.00000000000E+00 0. -1.
         21   -1    0    0  501  502 -0.00000000000E+00 -0.00000000000E+00 -0.47206558265E+02  0.47206558265E+02  0.00000000000E+00 0. -1.
         21    1    1    2  503  502  0.30348573309E+02 -0.66311737715E+02  0.33755346397E+02  0.80359852358E+02  0.00000000000E+00 0. -1.
         21    1    1    2  504  505  0.29287529631E+02  0.24064887328E+02  0.16320240960E+03  0.16754672391E+03  0.00000000000E+00 0. -1.
         21    1    1    2  505  506 -0.22460762243E+02 -0.82973812520E+02  0.15174670969E+03  0.17440241772E+03  0.00000000000E+00 0. -1.
         21    1    1    2  506  503 -0.37175340696E+02  0.12522066291E+03  0.39957595509E+03  0.42038454332E+03  0.00000000000E+00 0. -1.
<scales pt_clust_3="72.12512" pt_clust_4="37.90618" pt_clust_5="14000.00000" pt_clust_6="105.11873"></scales>
<clustering>
<clus scale="   37.906">  1  4  2 -1</clus>
<clus scale="   72.125">  2  3  1 -1</clus>
<clus scale="  105.119">  2  6  1 -1</clus>
<clus scale="   37.906">  1  3  2 -1</clus>
</clustering>
</event>
<event>
 6    0  0.2036847E+002  0.1578529E+03  0.7546771E-02  0.1191142E+00
         21   -1    0    0  506  501  0.00000000000E+00  0.00000000000E+00  0.70184762080E+03  0.70184762080E+03  0.00000000000E+00 0. -1.
         21   -1    0    0  505  502 -0.00000000000E+00 -0.00000000000E+00 -0.11717564479E+04  0.11717564479E+04  0.00000000000E+00 0. -1.
         21    1    1    2  503  501 -0.72177401682E+02 -0.91723922456E+02  0.61147574734E+03  0.62251541735E+03  0.00000000000E+00 0. -1.
         21    1    1    2  504  502  0.44055208420E+02  0.23040514536E+02 -0.84056173553E+02  0.97658420074E+02  0.00000000000E+00 0.  1.
         21    1    1    2  505  503  0.81581236031E+02  0.75214065192E+02 -0.10628435272E+04  0.10686201463E+04  0.00000000000E+00 0. -1.
         21    1    1    2  506  504 -0.53459042768E+02 -0.65306572723E+01  0.65515126340E+02  0.84810084998E+02  0.00000000000E+00 0. -1.
<scales pt_clust_3="157.85294" pt_clust_4="49.71646" pt_clust_5="14000.00000" pt_clust_6="53.44145"></scales>
<clustering>
<clus scale="   49.716">  2  4  1 -1</clus>
<clus scale="   53.441">  1  6  2 -1</clus>
<clus scale="  157.853">  1  3  2 -1</clus>
<clus scale="   53.441">  1  3  2 -1</clus>
</clustering>
</event>
<event>
 6    0  0.2036847E+002  0.1348858E+03  0.7546771E-02  0.1220381E+00
         21   -1    0    0  503  501  0.00000000000E+00  0.00000000000E+00  0.14986303349E+04  0.14986303349E+04  0.00000000000E+00 0. -1.
         21   -1    0    0  506  502 -0.00000000000E+00 -0.00000000000E+00 -0.13858058532E+02  0.13858058532E+02  0.00000000000E+00 0. -1.
         21    1    1    2  503  505 -0.54374412614E+02  0.12551078117E+02  0.28520363627E+03  0.29061180370E+03  0.00000000000E+00 0. -1.
         21    1    1    2  504  501  0.74326838680E+02 -0.33234247361E+02  0.81701180115E+03  0.82105863211E+03  0.00000000000E+00 0. -1.
         21    1    1    2  505  502 -0.50491794128E+02  0.51456407982E+02  0.18478651200E+03  0.19835130000E+03  0.00000000000E+00 0. -1.
         21    1    1    2  506  504  0.30539368062E+02 -0.30773238738E+02  0.19777032697E+03  0.20246665763E+03  0.00000000000E+00 0. -1.
<scales pt_clust_3="48.98838" pt_clust_4="133.49626" pt_clust_5="48.98838" pt_clust_6="38.10915"></scales>
<clustering>
<clus scale="   38.109">  4  6 -1 -1</clus>
<clus scale="   48.988">  3  5 -1 -1</clus>
<clus scale="  133.496">  1  4  2 -1</clus>
<clus scale="  133.496">  1  3  2 -1</clus>
</clustering>
</event>
<event>
 6    0  0.2036847E+002  0.8751586E+02  0.7546771E-02  0.1308981E+00
         21   -1    0    0  506  501  0.00000000000E+00  0.00000000000E+00  0.71113114036E+03  0.71113114036E+03  0.00000000000E+00 0.  1.
         21   -1    0    0  504  502 -0.00000000000E+00 -0.00000000000E+00 -0.69860140449E+02  0.69860140449E+02  0.00000000000E+00 0.  1.
         21    1    1    2  503  505  0.76231641434E+02  0.97692743800E+00  0.30041612331E+02  0.81943370777E+02  0.00000000000E+00 0.  1.
         21    1    1    2  504  503  0.37236808726E+02  0.18136392116E+02 -0.22807024677E+02  0.47282861776E+02  0.00000000000E+00 0.  1.
         21    1    1    2  505  501 -0.55971864956E+02 -0.50973203047E+02  0.22285243726E+03  0.23535999212E+03  0.00000000000E+00 0.  1.
         21    1    1    2  506  502 -0.57496585203E+02  0.31859883493E+02  0.41118397500E+03  0.41640505614E+03  0.00000000000E+00 0.  1.
<scales pt_clust_3="14000.00000" pt_clust_4="41.41870" pt_clust_5="87.51586" pt_clust_6="64.00104"></scales>
<clustering>
<clus scale="   41.419">  2  4  1 -1</clus>
<clus scale="   64.001">  1  6  2 -1</clus>
<clus scale="   87.516">  1  5  2 -1</clus>
<clus scale="   64.001">  1  3  2 -1</clus>
</clustering>
</event>
<event>
 6    0  0.2036847E+002  0.9219638E+02  0.7546771E-02  0.1297618E+00
         21   -1    0    0  505  501  0.00000000000E+00  0.00000000000E+00  0.54411143174E+02  0.54411143174E+02  0.00000000000E+00 0. -1.
         21   -1    0    0  506  502 -0.00000000000E+00 -0.00000000000E+00 -0.52878727273E+03  0.52878727273E+03  0.00000000000E+00 0. -1.
         21    1    1    2  503  501 -0.16160331358E+02 -0.93459507019E+02 -0.24157174228E+03  0.25952406908E+03  0.00000000000E+00 0. -1.
         21    1    1    2  504  502 -0.10955028766E+02  0.29685417099E+02 -0.44319042955E+02  0.54455616901E+02  0.00000000000E+00 0. -1.
         21    1    1    2  505  504  0.55577337915E+02  0.75137424811E+02 -0.16969599196E+02  0.94986527434E+02  0.00000000000E+00 0. -1.
         21    1    1    2  506  503 -0.28461977791E+02 -0.11363334892E+02 -0.17151574512E+03  0.17423220249E+03  0.00000000000E+00 0. -1.
<scales pt_clust_3="92.19638" pt_clust_4="31.81568" pt_clust_5="14000.00000" pt_clust_6="30.64653"></scales>
<clustering>
<clus scale="   30.647">  2  6  1 -1</clus>
<clus scale="   31.816">  2  4  1 -1</clus>
<clus scale="   92.196">  2  3  1 -1</clus>
<clus scale="   92.196">  1  3  2 -1</clus>
</clustering>
</event>
<event>
 6    0  0.2036847E+002  0.1132949E+03  0.7546771E-02  0.1254587E+00
         21   -1    0    0  505  501  0.00000000000E+00  0.00000000000E+00  0.80541301183E+03  0.80541301183E+03  0.00000000000E+00 0.  1.
         21   -1    0    0  503  502 -0.00000000000E+00 -0.00000000000E+00 -0.92248745953E+02  0.92248745953E+02  0.00000000000E+00 0. -1.
         21    1    1    2  503  506  0.19227299321E+02 -0.29376857558E+02  0.17058986295E+02  0.39034572017E+02  0.00000000000E+00 0. -1.
         21    1    1    2  504  501  0.33049965838E+01 -0.30340780398E+02  0.27447378896E+03  0.27616543373E+03  0.00000000000E+00 0.  1.
         21    1    1    2  505  502  0.95461095309E+02  0.36465578527E+02 -0.36727313816E+02  0.10858846493E+03  0.00000000000E+00 0. -1.
         21    1    1    2  506  504 -0.11799339121E+03  0.23252059429E+02  0.45835880444E+03  0.47387328711E+03  0.00000000000E+00 0.  1.
<scales pt_clust_3="36.55596" pt_clust_4="30.52025" pt_clust_5="14000.00000" pt_clust_6="113.29491"></scales>
<clustering>
<clus scale="   30.520">  1  4  2 -1</clus>
<clus scale="   36.556">  2  3  1 -1</clus>
<clus scale="  113.295">  1  6  2 -1</clus>
<clus scale="   30.520">  1  3  2 -1</clus>
</clustering>
</event>
<event>
 6    0  0.2036847E+002  0.1786856E+03  0.7546771E-02  0.1169081E+00
         21   -1    0    0  503  501  0.00000000000E+00  0.00000000000E+00  0.72357017088E+03  0.72357017088E+03  0.00000000000E+00 0.  1.
         21   -1    0    0  504  502 -0.00000000000E+00 -0.00000000000E+00 -0.10323861106E+03  0.10323861106E+03  0.00000000000E+00 0.  1.
         21    1    1    2  503  505  0.86549104670E+02 -0.75492480674E+02  0.21107444927E+03  0.24029624485E+03  0.00000000000E+00 0.  1.
         21    1    1    2  504  501 -0.15846343554E+02 -0.10832127065E+03  0.35102337934E+03  0.36769826913E+03  0.00000000000E+00 0.  1.
         21    1    1    2  505  506 -0.58285411063E+02  0.11014101731E+03  0.86142242882E+00  0.12461530759E+03  0.00000000000E+00 0.  1.
         21    1    1    2  506  502 -0.12417350053E+02  0.73672734010E+02  0.57372308782E+02  0.94198960365E+02  0.00000000000E+00 0.  1.
<scales pt_clust_3="161.94567" pt_clust_4="109.47422" pt_clust_5="58.47002" pt_clust_6="58.47002"></scales>
<clustering>
<clus scale="   58.470">  5  6 -1 -1</clus>
<clus scale="  109.474">  1  4  2 -1</clus>
<clus scale="  161.946">  1  3  2 -1</clus>
<clus scale="  109.474">  1  3  2 -1</clus>
</clustering>
</event>
<event>
 6    0  0.2036847E+002  0.1444782E+03  0.7546771E-02  0.1207427E+00
         21   -1    0    0  502  501  0.00000000000E+00  0.00000000000E+00  0.73854728720E+03  0.73854728720E+03  0.00000000000E+00 0. -1.
         21   -1    0    0  503  502 -0.00000000000E+00 -0.00000000000E+00 -0.27813627332E+03  0.27813627332E+03  0.00000000000E+00 0. -1.
         21    1    1    2  503  506  0.28780207425E+02  0.91121564854E+02 -0.11449449673E+03  0.14913225574E+03  0.00000000000E+00 0. -1.
         21    1    1    2  504  505 -0.69964687080E+02 -0.90149133328E+02  0.22010446706E+03  0.24792720726E+03  0.00000000000E+00 0. -1.
         21    1    1    2  505  501  0.24635234531E+02 -0.37456810604E+02  0.48312049414E+03  0.48519616579E+03  0.00000000000E+00 0. -1.
         21    1    1    2  506  504  0.16549245124E+02  0.36484379079E+02 -0.12831945059E+03  0.13442793174E+03  0.00000000000E+00 0. -1.
<scales pt_clust_3="36.10726" pt_clust_4="133.28245" pt_clust_5="44.83199" pt_clust_6="36.10726"></scales>
<clustering>
<clus scale="   36.107">  3  6 -1 -1</clus>
<clus scale="   44.832">  1  5  2 -1</clus>
<clus scale="  133.282">  1  4  2 -1</clus>
<clus scale="   44.832">  1  3  2 -1</clus>
</clustering>
</event>
<event>
 6    0  0.2036847E+002  0.6088693E+02  0.7546771E-02  0.1394147E+00
         21   -1    0    0  504  501  0.00000000000E+00  0.00000000000E+00  0.60531250133E+03  0.60531250133E+03  0.00000000000E+00 0.  1.
         21   -1    0    0  506  502 -0.00000000000E+00 -0.00000000000E+00 -0.18140767752E+03  0.18140767752E+03  0.00000000000E+00 0. -1.
         21    1    1    2  503  502 -0.33689518880E+02 -0.53223065314E+02 -0.42300020978E+02  0.75874700253E+02  0.00000000000E+00 0. -1.
         21    1    1    2  504  503 -0.28844057271E+02 -0.33432694807E+02  0.13826458329E+03  0.14514413428E+03  0.00000000000E+00 0. -1.
         21    1    1    2  505  501  0.90188994533E+02  0.36007050697E+02  0.43412225343E+03  0.44485131601E+03  0.00000000000E+00 0.  1.
         21    1    1    2  506  505 -0.27655418382E+02  0.50648709423E+02 -0.10618199193E+03  0.12085002831E+03  0.00000000000E+00 0. -1.
<scales pt_clust_3="60.88693" pt_clust_4="44.15569" pt_clust_5="14000.00000" pt_clust_6="57.46534"></scales>
<clustering>
<clus scale="   44.156">  1  4  2 -1</clus>
<clus scale="   57.465">  2  6  1 -1</clus>
<clus scale="   60.887">  2  3  1 -1</clus>
<clus scale="   44.156">  1  3  2 -1</clus>
</clustering>
</event>
<event>
 6    0  0.2551261E+002  0.1002895E+03  0.7546771E-02  0.1279688E+00
         21   -1    0    0  503  501  0.00000000000E+00  0.00000000000E+00  0.91975516449E+03  0.91975516449E+03  0.00000000000E+00 0. -1.
         21   -1    0    0  506  502 -0.00000000000E+00 -0.00000000000E+00 -0.10595344034E+04  0.10595344034E+04  0.00000000000E+00 0.  1.
         21    1    1    2  503  504  0.28584706124E+02  0.17253509895E+02  0.64211963567E+02  0.72373650544E+02  0.00000000000E+00 0. -1.
         21    1    1    2  504  502 -0.30422003064E+02  0.35978601923E+02 -0.10488546808E+03  0.11498225725E+03  0.00000000000E+00 0.  1.
         21    1    1    2  505  501 -0.12754292084E+02  0.81790216244E+02  0.83949109423E+03  0.84356245100E+03  0.00000000000E+00 0. -1.
         21    1    1    2  506  505  0.14591589024E+02 -0.13502232806E+03 -0.93859682860E+03  0.94837120907E+03  0.00000000000E+00 0.  1.
<scales pt_clust_3="33.38816" pt_clust_4="47.08552" pt_clust_5="14000.00000" pt_clust_6="100.28946"></scales>
<clustering>
<clus scale="   33.388">  1  3  2 -1</clus>
<clus scale="   47.086">  2  4  1 -1</clus>
<clus scale="  100.289">  2  6  1 -1</clus>
<clus scale="   33.388">  1  3  2 -1</clus>
</clustering>
</event>
<event>
 6    0  0.2036847E+002  0.2898158E+03  0.7546771E-02  0.1090445E+00
         21   -1    0    0  504  501  0.00000000000E+00  0.00000000000E+00  0.11132737804E+04  0.11132737804E+04  0.00000000000E+00 0. -1.
         21   -1    0    0  505  502 -0.00000000000E+00 -0.00000000000E+00 -0.20145962981E+03  0.20145962981E+03  0.00000000000E+00 0. -1.
         21    1    1    2  503  501  0.13251357379E+03  0.16572967746E+03  0.75674100148E+03  0.78592818791E+03  0.00000000000E+00 0. -1.
         21    1    1    2  504  502  0.49623129814E+01 -0.34423044533E+02  0.37615532407E+01  0.34981707046E+02  0.00000000000E+00 0. -1.
         21    1    1    2  505  506 -0.20559202208E+03 -0.16895597760E+03 -0.56390503685E+02  0.27201854866E+03  0.00000000000E+00 0. -1.
         21    1    1    2  506  503  0.68116135310E+02  0.37649344669E+02  0.20770209951E+03  0.22180496655E+03  0.00000000000E+00 0. -1.
<scales pt_clust_3="37.19167" pt_clust_4="34.77888" pt_clust_5="283.25410" pt_clust_6="37.19167"></scales>
<clustering>
<clus scale="   34.779">  2  4  1 -1</clus>
<clus scale="   37.192">  3  6 -1 -1</clus>
<clus scale="  283.254">  2  5  1 -1</clus>
<clus scale="  289.816">  1  3  2 -1</clus>
</clustering>
</event>
<event>
 6    0  0.2036847E+002  0.1381295E+03  0.7546771E-02  0.1215868E+00
         21   -1    0    0  505  501  0.00000000000E+00  0.00000000000E+00  0.26368445840E+03  0.26368445840E+03  0.00000000000E+00 0. -1.
         21   -1    0    0  501  502 -0.00000000000E+00 -0.00000000000E+00 -0.12430433781E+03  0.12430433781E+03  0.00000000000E+00 0. -1.
         21    1    1    2  503  502  0.66170790992E+02  0.35644087545E+02 -0.36361226538E+02  0.83493792301E+02  0.00000000000E+00 0.  1.
         21    1    1    2  504  503  0.43523269710E+02  0.53283740711E+02 -0.29142679469E+01  0.68861636548E+02  0.00000000000E+00 0. -1.
         21    1    1    2  505  506 -0.16676449440E+02 -0.27275434202E+02  0.81957984618E+02  0.87972521389E+02  0.00000000000E+00 0. -1.
         21    1    1    2  506  504 -0.93017611262E+02 -0.61652394055E+02  0.96697630458E+02  0.14766084597E+03  0.00000000000E+00 0. -1.
<scales pt_clust_3="39.00199" pt_clust_4="39.00199" pt_clust_5="31.96957" pt_clust_6="131.72354"></scales>
<clustering>
<clus scale="   31.970">  1  5  2 -1</clus>
<clus scale="   39.002">  3  4 -1 -1</clus>
<clus scale="  131.724">  1  6  2 -1</clus>
<clus scale="   31.970">  1  3  2 -1</clus>
</clustering>
</event>
<event>
 6    0  0.2036847E+002  0.2062275E+03  0.7546771E-02  0.1144589E+00
         21   -1    0    0  503  501  0.00000000000E+00  0.00000000000E+00  0.84257588045E+02  0.84257588045E+02  0.00000000000E+00 0.  1.
         21   -1    0    0  504  502 -0.00000000000E+00 -0.00000000000E+00 -0.53990776371E+03  0.53990776371E+03  0.00000000000E+00 0.  1.
         21    1    1    2  503  506 -0.43360716301E+01  0.11984998976E+03 -0.11194304964E+03  0.16405507589E+03  0.00000000000E+00 0.  1.
         21    1    1    2  504  505  0.16365028053E+02 -0.11849514490E+03 -0.17300820036E+03  0.21033485422E+03  0.00000000000E+00 0.  1.
         21    1    1    2  505  501 -0.22521257626E+02 -0.82550921926E+02 -0.13638236812E+03  0.16100314311E+03  0.00000000000E+00 0.  1.
         21    1    1    2  506  502  0.10492301204E+02  0.81196077061E+02 -0.34316557543E+02  0.88772278535E+02  0.00000000000E+00 0.  1.
<scales pt_clust_3="37.61309" pt_clust_4="205.35186" pt_clust_5="34.99460" pt_clust_6="37.61309"></scales>
<clustering>
<clus scale="   34.995">  4  5 -1 -1</clus>
<clus scale="   37.613">  3  6 -1 -1</clus>
<clus scale="  205.352">  2  4  1 -1</clus>
<clus scale="  206.228">  1  3  2 -1</clus>
</clustering>
</event>
<event>
 6    0  0.2036847E+002  0.1180526E+03  0.7546771E-02  0.1246345E+00
         21   -1    0    0  504  501  0.00000000000E+00  0.00000000000E+00  0.49976726227E+03  0.49976726227E+03  0.00000000000E+00 0.  1.
         21   -1    0    0  505  502 -0.00000000000E+00 -0.00000000000E+00 -0.95327719847E+02  0.95327719847E+02  0.00000000000E+00 0.  1.
         21    1    1    2  503  506  0.25824644243E+02 -0.37227597336E+02  0.24206842754E+02  0.51369032401E+02  0.00000000000E+00 0.  1.
         21    1    1    2  504  503 -0.36555521297E+02  0.75184714139E+02  0.23560754102E+03  0.24999992152E+03  0.00000000000E+00 0.  1.
         21    1    1    2  505  501  0.97334016925E+01  0.73070328745E+02 -0.35741633115E+02  0.81923600929E+02  0.00000000000E+00 0.  1.
         21    1    1    2  506  502  0.99747536138E+00 -0.11102744555E+03  0.18036679177E+03  0.21180242726E+03  0.00000000000E+00 0.  1.
<scales pt_clust_3="43.83965" pt_clust_4="96.05497" pt_clust_5="73.71575" pt_clust_6="43.83965"></scales>
<clustering>
<clus scale="   43.840">  3  6 -1 -1</clus>
<clus scale="   73.716">  2  5  1 -1</clus>
<clus scale="   96.055">  1  4  2 -1</clus>
<clus scale="   96.055">  1  3  2 -1</clus>
</clustering>
</event>
<event>
 6    0  0.2036847E+002  0.1766671E+03  0.7546771E-02  0.1171068E+00
         21   -1    0    0  504  501  0.00000000000E+00  0.00000000000E+00  0.58710579212E+02  0.58710579212E+02  0.00000000000E+00 0.  1.
         21   -1    0    0  506  502 -0.00000000000E+00 -0.00000000000E+00 -0.74845915068E+03  0.74845915068E+03  0.00000000000E+00 0.  1.
         21    1    1    2  503  502 -0.49946013051E+02 -0.83608789085E+01 -0.20383022236E+03  0.21002682701E+03  0.00000000000E+00 0. -1.
         21    1    1    2  504  505 -0.16539963175E+02 -0.30595461257E+02 -0.33485946525E+02  0.48280029474E+02  0.00000000000E+00 0.  1.
         21    1    1    2  505  503  0.57131047998E+02 -0.12930853137E+03 -0.18638937655E+03  0.23393514619E+03  0.00000000000E+00 0.  1.
         21    1    1    2  506  501  0.93549282271E+01  0.16826487153E+03 -0.26604302603E+03  0.31492772723E+03  0.00000000000E+00 0.  1.
<scales pt_clust_3="50.64098" pt_clust_4="31.69553" pt_clust_5="31.69553" pt_clust_6="164.70556"></scales>
<clustering>
<clus scale="   31.696">  4  5 -1 -1</clus>
<clus scale="   50.641">  2  3  1 -1</clus>
<clus scale="  164.706">  2  6  1 -1</clus>
<clus scale="  176.667">  1  3  2 -1</clus>
</clustering>
</event>
<event>
 6    0  0.6373221E+002  0.6003754E+02  0.7546771E-02  0.1397674E+00
         21   -1    0    0  505  501  0.00000000000E+00  0.00000000000E+00  0.99863759572E+03  0.99863759572E+03  0.00000000000E+00 0.  1.
         21   -1    0    0  503  502 -0.00000000000E+00 -0.00000000000E+00 -0.38064853767E+03  0.38064853767E+03  0.00000000000E+00 0. -1.
         21    1    1    2  503  506  0.31312910479E+02 -0.61202929332E+01  0.49618625767E+01  0.32288952112E+02  0.00000000000E+00 0. -1.
         21    1    1    2  504  502 -0.80518501323E+02  0.38047260718E+02 -0.35333553754E+03  0.36438554470E+03  0.00000000000E+00 0. -1.
         21    1    1    2  505  504  0.89663662595E+02 -0.27765616311E+02  0.89925947426E+03  0.90414495735E+03  0.00000000000E+00 0.  1.
         21    1    1    2  506  501 -0.40458071751E+02 -0.41613514731E+01  0.67103258739E+02  0.78466679230E+02  0.00000000000E+00 0.  1.
<scales pt_clust_3="31.90543" pt_clust_4="60.03754" pt_clust_5="14000.00000" pt_clust_6="40.19922"></scales>
<clustering>
<clus scale="   31.905">  2  3  1 -1</clus>
<clus scale="   40.199">  1  6  2 -1</clus>
<clus scale="   60.038">  2  4  1 -1</clus>
<clus scale="   40.199">  1  3  2 -1</clus>
</clustering>
</event>
<event>
 6    0  0.2036847E+002  0.7978077E+02  0.7546771E-02  0.1329675E+00
         21   -1    0    0  504  501  0.00000000000E+00  0.00000000000E+00  0.54015506470E+03  0.54015506470E+03  0.00000000000E+00 0.  1.
         21   -1    0    0  505  502 -0.00000000000E+00 -0.00000000000E+00 -0.33113280752E+03  0.33113280752E+03  0.00000000000E+00 0. -1.
         21    1    1    2  503  501  0.50380076461E+02  0.34148389454E+02  0.31339295554E+03  0.31924819372E+03  0.00000000000E+00 0.  1.
         21    1    1    2  504  506  0.30861189547E+02 -0.35711160449E+02  0.19190940011E+03  0.19762823142E+03  0.00000000000E+00 0. -1.
         21    1    1    2  505  503 -0.11772415727E+03  0.20149955050E+02 -0.28915559244E+03  0.31285132976E+03  0.00000000000E+00 0. -1.
         21    1    1    2  506  502  0.36482891260E+02 -0.18587184055E+02 -0.71245060393E+01  0.41560117326E+02  0.00000000000E+00 0.  1.
<scales pt_clust_3="79.78077" pt_clust_4="47.55215" pt_clust_5="14000.00000" pt_clust_6="40.94490"></scales>
<clustering>
<clus scale="   40.945">  2  6  1 -1</clus>
<clus scale="   47.552">  1  4  2 -1</clus>
<clus scale="   79.781">  1  3  2 -1</clus>
<clus scale="   47.552">  1  3  2 -1</clus>
</clustering>
</event>
<event>
 6    0  0.2036847E+002  0.1448839E+03  0.7546771E-02  0.1206904E+00
         21   -1    0    0  504  501  0.00000000000E+00  0.00000000000E+00  0.43504371446E+03  0.43504371446E+03  0.00000000000E+00 0. -1.
         21   -1    0    0  505  502 -0.00000000000E+00 -0.00000000000E+00 -0.90036195172E+03  0.90036195172E+03  0.00000000000E+00 0.  1.
         21    1    1    2  503  506 -0.84223416388E+02 -0.22920495099E+02 -0.44152935336E+03  0.45007455253E+03  0.00000000000E+00 0. -1.
         21    1    1    2  504  503  0.10281963668E+03  0.45976778928E+01  0.39341463909E+03  0.40665476092E+03  0.00000000000E+00 0. -1.
         21    1    1    2  505  501  0.34895006370E+02  0.68294736378E+01  0.18134031489E+02  0.39914236530E+02  0.00000000000E+00 0.  1.
         21    1    1    2  506  502 -0.53491226665E+02  0.11493343568E+02 -0.43533755448E+03  0.43876211620E+03  0.00000000000E+00 0.  1.
<scales pt_clust_3="35.78286" pt_clust_4="137.66701" pt_clust_5="35.55704" pt_clust_6="35.78286"></scales>
<clustering>
<clus scale="   35.557">  1  5  2 -1</clus>
<clus scale="   35.783">  3  6 -1 -1</clus>
<clus scale="  137.667">  1  4  2 -1</clus>
<clus scale="   35.557">  1  3  2 -1</clus>
</clustering>
</event>
<event>
 6    0  0.2036847E+002  0.1310288E+03  0.7546771E-02  0.1225937E+00
         21   -1    0    0  504  501  0.00000000000E+00  0.00000000000E+00  0.42737679730E+03  0.42737679730E+03  0.00000000000E+00 0. -1.
         21   -1    0    0  506  502 -0.00000000000E+00 -0.00000000000E+00 -0.13118997800E+04  0.13118997800E+04  0.00000000000E+00 0.  1.
         21    1    1    2  503  501 -0.78114831726E+02  0.62165239850E+02  0.80965326061E+02  0.12853726310E+03  0.00000000000E+00 0.  1.
         21    1    1    2  504  505  0.14546321598E+03 -0.63696082939E+02  0.29899979863E+03  0.33855223787E+03  0.00000000000E+00 0. -1.
         21    1    1    2  505  502  0.26613762033E+02  0.29327445481E+02 -0.27099922139E+03  0.27387765403E+03  0.00000000000E+00 0.  1.
         21    1    1    2  506  503 -0.93962146283E+02 -0.27796602392E+02 -0.99348888602E+03  0.99830942231E+03  0.00000000000E+00 0.  1.
<scales pt_clust_3="14000.00000" pt_clust_4="131.02876" pt_clust_5="39.60292" pt_clust_6="68.46439"></scales>
<clustering>
<clus scale="   39.603">  2  5  1 -1</clus>
<clus scale="   68.464">  2  6  1 -1</clus>
<clus scale="  131.029">  1  4  2 -1</clus>
<clus scale="  131.029">  1  3  2 -1</clus>
</clustering>
</event>
<event>
 6    0  0.2036847E+002  0.1482461E+03  0.7546771E-02  0.1202645E+00
         21   -1    0    0  504  501  0.00000000000E+00  0.00000000000E+00  0.13552852405E+04  0.13552852405E+04  0.00000000000E+00 0.  1.
         21   -1    0    0  501  502 -0.00000000000E+00 -0.00000000000E+00 -0.58842250239E+02  0.58842250239E+02  0.00000000000E+00 0.  1.
         21    1    1    2  503  502 -0.80808547154E+01  0.97018737046E+02  0.46157881525E+02  0.10774268225E+03  0.00000000000E+00 0.  1.
         21    1    1    2  504  506 -0.79789454317E+02 -0.49837644387E+02  0.82077701516E+03  0.82615074680E+03  0.00000000000E+00 0.  1.
         21    1    1    2  505  503  0.35326811511E+02  0.54031112985E+02  0.43776319936E+02  0.77998147215E+02  0.00000000000E+00 0.  1.
         21    1    1    2  506  505  0.52543497521E+02 -0.10121220564E+03  0.38573177367E+03  0.40223591451E+03  0.00000000000E+00 0.  1.
<scales pt_clust_3="43.49553" pt_clust_4="94.07522" pt_clust_5="43.49553" pt_clust_6="138.28890"></scales>
<clustering>
<clus scale="   43.496">  3  5 -1 -1</clus>
<clus scale="   94.075">  1  4  2 -1</clus>
<clus scale="  138.289">  1  6  2 -1</clus>
<clus scale="   94.075">  1  3  2 -1</clus>
</clustering>
</event>
<event>
 6    0  0.2036847E+002  0.1158324E+03  0.7546771E-02  0.1250135E+00
         21   -1    0    0  506  501  0.00000000000E+00  0.00000000000E+00  0.27898658134E+03  0.27898658134E+03  0.00000000000E+00 0. -1.
         21   -1    0    0  504  502 -0.00000000000E+00 -0.00000000000E+00 -0.48123886883E+03  0.48123886883E+03  0.00000000000E+00 0. -1.
         21    1    1    2  503  501 -0.60096669295E+02  0.13174534701E+03  0.55350200110E+02  0.15502287176E+03  0.00000000000E+00 0.  1.
         21    1    1    2  504  503  0.45035865362E+02  0.32384843043E+02 -0.27660149432E+03  0.28210883341E+03  0.00000000000E+00 0. -1.
         21    1    1    2  505  502 -0.67644966814E+02 -0.94807413608E+02 -0.10633152213E+03  0.15770440643E+03  0.00000000000E+00 0. -1.
         21    1    1    2  506  505  0.82705770746E+02 -0.69322776442E+02  0.12533052885E+03  0.16538933856E+03  0.00000000000E+00 0. -1.
<scales pt_clust_3="115.83243" pt_clust_4="55.47078" pt_clust_5="82.94698" pt_clust_6="14000.00000"></scales>
<clustering>
<clus scale="   55.471">  2  4  1 -1</clus>
<clus scale="   82.947">  2  5  1 -1</clus>
<clus scale="  115.832">  2  3  1 -1</clus>
<clus scale="  115.832">  1  3  2 -1</clus>
</clustering>
</event>
<event>
 6    0  0.2036847E+002  0.1650010E+03  0.7546771E-02  0.1183164E+00
         21   -1    0    0  506  501  0.00000000000E+00  0.00000000000E+00  0.12037346329E+03  0.12037346329E+03  0.00000000000E+00 0. -1.
         21   -1    0    0  505  502 -0.00000000000E+00 -0.00000000000E+00 -0.61929681440E+03  0.61929681440E+03  0.00000000000E+00 0.  1.
         21    1    1    2  503  504  0.75459975622E+01  0.72196828214E+02 -0.14285889306E+03  0.16024352533E+03  0.00000000000E+00 0.  1.
         21    1    1    2  504  501  0.35043372787E+02 -0.18863598351E+02  0.13267188226E+02  0.41951061994E+02  0.00000000000E+00 0. -1.
         21    1    1    2  505  503 -0.37120022236E+01  0.80673087029E+02 -0.38834602646E+03  0.39665420986E+03  0.00000000000E+00 0.  1.
         21    1    1    2  506  502 -0.38877368125E+02 -0.13400631689E+03  0.19014380181E+02  0.14082148051E+03  0.00000000000E+00 0. -1.
<scales pt_clust_3="63.87551" pt_clust_4="39.79791" pt_clust_5="63.87551" pt_clust_6="150.50851"></scales>
<clustering>
<clus scale="   39.798">  1  4  2 -1</clus>
<clus scale="   63.876">  3  5 -1 -1</clus>
<clus scale="  150.509">  1  6  2 -1</clus>
<clus scale="   39.798">  1  3  2 -1</clus>
</clustering>
</event>
<event>
 6    0  0.2036847E+002  0.1154843E+03  0.7546771E-02  0.1250738E+00
         21   -1    0    0  503  501  0.00000000000E+00  0.00000000000E+00  0.55688585903E+02  0.55688585903E+02  0.00000000000E+00 0.  1.
         21   -1    0    0  506  502 -0.00000000000E+00 -0.00000000000E+00 -0.65871887543E+03  0.65871887543E+03  0.00000000000E+00 0.  1.
         21    1    1    2  503  504 -0.27477716591E+02 -0.80350717399E+02 -0.24023177126E+03  0.25479907107E+03  0.00000000000E+00 0. -1.
         21    1    1    2  504  502  0.31640772052E+02 -0.39572532399E+02 -0.32500714531E+03  0.32893277167E+03  0.00000000000E+00 0.  1.
         21    1    1    2  505  501 -0.18239762408E+02  0.64810088714E+02 -0.12746873242E+02  0.68523859416E+02  0.00000000000E+00 0.  1.
         21    1    1    2  506  505  0.14076706947E+02  0.55113161084E+02 -0.25044499721E+02  0.62151759182E+02  0.00000000000E+00 0.  1.
<scales pt_clust_3="109.94365" pt_clust_4="50.66679" pt_clust_5="32.48443" pt_clust_6="32.48443"></scales>
<clustering>
<clus scale="   32.484">  5  6 -1 -1</clus>
<clus scale="   50.667">  2  4  1 -1</clus>
<clus scale="  109.944">  2  3  1 -1</clus>
<clus scale="  115.484">  1  3  2 -1</clus>
</clustering>
</event>
<event>
 6    0  0.2036847E+002  0.2626807E+03  0.7546771E-02  0.1105543E+00
         21   -1    0    0  506  501  0.00000000000E+00  0.00000000000E+00  0.78473124954E+03  0.78473124954E+03  0.00000000000E+00 0.  1.
         21   -1    0    0  505  502 -0.00000000000E+00 -0.00000000000E+00 -0.98459333807E+02  0.98459333807E+02  0.00000000000E+00 0.  1.
         21    1    1    2  503  501  0.84362829863E+02 -0.86499401576E+02  0.17606360330E+03  0.21353600620E+03  0.00000000000E+00 0.  1.
         21    1    1    2  504  502 -0.46598839342E+02  0.95807045420E+02  0.74078496478E+02  0.12976157143E+03  0.00000000000E+00 0.  1.
         21    1    1    2  505  503  0.89722508190E+02 -0.99243029691E+02  0.31545482060E+03  0.34265296038E+03  0.00000000000E+00 0. -1.
         21    1    1    2  506  504 -0.12748649871E+03  0.89935385847E+02  0.12067499536E+03  0.19724004534E+03  0.00000000000E+00 0.  1.
<scales pt_clust_3="51.61470" pt_clust_4="53.52332" pt_clust_5="260.29945" pt_clust_6="53.52332"></scales>
<clustering>
<clus scale="   51.615">  3  5 -1 -1</clus>
<clus scale="   53.523">  4  6 -1 -1</clus>
<clus scale="  260.299">  1  3  2 -1</clus>
<clus scale="  260.299">  1  3  2 -1</clus>
</clustering>
</event>
<event>
 6    0  0.2036847E+002  0.1580815E+03  0.7546771E-02  0.1190880E+00
         21   -1    0    0  506  501  0.00000000000E+00  0.00000000000E+00  0.17548322365E+04  0.17548322365E+04  0.00000000000E+00 0. -1.
         21   -1    0    0  504  502 -0.00000000000E+00 -0.00000000000E+00 -0.95134214830E+02  0.95134214830E+02  0.00000000000E+00 0. -1.
         21    1    1    2  503  505  0.46080927050E+01  0.10665976607E+03  0.33860376728E+03  0.35503528195E+03  0.00000000000E+00 0. -1.
         21    1    1    2  504  501 -0.49285655959E+02  0.97180628853E+00  0.20094693784E+03  0.20690503164E+03  0.00000000000E+00 0.  1.
         21    1    1    2  505  502  0.52916001475E+02 -0.16455376897E+03  0.65835153709E+01  0.17297800082E+03  0.00000000000E+00 0. -1.
         21    1    1    2  506  503 -0.82384382206E+01  0.56922196609E+02  0.11135638012E+04  0.11150481369E+04  0.00000000000E+00 0. -1.
<scales pt_clust_3="158.08149" pt_clust_4="49.29524" pt_clust_5="14000.00000" pt_clust_6="72.28690"></scales>
<clustering>
<clus scale="   49.295">  1  4  2 -1</clus>
<clus scale="   72.287">  1  6  2 -1</clus>
<clus scale="  158.081">  1  3  2 -1</clus>
<clus scale="   49.295">  1  3  2 -1</clus>
</clustering>
</event>
<event>
 6    0  0.2036847E+002  0.8772289E+02  0.7546771E-02  0.1308462E+00
         21   -1    0    0  502  501  0.00000000000E+00  0.00000000000E+00  0.15485592092E+04  0.15485592092E+04  0.00000000000E+00 0. -1.
         21   -1    0    0  504  502 -0.00000000000E+00 -0.00000000000E+00 -0.76979596236E+02  0.76979596236E+02  0.00000000000E+00 0.  1.
         21    1    1    2  503  501  0.74664910922E+02  0.27789043744E+02  0.80432511799E+03  0.80826108116E+03  0.00000000000E+00 0. -1.
         21    1    1    2  504  506  0.15973586555E+02  0.28806627518E+02  0.27217459897E+02  0.42728999281E+02  0.00000000000E+00 0.  1.
         21    1    1    2  505  503 -0.43476284327E+02 -0.11196921733E+03  0.68070136626E+03  0.69121750770E+03  0.00000000000E+00 0. -1.
         21    1    1    2  506  505 -0.47162213150E+02  0.55373546064E+02 -0.40664331155E+02  0.83331217327E+02  0.00000000000E+00 0.  1.
<scales pt_clust_3="80.38212" pt_clust_4="32.93899" pt_clust_5="14000.00000" pt_clust_6="87.72289"></scales>
<clustering>
<clus scale="   32.939">  2  4  1 -1</clus>
<clus scale="   80.382">  1  3  2 -1</clus>
<clus scale="   87.723">  2  6  1 -1</clus>
<clus scale="   80.382">  1  3  2 -1</clus>
</clustering>
</event>
<event>
 6    0  0.2036847E+002  0.1339945E+03  0.7546771E-02  0.1221646E+00
         21   -1    0    0  506  501  0.00000000000E+00  0.00000000000E+00  0.13571149476E+03  0.13571149476E+03  0.00000000000E+00 0.  1.
         21   -1    0    0  505  502 -0.00000000000E+00 -0.00000000000E+00 -0.76600764340E+03  0.76600764340E+03  0.00000000000E+00 0. -1.
         21    1    1    2  503  501  0.15216501725E+02 -0.33454130999E+02  0.43215082346E+01  0.37005354195E+02  0.00000000000E+00 0. -1.
         21    1    1    2  504  502 -0.14476836683E+02  0.28285507709E+02 -0.14723795047E+03  0.15062756323E+03  0.00000000000E+00 0. -1.
         21    1    1    2  505  503  0.10161648355E+03 -0.71897453037E+01  0.84889489656E+02  0.13260402565E+03  0.00000000000E+00 0.  1.
         21    1    1    2  506  504 -0.10235614859E+03  0.12358368594E+02 -0.57226919606E+03  0.58148219507E+03  0.00000000000E+00 0. -1.
<scales pt_clust_3="36.75215" pt_clust_4="30.36801" pt_clust_5="122.32022" pt_clust_6="30.36801"></scales>
<clustering>
<clus scale="   30.368">  4  6 -1 -1</clus>
<clus scale="   36.752">  1  3  2 -1</clus>
<clus scale="  122.320">  1  5  2 -1</clus>
<clus scale="   36.752">  1  3  2 -1</clus>
</clustering>
</event>
<event>
 6    0  0.2036847E+002  0.1688118E+03  0.7546771E-02  0.1179093E+00
         21   -1    0    0  504  501  0.00000000000E+00  0.00000000000E+00  0.27877836249E+03  0.27877836249E+03  0.00000000000E+00 0.  1.
         21   -1    0    0  503  502 -0.00000000000E+00 -0.00000000000E+00 -0.35183538693E+03  0.35183538693E+03  0.00000000000E+00 0.  1.
         21    1    1    2  503  506  0.13429479533E+03  0.10293622657E+03 -0.24005414890E+03  0.29369534078E+03  0.00000000000E+00 0.  1.
         21    1    1    2  504  505  0.89145835253E+01 -0.71731440383E+02  0.84969106656E+02  0.11155545000E+03  0.00000000000E+00 0.  1.
         21    1    1    2  505  502 -0.16753321893E+03 -0.52732703903E+02  0.79474361753E+02  0.19278042349E+03  0.00000000000E+00 0.  1.
         21    1    1    2  506  501  0.24323840076E+02  0.21527917719E+02  0.25536560466E+01  0.32582535146E+02  0.00000000000E+00 0.  1.
<scales pt_clust_3="168.81178" pt_clust_4="66.14756" pt_clust_5="14000.00000" pt_clust_6="32.48231"></scales>
<clustering>
<clus scale="   32.482">  1  6  2 -1</clus>
<clus scale="   66.148">  1  4  2 -1</clus>
<clus scale="  168.812">  2  3  1 -1</clus>
<clus scale="   32.482">  1  3  2 -1</clus>
</clustering>
</event>
<event>
 6    0  0.2036847E+002  0.1263813E+03  0.7546771E-02  0.1232926E+00
         21   -1    0    0  506  501  0.00000000000E+00  0.00000000000E+00  0.13876932675E+03  0.13876932675E+03  0.00000000000E+00 0.  1.
         21   -1    0    0  505  502 -0.00000000000E+00 -0.00000000000E+00 -0.61477009943E+03  0.61477009943E+03  0.00000000000E+00 0. -1.
         21    1    1    2  503  504 -0.12606326034E+02 -0.13354470571E+03 -0.27531358024E+02  0.13693459590E+03  0.00000000000E+00 0.  1.
         21    1    1    2  504  501 -0.10589183319E+03  0.67896961627E+02  0.38393141761E+01  0.12584839319E+03  0.00000000000E+00 0.  1.
         21    1    1    2  505  503  0.98494615185E+02  0.96670304441E+02 -0.25428716388E+03  0.28932386471E+03  0.00000000000E+00 0. -1.
         21    1    1    2  506  502  0.20003544037E+02 -0.31022560358E+02 -0.19802156496E+03  0.20143257238E+03  0.00000000000E+00 0.  1.
<scales pt_clust_3="126.38135" pt_clust_4="120.87446" pt_clust_5="14000.00000" pt_clust_6="36.91261"></scales>
<clustering>
<clus scale="   36.913">  2  6  1 -1</clus>
<clus scale="  120.874">  1  4  2 -1</clus>
<clus scale="  126.381">  1  3  2 -1</clus>
<clus scale="  120.874">  1  3  2 -1</clus>
</clustering>
</event>
<event>
 6    0  0.2036847E+002  0.1267003E+03  0.7546771E-02  0.1232436E+00
         21   -1    0    0  505  501  0.00000000000E+00  0.00000000000E+00  0.19804578575E+03  0.19804578575E+03  0.00000000000E+00 0.  1.
         21   -1    0    0  506  502 -0.00000000000E+00 -0.00000000000E+00 -0.16358009931E+03  0.16358009931E+03  0.00000000000E+00 0.  1.
         21    1    1    2  503  502  0.77756699290E+02  0.77649431507E+02 -0.78900987396E+02  0.13528083497E+03  0.00000000000E+00 0.  1.
         21    1    1    2  504  503 -0.16802759326E+02 -0.55149177285E+02  0.24594375648E+02  0.62678926201E+02  0.00000000000E+00 0. -1.
         21    1    1    2  505  504 -0.78849565282E+02 -0.57855805153E+02  0.65591063295E+02  0.11775710475E+03  0.00000000000E+00 0.  1.
         21    1    1    2  506  501  0.17895625318E+02  0.35355550931E+02  0.23181234896E+02  0.45909019141E+02  0.00000000000E+00 0. -1.
<scales pt_clust_3="116.39898" pt_clust_4="38.42206" pt_clust_5="38.42206" pt_clust_6="39.62661"></scales>
<clustering>
<clus scale="   38.422">  4  5 -1 -1</clus>
<clus scale="   39.627">  1  6  2 -1</clus>
<clus scale="  116.399">  2  3  1 -1</clus>
<clus scale="   39.627">  1  3  2 -1</clus>
</clustering>
</event>
<event>
 6    0  0.2036847E+002  0.1035138E+03  0.7546771E-02  0.1273076E+00
         21   -1    0    0  504  501  0.00000000000E+00  0.00000000000E+00  0.61874533671E+03  0.61874533671E+03  0.00000000000E+00 0. -1.
         21   -1    0    0  506  502 -0.00000000000E+00 -0.00000000000E+00 -0.33268758129E+03  0.33268758129E+03  0.00000000000E+00 0. -1.
         21    1    1    2  503  501 -0.85915220275E+02  0.45053766677E+01  0.55848772101E+03  0.56507544453E+03  0.00000000000E+00 0. -1.
         21    1    1    2  504  505 -0.13060049381E+02  0.31272256230E+02  0.35157447167E+02  0.48832007852E+02  0.00000000000E+00 0. -1.
         21    1    1    2  505  502  0.92725940355E+02  0.88811286764E+01 -0.19050289075E+03  0.21205736452E+03  0.00000000000E+00 0. -1.
         21    1    1    2  506  503  0.62493293008E+01 -0.44658761574E+02 -0.11708452200E+03  0.12546810110E+03  0.00000000000E+00 0. -1.
<scales pt_clust_3="14000.00000" pt_clust_4="33.88981" pt_clust_5="103.51379" pt_clust_6="44.85569"></scales>
<clustering>
<clus scale="   33.890">  1  4  2 -1</clus>
<clus scale="   44.856">  2  6  1 -1</clus>
<clus scale="  103.514">  2  5  1 -1</clus>
<clus scale="   33.890">  1  3  2 -1</clus>
</clustering>
</event>
<event>
 6    0  0.2036847E+002  0.1545295E+03  0.7546771E-02  0.1195015E+00
         21   -1    0    0  505  501  0.00000000000E+00  0.00000000000E+00  0.60002478890E+03  0.60002478890E+03  0.00000000000E+00 0. -1.
         21   -1    0    0  506  502 -0.00000000000E+00 -0.00000000000E+00 -0.30006511512E+03  0.30006511512E+03  0.00000000000E+00 0.  1.
         21    1    1    2  503  504 -0.26592135608E+02 -0.71085608436E+02  0.22495855567E+03  0.23741663205E+03  0.00000000000E+00 0. -1.
         21    1    1    2  504  502 -0.49734953570E+02  0.63041460440E+01 -0.67084567128E+02  0.83747519430E+02  0.00000000000E+00 0. -1.
         21    1    1    2  505  503 -0.54017757926E+02 -0.52530803680E+02  0.32021570945E+03  0.32896125013E+03  0.00000000000E+00 0. -1.
         21    1    1    2  506  501  0.13034484710E+03  0.11731226607E+03 -0.17813002422E+03  0.24996450241E+03  0.00000000000E+00 0.  1.
<scales pt_clust_3="42.15479" pt_clust_4="50.13290" pt_clust_5="42.15479" pt_clust_6="148.62510"></scales>
<clustering>
<clus scale="   42.155">  3  5 -1 -1</clus>
<clus scale="   50.133">  2  4  1 -1</clus>
<clus scale="  148.625">  2  6  1 -1</clus>
<clus scale="  154.530">  1  3  2 -1</clus>
</clustering>
</event>
<event>
 6    0  0.2036847E+002  0.2174983E+03  0.7546771E-02  0.1135762E+00
         21   -1    0    0  504  501  0.00000000000E+00  0.00000000000E+00  0.63554789647E+02  0.63554789647E+02  0.00000000000E+00 0. -1.
         21   -1    0    0  501  502 -0.00000000000E+00 -0.00000000000E+00 -0.96583584695E+03  0.96583584695E+03  0.00000000000E+00 0. -1.
         21    1    1    2  503  502  0.30532629725E+02 -0.32229868967E+02 -0.20433150917E+03  0.20909895163E+03  0.00000000000E+00 0. -1.
         21    1    1    2  504  505 -0.66756147850E+02 -0.97162682886E+01 -0.15219937485E+03  0.16647954484E+03  0.00000000000E+00 0. -1.
         21    1    1    2  505  506 -0.14732136031E+03 -0.45765447316E+02 -0.19895336980E+03  0.25175484648E+03  0.00000000000E+00 0. -1.
         21    1    1    2  506  503  0.18354487844E+03  0.87711584571E+02 -0.34679680348E+03  0.40205729364E+03  0.00000000000E+00 0. -1.
<scales pt_clust_3="44.39601" pt_clust_4="34.38889" pt_clust_5="34.38889" pt_clust_6="211.18990"></scales>
<clustering>
<clus scale="   34.389">  4  5 -1 -1</clus>
<clus scale="   44.396">  2  3  1 -1</clus>
<clus scale="  211.190">  2  6  1 -1</clus>
<clus scale="  217.498">  1  3  2 -1</clus>
</clustering>
</event>
<event>
 6    0  0.2036847E+002  0.1904789E+03  0.7546771E-02  0.1158030E+00
         21   -1    0    0  504  501  0.00000000000E+00  0.00000000000E+00  0.15673405781E+04  0.15673405781E+04  0.00000000000E+00 0. -1.
         21   -1    0    0  505  502 -0.00000000000E+00 -0.00000000000E+00 -0.29091214825E+03  0.29091214825E+03  0.00000000000E+00 0. -1.
         21    1    1    2  503  501  0.93759528952E+02  0.64415236152E+02  0.75177644011E+03  0.76033412906E+03  0.00000000000E+00 0. -1.
         21    1    1    2  504  502 -0.13199667070E+03  0.35930854256E+01 -0.13639938314E+03  0.18984420734E+03  0.00000000000E+00 0. -1.
         21    1    1    2  505  506 -0.35885536598E+02 -0.73333318188E+02 -0.10803023848E+03  0.13541078140E+03  0.00000000000E+00 0. -1.
         21    1    1    2  506  503  0.74122678351E+02  0.53249966105E+01  0.76908161138E+03  0.77266360856E+03  0.00000000000E+00 0. -1.
<scales pt_clust_3="51.27634" pt_clust_4="179.60371" pt_clust_5="81.64280" pt_clust_6="51.27634"></scales>
<clustering>
<clus scale="   51.276">  3  6 -1 -1</clus>
<clus scale="   81.643">  2  5  1 -1</clus>
<clus scale="  179.604">  2  4  1 -1</clus>
<clus scale="  190.479">  1  3  2 -1</clus>
</clustering>
</event>
<event>
 6    0  0.2036847E+002  0.3286058E+03  0.7546771E-02  0.1071755E+00
         21   -1    0    0  505  501  0.00000000000E+00  0.00000000000E+00  0.56816205095E+03  0.56816205095E+03  0.00000000000E+00 0.  1.
         21   -1    0    0  503  502 -0.00000000000E+00 -0.00000000000E+00 -0.18727572429E+03  0.18727572429E+03  0.00000000000E+00 0.  1.
         21    1    1    2  503  504 -0.72827665906E+02  0.57960489336E+02  0.66607605589E+01  0.93314805774E+02  0.00000000000E+00 0.  1.
         21    1    1    2  504  501 -0.21963226596E+03  0.58290366847E+02  0.13684603528E+03  0.26526012985E+03  0.00000000000E+00 0.  1.
         21    1    1    2  505  506  0.17556794685E+03 -0.45892380177E+02  0.12961074876E+03  0.22300036035E+03  0.00000000000E+00 0.  1.
         21    1    1    2  506  502  0.11689198502E+03 -0.70358476007E+02  0.10776878207E+03  0.17386247926E+03  0.00000000000E+00 0.  1.
<scales pt_clust_3="60.49543" pt_clust_4="60.49543" pt_clust_5="318.04256" pt_clust_6="39.77263"></scales>
<clustering>
<clus scale="   39.773">  5  6 -1 -1</clus>
<clus scale="   60.495">  3  4 -1 -1</clus>
<clus scale="  318.043">  1  5  2 -1</clus>
<clus scale="  318.043">  1  3  2 -1</clus>
</clustering>
</event>
<event>
 6    0  0.2036847E+002  0.9908131E+02  0.7546771E-02  0.1282240E+00
         21   -1    0    0  503  501  0.00000000000E+00  0.00000000000E+00  0.30759862819E+03  0.30759862819E+03  0.00000000000E+00 0.  1.
         21   -1    0    0  505  502 -0.00000000000E+00 -0.00000000000E+00 -0.94632540446E+02  0.94632540446E+02  0.00000000000E+00 0.  1.
         21    1    1    2  503  506 -0.55124941733E+02  0.10000420329E+03  0.74843999669E+02  0.13653286844E+03  0.00000000000E+00 0.  1.
         21    1    1    2  504  501 -0.10354660429E+02 -0.75497732959E+02  0.75166592756E+02  0.10703804623E+03  0.00000000000E+00 0.  1.
         21    1    1    2  505  504  0.73948488392E+02 -0.57866471846E+02  0.77053473490E+02  0.12146664265E+03  0.00000000000E+00 0.  1.
         21    1    1    2  506  502 -0.84688862303E+01  0.33360001512E+02 -0.14097978167E+02  0.37193611324E+02  0.00000000000E+00 0.  1.
<scales pt_clust_3="99.08131" pt_clust_4="68.90044" pt_clust_5="14000.00000" pt_clust_6="34.41819"></scales>
<clustering>
<clus scale="   34.418">  2  6  1 -1</clus>
<clus scale="   68.900">  1  4  2 -1</clus>
<clus scale="   99.081">  1  3  2 -1</clus>
<clus scale="   68.900">  1  3  2 -1</clus>
</clustering>
</event>
<event>
 6    0  0.2036847E+002  0.1144436E+03  0.7546771E-02  0.1252555E+00
         21   -1    0    0  503  501  0.00000000000E+00  0.00000000000E+00  0.15877564123E+03  0.15877564123E+03  0.00000000000E+00 0.  1.
         21   -1    0    0  506  502 -0.00000000000E+00 -0.00000000000E+00 -0.11248361973E+04  0.11248361973E+04  0.00000000000E+00 0. -1.
         21    1    1    2  503  504 -0.39079323397E+02  0.46432086771E+02  0.52741497061E+02  0.80403965768E+02  0.00000000000E+00 0.  1.
         21    1    1    2  504  502 -0.44140010452E+02 -0.28750148066E+02 -0.20625094708E+03  0.21287170950E+03  0.00000000000E+00 0. -1.
         21    1    1    2  505  501 -0.75969527790E+02 -0.25394016811E+02  0.62055658974E+02  0.10132684764E+03  0.00000000000E+00 0.  1.
         21    1    1    2  506  505  0.15918886164E+03  0.77120781058E+01 -0.87460676504E+03  0.88900931563E+03  0.00000000000E+00 0. -1.
<scales pt_clust_3="60.79107" pt_clust_4="52.67743" pt_clust_5="14000.00000" pt_clust_6="114.44361"></scales>
<clustering>
<clus scale="   52.677">  2  4  1 -1</clus>
<clus scale="   60.791">  1  3  2 -1</clus>
<clus scale="  114.444">  2  6  1 -1</clus>
<clus scale="   60.791">  1  3  2 -1</clus>
</clustering>
</event>
<event>
 6    0  0.2036847E+002  0.1180330E+03  0.7546771E-02  0.1246378E+00
         21   -1    0    0  504  501  0.00000000000E+00  0.00000000000E+00  0.62245526425E+02  0.62245526425E+02  0.00000000000E+00 0.  1.
         21   -1    0    0  503  502 -0.00000000000E+00 -0.00000000000E+00 -0.10006140706E+04  0.10006140706E+04  0.00000000000E+00 0. -1.
         21    1    1    2  503  501  0.13302910438E+03 -0.40754407905E+02 -0.68517408885E+02  0.15508803854E+03  0.00000000000E+00 0.  1.
         21    1    1    2  504  505 -0.57664275538E+01  0.37238945719E+02 -0.19437843365E+02  0.42400713669E+02  0.00000000000E+00 0.  1.
         21    1    1    2  505  506 -0.74649624506E+02 -0.44721918056E+02 -0.53062349167E+03  0.53771173161E+03  0.00000000000E+00 0. -1.
         21    1    1    2  506  502 -0.52613052322E+02  0.48237380242E+02 -0.31978980027E+03  0.32765911323E+03  0.00000000000E+00 0. -1.
<scales pt_clust_3="118.03296" pt_clust_4="37.68276" pt_clust_5="14000.00000" pt_clust_6="73.68174"></scales>
<clustering>
<clus scale="   37.683">  1  4  2 -1</clus>
<clus scale="   73.682">  2  6  1 -1</clus>
<clus scale="  118.033">  1  3  2 -1</clus>
<clus scale="   37.683">  1  3  2 -1</clus>
</clustering>
</event>
<event>
 6    0  0.2036847E+002  0.1735168E+03  0.7546771E-02  0.1174229E+00
         21   -1    0    0  505  501  0.00000000000E+00  0.00000000000E+00  0.90637992750E+03  0.90637992750E+03  0.00000000000E+00 0.  1.
         21   -1    0    0  506  502 -0.00000000000E+00 -0.00000000000E+00 -0.77995600649E+02  0.77995600649E+02  0.00000000000E+00 0.  1.
         21    1    1    2  503  501  0.11808686915E+02 -0.66393231787E+02 -0.11242834223E+02  0.68365983026E+02  0.00000000000E+00 0.  1.
         21    1    1    2  504  502 -0.54936483608E+02  0.75082873319E+02  0.53951921686E+03  0.54748190880E+03  0.00000000000E+00 0.  1.
         21    1    1    2  505  504 -0.25530147018E+02  0.60557201184E+02  0.25077765013E+03  0.25924581545E+03  0.00000000000E+00 0.  1.
         21    1    1    2  506  503  0.68657943710E+02 -0.69246842717E+02  0.49330294087E+02  0.10928182088E+03  0.00000000000E+00 0.  1.
<scales pt_clust_3="60.16815" pt_clust_4="161.98914" pt_clust_5="31.07894" pt_clust_6="60.16815"></scales>
<clustering>
<clus scale="   31.079">  4  5 -1 -1</clus>
<clus scale="   60.168">  3  6 -1 -1</clus>
<clus scale="  161.989">  1  4  2 -1</clus>
<clus scale="  161.989">  1  3  2 -1</clus>
</clustering>
</event>
<event>
 6    0  0.2036847E+002  0.2203965E+03  0.7546771E-02  0.1133588E+00
         21   -1    0    0  503  501  0.00000000000E+00  0.00000000000E+00  0.31395565174E+03  0.31395565174E+03  0.00000000000E+00 0. -1.
         21   -1    0    0  506  502 -0.00000000000E+00 -0.00000000000E+00 -0.49230136073E+03  0.49230136073E+03  0.00000000000E+00 0.  1.
         21    1    1    2  503  504  0.11477260342E+03 -0.10021817026E+02  0.16056738316E+03  0.19762356097E+03  0.00000000000E+00 0. -1.
         21    1    1    2  504  502  0.20936295170E+02  0.16657064895E+03  0.31172959072E+02  0.17075087972E+03  0.00000000000E+00 0. -1.
         21    1    1    2  505  501 -0.45407671321E+02 -0.11712502361E+03 -0.14298849393E+03  0.19033086236E+03  0.00000000000E+00 0.  1.
         21    1    1    2  506  505 -0.90301227274E+02 -0.39423808314E+02 -0.22709755729E+03  0.24755170942E+03  0.00000000000E+00 0.  1.
<scales pt_clust_3="115.20932" pt_clust_4="191.62886" pt_clust_5="96.42185" pt_clust_6="96.42185"></scales>
<clustering>
<clus scale="   96.422">  5  6 -1 -1</clus>
<clus scale="  115.209">  1  3  2 -1</clus>
<clus scale="  191.629">  1  4  2 -1</clus>
<clus scale="  115.209">  1  3  2 -1</clus>
</clustering>
</event>
<event>
 6    0  0.2036847E+002  0.1167538E+03  0.7546771E-02  0.1248550E+00
         21   -1    0    0  506  501  0.00000000000E+00  0.00000000000E+00  0.26100065732E+02  0.26100065732E+02  0.00000000000E+00 0. -1.
         21   -1    0    0  505  502 -0.00000000000E+00 -0.00000000000E+00 -0.15687270319E+04  0.15687270319E+04  0.00000000000E+00 0. -1.
         21    1    1    2  503  504  0.44307335322E+02 -0.17859553054E+02 -0.73121862246E+02  0.87343633637E+02  0.00000000000E+00 0. -1.
         21    1    1    2  504  501  0.23206930643E+02 -0.60057371689E+02 -0.55667922508E+02  0.85113847994E+02  0.00000000000E+00 0. -1.
         21    1    1    2  505  503  0.30347239505E+02  0.15510203806E+00 -0.24742047076E+03  0.24927468454E+03  0.00000000000E+00 0. -1.
         21    1    1    2  506  502 -0.97861505470E+02  0.77761822705E+02 -0.11664167107E+04  0.11730949315E+04  0.00000000000E+00 0. -1.
<scales pt_clust_3="43.85537" pt_clust_4="43.85537" pt_clust_5="30.34764" pt_clust_6="105.38456"></scales>
<clustering>
<clus scale="   30.348">  2  5  1 -1</clus>
<clus scale="   43.855">  3  4 -1 -1</clus>
<clus scale="  105.385">  2  6  1 -1</clus>
<clus scale="  116.754">  1  3  2 -1</clus>
</clustering>
</event>
<event>
 6    0  0.2036847E+002  0.1622766E+03  0.7546771E-02  0.1186150E+00
         21   -1    0    0  506  501  0.00000000000E+00  0.00000000000E+00  0.16858732912E+04  0.16858732912E+04  0.00000000000E+00 0. -1.
         21   -1    0    0  504  502 -0.00000000000E+00 -0.00000000000E+00 -0.45200700055E+03  0.45200700055E+03  0.00000000000E+00 0.  1.
         21    1    1    2  503  501 -0.72482422310E+02  0.14503656166E+03  0.15707807507E+04  0.15791268070E+04  0.00000000000E+00 0. -1.
         21    1    1    2  504  503  0.11525493316E+03 -0.12594145799E+03  0.34903079531E+02  0.17425032401E+03  0.00000000000E+00 0.  1.
         21    1    1    2  505  502 -0.97799024123E+01 -0.29712608089E+02 -0.32367189693E+03  0.32517992317E+03  0.00000000000E+00 0.  1.
         21    1    1    2  506  505 -0.32992608441E+02  0.10617504411E+02 -0.48145642642E+02  0.59323237580E+02  0.00000000000E+00 0.  1.
<scales pt_clust_3="162.27660" pt_clust_4="14000.00000" pt_clust_5="31.28075" pt_clust_6="37.16014"></scales>
<clustering>
<clus scale="   31.281">  2  5  1 -1</clus>
<clus scale="   37.160">  2  6  1 -1</clus>
<clus scale="  162.277">  1  3  2 -1</clus>
<clus scale="  162.277">  1  3  2 -1</clus>
</clustering>
</event>
<event>
 6    0  0.2036847E+002  0.1230636E+03  0.7546771E-02  0.1238127E+00
         21   -1    0    0  503  501  0.00000000000E+00  0.00000000000E+00  0.96385993945E+02  0.96385993945E+02  0.00000000000E+00 0. -1.
         21   -1    0    0  506  502 -0.00000000000E+00 -0.00000000000E+00 -0.64732353734E+03  0.64732353734E+03  0.00000000000E+00 0.  1.
         21    1    1    2  503  505  0.10519083510E+02 -0.10064885090E+03  0.30682521980E+02  0.10574620306E+03  0.00000000000E+00 0. -1.
         21    1    1    2  504  502  0.92219279265E+01  0.30950314891E+02 -0.21862794264E+03  0.22100032410E+03  0.00000000000E+00 0. -1.
         21    1    1    2  505  504 -0.50968307402E+02  0.73250859300E+02 -0.37335368551E+03  0.38387033127E+03  0.00000000000E+00 0.  1.
         21    1    1    2  506  501  0.31227295966E+02 -0.35523232872E+01  0.10361562774E+02  0.33092672862E+02  0.00000000000E+00 0. -1.
<scales pt_clust_3="110.99119" pt_clust_4="32.28560" pt_clust_5="32.28560" pt_clust_6="31.42870"></scales>
<clustering>
<clus scale="   31.429">  1  6  2 -1</clus>
<clus scale="   32.286">  4  5 -1 -1</clus>
<clus scale="  110.991">  1  3  2 -1</clus>
<clus scale="   31.429">  1  3  2 -1</clus>
</clustering>
</event>
<event>
 6    0  0.2036847E+002  0.1193771E+03  0.7546771E-02  0.1244128E+00
         21   -1    0    0  506  501  0.00000000000E+00  0.00000000000E+00  0.14489737667E+03  0.14489737667E+03  0.00000000000E+00 0.  1.
         21   -1    0    0  503  502 -0.00000000000E+00 -0.00000000000E+00 -0.75404940832E+03  0.75404940832E+03  0.00000000000E+00 0.  1.
         21    1    1    2  503  501  0.92128286982E+02 -0.27408394088E+02 -0.50244098883E+03  0.51155233220E+03  0.00000000000E+00 0.  1.
         21    1    1    2  504  505 -0.10056497171E+03  0.18733057333E+02 -0.21587708944E+02  0.10454793231E+03  0.00000000000E+00 0.  1.
         21    1    1    2  505  502  0.88950693630E+01 -0.67590564228E+02 -0.16126145397E+03  0.17507959095E+03  0.00000000000E+00 0.  1.
         21    1    1    2  506  504 -0.45838463251E+00  0.76265900983E+02  0.76138120083E+02  0.10776692952E+03  0.00000000000E+00 0.  1.
<scales pt_clust_3="119.37713" pt_clust_4="14000.00000" pt_clust_5="68.17336" pt_clust_6="74.44177"></scales>
<clustering>
<clus scale="   68.173">  2  5  1 -1</clus>
<clus scale="   74.442">  1  6  2 -1</clus>
<clus scale="  119.377">  2  3  1 -1</clus>
<clus scale="   74.442">  1  3  2 -1</clus>
</clustering>
</event>
<event>
 6    0  0.2036847E+002  0.2294704E+03  0.7546771E-02  0.1127013E+00
         21   -1    0    0  506  501  0.00000000000E+00  0.00000000000E+00  0.79508656955E+02  0.79508656955E+02  0.00000000000E+00 0.  1.
         21   -1    0    0  504  502 -0.00000000000E+00 -0.00000000000E+00 -0.15680179207E+04  0.15680179207E+04  0.00000000000E+00 0. -1.
         21    1    1    2  503  502 -0.99267664577E+02  0.43952029449E+02 -0.66155834069E+03  0.67040680803E+03  0.00000000000E+00 0.  1.
         21    1    1    2  504  501  0.10728174082E+03  0.74240903443E+02 -0.12543257225E+03  0.18098180527E+03  0.00000000000E+00 0.  1.
         21    1    1    2  505  503 -0.12414337700E+03  0.40667717025E+02 -0.49052852242E+03  0.50762552395E+03  0.00000000000E+00 0. -1.
         21    1    1    2  506  505  0.11612930075E+03 -0.15886064992E+03 -0.21098982842E+03  0.28851244043E+03  0.00000000000E+00 0.  1.
<scales pt_clust_3="53.02301" pt_clust_4="130.46488" pt_clust_5="53.02301" pt_clust_6="221.97661"></scales>
<clustering>
<clus scale="   53.023">  3  5 -1 -1</clus>
<clus scale="  130.465">  1  4  2 -1</clus>
<clus scale="  221.977">  1  6  2 -1</clus>
<clus scale="  130.465">  1  3  2 -1</clus>
</clustering>
</event>
<event>
 6    0  0.2036847E+002  0.1174974E+03  0.7546771E-02  0.1247284E+00
         21   -1    0    0  506  501  0.00000000000E+00  0.00000000000E+00  0.95928120996E+03  0.95928120996E+03  0.00000000000E+00 0. -1.
         21   -1    0    0  504  502 -0.00000000000E+00 -0.00000000000E+00 -0.10567308568E+03  0.10567308568E+03  0.00000000000E+00 0. -1.
         21    1    1    2  503  505 -0.53519768408E+02  0.37879924875E+02  0.37731961696E+03  0.38297434334E+03  0.00000000000E+00 0. -1.
         21    1    1    2  504  501  0.10275765761E+03 -0.96008763875E+02  0.49109604169E+01  0.14071580036E+03  0.00000000000E+00 0. -1.
         21    1    1    2  505  502 -0.46840998500E+01  0.49052003377E+02 -0.15971253779E+02  0.51798849157E+02  0.00000000000E+00 0.  1.
         21    1    1    2  506  503 -0.44553789352E+02  0.90768356229E+01  0.48734880069E+03  0.48946530278E+03  0.00000000000E+00 0. -1.
<scales pt_clust_3="34.09257" pt_clust_4="110.13421" pt_clust_5="49.27514" pt_clust_6="34.09257"></scales>
<clustering>
<clus scale="   34.093">  3  6 -1 -1</clus>
<clus scale="   49.275">  2  5  1 -1</clus>
<clus scale="  110.134">  2  4  1 -1</clus>
<clus scale="  117.497">  1  3  2 -1</clus>
</clustering>
</event>
<event>
 6    0  0.2036847E+002  0.1292322E+03  0.7546771E-02  0.1228600E+00
         21   -1    0    0  503  501  0.00000000000E+00  0.00000000000E+00  0.19105555062E+03  0.19105555062E+03  0.00000000000E+00 0. -1.
         21   -1    0    0  506  502 -0.00000000000E+00 -0.00000000000E+00 -0.65619206554E+03  0.65619206554E+03  0.00000000000E+00 0.  1.
         21    1    1    2  503  504  0.66868617915E+02  0.33276898514E+02  0.15318865324E+03  0.17042748463E+03  0.00000000000E+00 0. -1.
         21    1    1    2  504  505 -0.68108509244E+02 -0.59025009020E+02 -0.40962330237E+03  0.41942099443E+03  0.00000000000E+00 0.  1.
         21    1    1    2  505  502 -0.40030752533E+02 -0.41397723216E+02 -0.14514126166E+03  0.15614806586E+03  0.00000000000E+00 0.  1.
         21    1    1    2  506  501  0.41270643862E+02  0.67145833722E+02 -0.63560604121E+02  0.10125107124E+03  0.00000000000E+00 0. -1.
<scales pt_clust_3="74.69112" pt_clust_4="33.31657" pt_clust_5="33.31657" pt_clust_6="122.32642"></scales>
<clustering>
<clus scale="   33.317">  4  5 -1 -1</clus>
<clus scale="   74.691">  1  3  2 -1</clus>
<clus scale="  122.326">  1  6  2 -1</clus>
<clus scale="   74.691">  1  3  2 -1</clus>
</clustering>
</event>
<event>
 6    0  0.2036847E+002  0.1577762E+03  0.7546771E-02  0.1191231E+00
         21   -1    0    0  504  501  0.00000000000E+00  0.00000000000E+00  0.10743058886E+03  0.10743058886E+03  0.00000000000E+00 0.  1.
         21   -1    0    0  506  502 -0.00000000000E+00 -0.00000000000E+00 -0.27181235208E+04  0.27181235208E+04  0.00000000000E+00 0. -1.
         21    1    1    2  503  505 -0.11592198181E+03  0.74821112832E+02 -0.73522676976E+02  0.15633837924E+03  0.00000000000E+00 0. -1.
         21    1    1    2  504  503  0.68891681808E+02  0.80645740539E+02  0.16836276703E+02  0.10739301422E+03  0.00000000000E+00 0.  1.
         21    1    1    2  505  502  0.16147553411E+02 -0.16628171056E+03 -0.20938945853E+04  0.21005487105E+04  0.00000000000E+00 0. -1.
         21    1    1    2  506  501  0.30882746595E+02  0.10814857188E+02 -0.46011194630E+03  0.46127400567E+03  0.00000000000E+00 0. -1.
<scales pt_clust_3="14000.00000" pt_clust_4="106.63285" pt_clust_5="157.77619" pt_clust_6="32.72163"></scales>
<clustering>
<clus scale="   32.722">  2  6  1 -1</clus>
<clus scale="  106.633">  1  4  2 -1</clus>
<clus scale="  157.776">  2  5  1 -1</clus>
<clus scale="  106.633">  1  3  2 -1</clus>
</clustering>
</event>
<event>
 6    0  0.2036847E+002  0.8638266E+02  0.7546771E-02  0.1311856E+00
         21   -1    0    0  505  501  0.00000000000E+00  0.00000000000E+00  0.17922044233E+03  0.17922044233E+03  0.00000000000E+00 0.  1.
         21   -1    0    0  503  502 -0.00000000000E+00 -0.00000000000E+00 -0.13367403990E+04  0.13367403990E+04  0.00000000000E+00 0.  1.
         21    1    1    2  503  504  0.38475450650E+02 -0.58209420277E+02 -0.99302746706E+03  0.99547588984E+03  0.00000000000E+00 0.  1.
         21    1    1    2  504  506 -0.86617287102E+02  0.41110909991E+02  0.10779002999E+03  0.14426140132E+03  0.00000000000E+00 0.  1.
         21    1    1    2  505  502  0.51172537652E+02  0.60661828459E+02 -0.30908737974E+03  0.31911360729E+03  0.00000000000E+00 0. -1.
         21    1    1    2  506  501 -0.30307011992E+01 -0.43563318173E+02  0.36804860173E+02  0.57109942850E+02  0.00000000000E+00 0.  1.
<scales pt_clust_3="70.09739" pt_clust_4="14000.00000" pt_clust_5="86.38266" pt_clust_6="43.66861"></scales>
<clustering>
<clus scale="   43.669">  1  6  2 -1</clus>
<clus scale="   70.097">  2  3  1 -1</clus>
<clus scale="   86.383">  2  5  1 -1</clus>
<clus scale="   43.669">  1  3  2 -1</clus>
</clustering>
</event>
<event>
 6    0  0.2036847E+002  0.7443722E+02  0.7546771E-02  0.1345623E+00
         21   -1    0    0  505  501  0.00000000000E+00  0.00000000000E+00  0.21055840695E+03  0.21055840695E+03  0.00000000000E+00 0. -1.
         21   -1    0    0  506  502 -0.00000000000E+00 -0.00000000000E+00 -0.12464993790E+04  0.12464993790E+04  0.00000000000E+00 0.  1.
         21    1    1    2  503  502 -0.68372468723E+02 -0.70009246190E+02 -0.11103620977E+04  0.11146659038E+04  0.00000000000E+00 0.  1.
         21    1    1    2  504  501 -0.28484882247E+02  0.55761800387E+02  0.83089730838E+02  0.10404167564E+03  0.00000000000E+00 0. -1.
         21    1    1    2  505  503  0.54619056020E+02  0.15662900386E+02  0.10372778202E+03  0.11827096217E+03  0.00000000000E+00 0. -1.
         21    1    1    2  506  504  0.42238294950E+02 -0.14154545834E+01 -0.11239638727E+03  0.12007924443E+03  0.00000000000E+00 0. -1.
<scales pt_clust_3="14000.00000" pt_clust_4="74.43722" pt_clust_5="57.07925" pt_clust_6="42.26201"></scales>
<clustering>
<clus scale="   42.262">  2  6  1 -1</clus>
<clus scale="   57.079">  1  5  2 -1</clus>
<clus scale="   74.437">  1  4  2 -1</clus>
<clus scale="   57.079">  1  3  2 -1</clus>
</clustering>
</event>
<event>
 6    0  0.2036847E+002  0.1854129E+03  0.7546771E-02  0.1162665E+00
         21   -1    0    0  504  501  0.00000000000E+00  0.00000000000E+00  0.48865330981E+03  0.48865330981E+03  0.00000000000E+00 0.  1.
         21   -1    0    0  505  502 -0.00000000000E+00 -0.00000000000E+00 -0.18794983593E+03  0.18794983593E+03  0.00000000000E+00 0.  1.
         21    1    1    2  503  501  0.81849122196E+02 -0.69371818969E+02 -0.38224087595E+02  0.11389823942E+03  0.00000000000E+00 0.  1.
         21    1    1    2  504  506 -0.48941265800E+02  0.26392292914E+02  0.79815074355E+02  0.97274080400E+02  0.00000000000E+00 0.  1.
         21    1    1    2  505  503  0.60985395972E+02 -0.33741992247E+02 -0.79522162841E+02  0.10574268270E+03  0.00000000000E+00 0.  1.
         21    1    1    2  506  502 -0.93893252368E+02  0.76721518303E+02  0.33863464996E+03  0.35968814321E+03  0.00000000000E+00 0.  1.
<scales pt_clust_3="46.60617" pt_clust_4="35.05798" pt_clust_5="46.60617" pt_clust_6="183.61455"></scales>
<clustering>
<clus scale="   35.058">  4  6 -1 -1</clus>
<clus scale="   46.606">  3  5 -1 -1</clus>
<clus scale="  183.615">  1  4  2 -1</clus>
<clus scale="  183.615">  1  3  2 -1</clus>
</clustering>
</event>
<event>
 6    0  0.2036847E+002  0.7129444E+02  0.7546771E-02  0.1355746E+00
         21   -1    0    0  504  501  0.00000000000E+00  0.00000000000E+00  0.33646843941E+02  0.33646843941E+02  0.00000000000E+00 0.  1.
         21   -1    0    0  506  502 -0.00000000000E+00 -0.00000000000E+00 -0.14870691835E+04  0.14870691835E+04  0.00000000000E+00 0.  1.
         21    1    1    2  503  502 -0.35123197899E+02 -0.63404727578E+01 -0.11911004180E+03  0.12434244119E+03  0.00000000000E+00 0.  1.
         21    1    1    2  504  503 -0.85152148367E+02 -0.16040647756E+02 -0.71101184911E+02  0.11208732867E+03  0.00000000000E+00 0.  1.
         21    1    1    2  505  501  0.31009314872E+02 -0.21984480076E+02 -0.33876379336E+02  0.50916638243E+02  0.00000000000E+00 0.  1.
         21    1    1    2  506  505  0.89266031394E+02  0.44365600590E+02 -0.12293347335E+04  0.12333696193E+04  0.00000000000E+00 0.  1.
<scales pt_clust_3="35.69090" pt_clust_4="71.29444" pt_clust_5="37.24433" pt_clust_6="14000.00000"></scales>
<clustering>
<clus scale="   35.691">  2  3  1 -1</clus>
<clus scale="   37.244">  1  5  2 -1</clus>
<clus scale="   71.294">  1  4  2 -1</clus>
<clus scale="   37.244">  1  3  2 -1</clus>
</clustering>
</event>
<event>
 6    0  0.2036847E+002  0.1292431E+03  0.7546771E-02  0.1228583E+00
         21   -1    0    0  504  501  0.00000000000E+00  0.00000000000E+00  0.20364539742E+03  0.20364539742E+03  0.00000000000E+00 0. -1.
         21   -1    0    0  505  502 -0.00000000000E+00 -0.00000000000E+00 -0.22867927928E+03  0.22867927928E+03  0.00000000000E+00 0. -1.
         21    1    1    2  503  502 -0.49333743138E+02 -0.43420826376E+02 -0.10173029403E+03  0.12111250596E+03  0.00000000000E+00 0. -1.
         21    1    1    2  504  506  0.31208062096E+02  0.35826832228E+01  0.84416095688E+02  0.90071393739E+02  0.00000000000E+00 0. -1.
         21    1    1    2  505  501  0.22228692561E+02  0.10487060056E+03  0.63510632746E+02  0.12460159753E+03  0.00000000000E+00 0. -1.
         21    1    1    2  506  503 -0.41030115182E+01 -0.65032457403E+02 -0.71230316266E+02  0.96539179480E+02  0.00000000000E+00 0. -1.
<scales pt_clust_3="52.84779" pt_clust_4="31.41303" pt_clust_5="117.74764" pt_clust_6="52.84779"></scales>
<clustering>
<clus scale="   31.413">  1  4  2 -1</clus>
<clus scale="   52.848">  3  6 -1 -1</clus>
<clus scale="  117.748">  1  5  2 -1</clus>
<clus scale="   31.413">  1  3  2 -1</clus>
</clustering>
</event>
<event>
 6    0  0.2036847E+002  0.2276787E+03  0.7546771E-02  0.1128284E+00
         21   -1    0    0  502  501  0.00000000000E+00  0.00000000000E+00  0.12668722679E+03  0.12668722679E+03  0.00000000000E+00 0.  1.
         21   -1    0    0  505  502 -0.00000000000E+00 -0.00000000000E+00 -0.10672872630E+04  0.10672872630E+04  0.00000000000E+00 0.  1.
         21    1    1    2  503  506  0.80620332346E+02  0.23816578215E+03 -0.73644709985E+03  0.77818822187E+03  0.00000000000E+00 0.  1.
         21    1    1    2  504  501 -0.30786671232E+02 -0.43312847965E+02 -0.19107622092E+02  0.56470551143E+02  0.00000000000E+00 0.  1.
         21    1    1    2  505  503 -0.44026984372E+02 -0.27574794587E+02 -0.18477260289E+03  0.19193660263E+03  0.00000000000E+00 0.  1.
         21    1    1    2  506  504 -0.58066767420E+01 -0.16727813960E+03 -0.27271138220E+00  0.16737911415E+03  0.00000000000E+00 0.  1.
<scales pt_clust_3="218.61414" pt_clust_4="35.83784" pt_clust_5="51.94944" pt_clust_6="35.83784"></scales>
<clustering>
<clus scale="   35.838">  4  6 -1 -1</clus>
<clus scale="   51.949">  2  5  1 -1</clus>
<clus scale="  218.614">  2  3  1 -1</clus>
<clus scale="  227.679">  1  3  2 -1</clus>
</clustering>
</event>
<event>
 6    0  0.2036847E+002  0.8039934E+02  0.7546771E-02  0.1327922E+00
         21   -1    0    0  505  501  0.00000000000E+00  0.00000000000E+00  0.58383723812E+03  0.58383723812E+03  0.00000000000E+00 0. -1.
         21   -1    0    0  504  502 -0.00000000000E+00 -0.00000000000E+00 -0.45514372305E+03  0.45514372305E+03  0.00000000000E+00 0. -1.
         21    1    1    2  503  502 -0.30770601133E+02  0.17742553521E+02 -0.14755020514E+03  0.15176525009E+03  0.00000000000E+00 0.  1.
         21    1    1    2  504  506  0.93770197472E+02  0.30954656751E+02 -0.28044668375E+03  0.29732370093E+03  0.00000000000E+00 0. -1.
         21    1    1    2  505  503 -0.24162633656E+02  0.35519137627E+02  0.24038563500E+02  0.49226969621E+02  0.00000000000E+00 0. -1.
         21    1    1    2  506  501 -0.38836962683E+02 -0.84216347899E+02  0.53265184045E+03  0.54066504054E+03  0.00000000000E+00 0. -1.
<scales pt_clust_3="35.51940" pt_clust_4="14000.00000" pt_clust_5="44.28152" pt_clust_6="80.39934"></scales>
<clustering>
<clus scale="   35.519">  2  3  1 -1</clus>
<clus scale="   44.282">  1  5  2 -1</clus>
<clus scale="   80.399">  1  6  2 -1</clus>
<clus scale="   44.282">  1  3  2 -1</clus>
</clustering>
</event>
<event>
 6    0  0.2036847E+002  0.1540253E+03  0.7546771E-02  0.1195612E+00
         21   -1    0    0  503  501  0.00000000000E+00  0.00000000000E+00  0.36731412061E+03  0.36731412061E+03  0.00000000000E+00 0.  1.
         21   -1    0    0  505  502 -0.00000000000E+00 -0.00000000000E+00 -0.54575249401E+03  0.54575249401E+03  0.00000000000E+00 0. -1.
         21    1    1    2  503  504 -0.13008808873E+03  0.62728699289E+02  0.26017189318E+03  0.29756884001E+03  0.00000000000E+00 0.  1.
         21    1    1    2  504  502  0.95806399607E+02 -0.14121746874E+02 -0.40336268684E+03  0.41482495956E+03  0.00000000000E+00 0. -1.
         21    1    1    2  505  506  0.66981866376E+02  0.20872231453E+02 -0.84206342364E+02  0.10960350616E+03  0.00000000000E+00 0. -1.
         21    1    1    2  506  501 -0.32700177256E+02 -0.69479183868E+02  0.48958762627E+02  0.91069308889E+02  0.00000000000E+00 0. -1.
<scales pt_clust_3="14000.00000" pt_clust_4="154.02534" pt_clust_5="70.15854" pt_clust_6="74.60523"></scales>
<clustering>
<clus scale="   70.159">  2  5  1 -1</clus>
<clus scale="   74.605">  1  6  2 -1</clus>
<clus scale="  154.025">  2  4  1 -1</clus>
<clus scale="   74.605">  1  3  2 -1</clus>
</clustering>
</event>
<event>
 6    0  0.2036847E+002  0.1857111E+03  0.7546771E-02  0.1162387E+00
         21   -1    0    0  504  501  0.00000000000E+00  0.00000000000E+00  0.70875918469E+03  0.70875918469E+03  0.00000000000E+00 0. -1.
         21   -1    0    0  505  502 -0.00000000000E+00 -0.00000000000E+00 -0.84950870687E+02  0.84950870687E+02  0.00000000000E+00 0. -1.
         21    1    1    2  503  501 -0.70981662398E+02 -0.51333505530E+02  0.47788705956E+02  0.99786199465E+02  0.00000000000E+00 0. -1.
         21    1    1    2  504  506  0.74423993496E+02 -0.37942358108E+02  0.13765469918E+03  0.16101978000E+03  0.00000000000E+00 0. -1.
         21    1    1    2  505  503 -0.11424310645E+03 -0.10038569523E+02  0.66956138336E+02  0.13279828580E+03  0.00000000000E+00 0. -1.
         21    1    1    2  506  502  0.11080077535E+03  0.99314433161E+02  0.37140877053E+03  0.40010579011E+03  0.00000000000E+00 0. -1.
<scales pt_clust_3="46.69360" pt_clust_4="83.53774" pt_clust_5="46.69360" pt_clust_6="177.86010"></scales>
<clustering>
<clus scale="   46.694">  3  5 -1 -1</clus>
<clus scale="   83.538">  1  4  2 -1</clus>
<clus scale="  177.860">  1  6  2 -1</clus>
<clus scale="   83.538">  1  3  2 -1</clus>
</clustering>
</event>
<event>
 6    0  0.2036847E+002  0.2618935E+03  0.7546771E-02  0.1106011E+00
         21   -1    0    0  506  501  0.00000000000E+00  0.00000000000E+00  0.24023462521E+03  0.24023462521E+03  0.00000000000E+00 0.  1.
         21   -1    0    0  503  502 -0.00000000000E+00 -0.00000000000E+00 -0.13114000268E+04  0.13114000268E+04  0.00000000000E+00 0.  1.
         21    1    1    2  503  504 -0.66681283692E+01  0.70269733919E+02 -0.36331309236E+03  0.37010633948E+03  0.00000000000E+00 0.  1.
         21    1    1    2  504  501  0.79194673330E+02  0.17839354750E+03 -0.82778967457E+03  0.85048915301E+03  0.00000000000E+00 0.  1.
         21    1    1    2  505  502 -0.80313951810E+01 -0.21707219974E+03  0.35352506122E+02  0.22007871978E+03  0.00000000000E+00 0.  1.
         21    1    1    2  506  505 -0.64495149780E+02 -0.31591081679E+02  0.84584859193E+02  0.11096043976E+03  0.00000000000E+00 0.  1.
<scales pt_clust_3="38.19503" pt_clust_4="38.19503" pt_clust_5="254.07509" pt_clust_6="71.81658"></scales>
<clustering>
<clus scale="   38.195">  3  4 -1 -1</clus>
<clus scale="   71.817">  1  6  2 -1</clus>
<clus scale="  254.075">  1  5  2 -1</clus>
<clus scale="   71.817">  1  3  2 -1</clus>
</clustering>
</event>
<event>
 6    0  0.2036847E+002  0.1705016E+03  0.7546771E-02  0.1177326E+00
         21   -1    0    0  505  501  0.00000000000E+00  0.00000000000E+00  0.56279070602E+03  0.56279070602E+03  0.00000000000E+00 0.  1.
         21   -1    0    0  504  502 -0.00000000000E+00 -0.00000000000E+00 -0.73178957688E+03  0.73178957688E+03  0.00000000000E+00 0. -1.
         21    1    1    2  503  506 -0.60659274160E+02 -0.18087003716E+02  0.21147819831E+03  0.22074808177E+03  0.00000000000E+00 0.  1.
         21    1    1    2  504  501  0.25758070797E+02 -0.33577522748E+02 -0.45970465397E+02  0.62483693344E+02  0.00000000000E+00 0.  1.
         21    1    1    2  505  503 -0.91897986766E+02  0.55970919734E+02  0.32365363559E+03  0.34107134101E+03  0.00000000000E+00 0.  1.
         21    1    1    2  506  502  0.12679919013E+03 -0.43063932705E+01 -0.65816023936E+03  0.67027716678E+03  0.00000000000E+00 0. -1.
<scales pt_clust_3="51.90784" pt_clust_4="42.31936" pt_clust_5="51.90784" pt_clust_6="156.53985"></scales>
<clustering>
<clus scale="   42.319">  2  4  1 -1</clus>
<clus scale="   51.908">  3  5 -1 -1</clus>
<clus scale="  156.540">  2  6  1 -1</clus>
<clus scale="  170.502">  1  3  2 -1</clus>
</clustering>
</event>
<event>
 6    0  0.2036847E+002  0.2077659E+03  0.7546771E-02  0.1143347E+00
         21   -1    0    0  503  501  0.00000000000E+00  0.00000000000E+00  0.21592403701E+03  0.21592403701E+03  0.00000000000E+00 0.  1.
         21   -1    0    0  506  502 -0.00000000000E+00 -0.00000000000E+00 -0.18629632019E+03  0.18629632019E+03  0.00000000000E+00 0. -1.
         21    1    1    2  503  504  0.10954631909E+02 -0.72383653810E+02  0.38172959747E+02  0.82562534815E+02  0.00000000000E+00 0.  1.
         21    1    1    2  504  502  0.90796682278E+02 -0.83955286426E+02 -0.22894274475E+02  0.12576436473E+03  0.00000000000E+00 0.  1.
         21    1    1    2  505  501 -0.51081167111E+02  0.11121432142E+03  0.25824800850E+02  0.12507929989E+03  0.00000000000E+00 0. -1.
         21    1    1    2  506  505 -0.50670147075E+02  0.45124618813E+02 -0.11475769299E+02  0.68814157763E+02  0.00000000000E+00 0. -1.
<scales pt_clust_3="70.39793" pt_clust_4="70.39793" pt_clust_5="193.36178" pt_clust_6="37.91962"></scales>
<clustering>
<clus scale="   37.920">  5  6 -1 -1</clus>
<clus scale="   70.398">  3  4 -1 -1</clus>
<clus scale="  193.362">  1  5  2 -1</clus>
<clus scale="  193.362">  1  3  2 -1</clus>
</clustering>
</event>
<event>
 6    0  0.2036847E+002  0.3364215E+03  0.7546771E-02  0.1068330E+00
         21   -1    0    0  503  501  0.00000000000E+00  0.00000000000E+00  0.31416986259E+03  0.31416986259E+03  0.00000000000E+00 0. -1.
         21   -1    0    0  504  502 -0.00000000000E+00 -0.00000000000E+00 -0.18629880096E+04  0.18629880096E+04  0.00000000000E+00 0.  1.
         21    1    1    2  503  502 -0.54307927279E+02 -0.56870095507E+02 -0.20665243324E+03  0.22110808871E+03  0.00000000000E+00 0. -1.
         21    1    1    2  504  505 -0.20277740484E+02  0.35755242443E+03 -0.15309721259E+04  0.15723010441E+04  0.00000000000E+00 0.  1.
         21    1    1    2  505  506  0.57459706621E+02 -0.51017840680E+02  0.13039430579E+02  0.77938852329E+02  0.00000000000E+00 0. -1.
         21    1    1    2  506  501  0.17125961142E+02 -0.24966448825E+03  0.17576698153E+03  0.30580988708E+03  0.00000000000E+00 0. -1.
<scales pt_clust_3="78.63561" pt_clust_4="312.30922" pt_clust_5="69.30388" pt_clust_6="69.30388"></scales>
<clustering>
<clus scale="   69.304">  5  6 -1 -1</clus>
<clus scale="   78.636">  2  3  1 -1</clus>
<clus scale="  312.309">  2  4  1 -1</clus>
<clus scale="  336.421">  1  3  2 -1</clus>
</clustering>
</event>
<event>
 6    0  0.2036847E+002  0.1256578E+03  0.7546771E-02  0.1234045E+00
         21   -1    0    0  504  501  0.00000000000E+00  0.00000000000E+00  0.41227432510E+03  0.41227432510E+03  0.00000000000E+00 0. -1.
         21   -1    0    0  505  502 -0.00000000000E+00 -0.00000000000E+00 -0.20004834557E+04  0.20004834557E+04  0.00000000000E+00 0. -1.
         21    1    1    2  503  506 -0.59838512887E+02  0.23813097033E+02 -0.68653750284E+03  0.68955163259E+03  0.00000000000E+00 0. -1.
         21    1    1    2  504  503  0.13514642640E+03 -0.35105884077E+02  0.27040317972E+03  0.30432689541E+03  0.00000000000E+00 0. -1.
         21    1    1    2  505  501 -0.38658477680E+02 -0.22641694206E+02  0.11883706994E+03  0.12700147009E+03  0.00000000000E+00 0. -1.
         21    1    1    2  506  502 -0.36649435830E+02  0.33934481250E+02 -0.12909118774E+04  0.12918777827E+04  0.00000000000E+00 0. -1.
<scales pt_clust_3="49.08149" pt_clust_4="112.59718" pt_clust_5="44.80094" pt_clust_6="49.08149"></scales>
<clustering>
<clus scale="   44.801">  1  5  2 -1</clus>
<clus scale="   49.081">  3  6 -1 -1</clus>
<clus scale="  112.597">  1  4  2 -1</clus>
<clus scale="   44.801">  1  3  2 -1</clus>
</clustering>
</event>
<event>
 6    0  0.2036847E+002  0.1825546E+03  0.7546771E-02  0.1165353E+00
         21   -1    0    0  504  501  0.00000000000E+00  0.00000000000E+00  0.59376524392E+03  0.59376524392E+03  0.00000000000E+00 0. -1.
         21   -1    0    0  506  502 -0.00000000000E+00 -0.00000000000E+00 -0.14194059189E+03  0.14194059189E+03  0.00000000000E+00 0.  1.
         21    1    1    2  503  502  0.46934775701E+01  0.83692140855E+02  0.46932061480E+02  0.96067796724E+02  0.00000000000E+00 0.  1.
         21    1    1    2  504  505 -0.47880556686E+01 -0.49236520108E+02  0.23792094485E+03  0.24300933395E+03  0.00000000000E+00 0. -1.
         21    1    1    2  505  503 -0.21445327899E+02 -0.12881865342E+03  0.24144768012E+03  0.27450160254E+03  0.00000000000E+00 0. -1.
         21    1    1    2  506  501  0.21539905997E+02  0.94363032677E+02 -0.74476034425E+02  0.12212710260E+03  0.00000000000E+00 0.  1.
<scales pt_clust_3="83.82364" pt_clust_4="46.18686" pt_clust_5="46.18686" pt_clust_6="166.41731"></scales>
<clustering>
<clus scale="   46.187">  4  5 -1 -1</clus>
<clus scale="   83.824">  2  3  1 -1</clus>
<clus scale="  166.417">  2  6  1 -1</clus>
<clus scale="  182.555">  1  3  2 -1</clus>
</clustering>
</event>
<event>
 6    0  0.2036847E+002  0.3781299E+03  0.7546771E-02  0.1051627E+00
         21   -1    0    0  503  501  0.00000000000E+00  0.00000000000E+00  0.53518820714E+03  0.53518820714E+03  0.00000000000E+00 0.  1.
         21   -1    0    0  504  502 -0.00000000000E+00 -0.00000000000E+00 -0.97897825096E+03  0.97897825096E+03  0.00000000000E+00 0.  1.
         21    1    1    2  503  505 -0.41240593287E+03 -0.61317465910E+01  0.31411961758E+03  0.51844709077E+03  0.00000000000E+00 0.  1.
         21    1    1    2  504  506  0.97809537163E+02 -0.52546821010E+02 -0.51485551784E+02  0.12238723790E+03  0.00000000000E+00 0.  1.
         21    1    1    2  505  502  0.28659294036E+03  0.70816503382E+02 -0.75796867590E+03  0.81342916364E+03  0.00000000000E+00 0.  1.
         21    1    1    2  506  501  0.28003455353E+02 -0.12137935781E+02  0.51544566289E+02  0.59902965792E+02  0.00000000000E+00 0.  1.
<scales pt_clust_3="14000.00000" pt_clust_4="113.27983" pt_clust_5="378.12994" pt_clust_6="30.52086"></scales>
<clustering>
<clus scale="   30.521">  1  6  2 -1</clus>
<clus scale="  113.280">  2  4  1 -1</clus>
<clus scale="  378.130">  2  5  1 -1</clus>
<clus scale="   30.521">  1  3  2 -1</clus>
</clustering>
</event>
<event>
 6    0  0.2036847E+002  0.9238798E+02  0.7546771E-02  0.1297170E+00
         21   -1    0    0  505  501  0.00000000000E+00  0.00000000000E+00  0.41768850197E+03  0.41768850197E+03  0.00000000000E+00 0.  1.
         21   -1    0    0  504  502 -0.00000000000E+00 -0.00000000000E+00 -0.19907710163E+03  0.19907710163E+03  0.00000000000E+00 0.  1.
         21    1    1    2  503  502 -0.33119687543E+02  0.43220613686E+02 -0.65575651378E+02  0.85235563024E+02  0.00000000000E+00 0.  1.
         21    1    1    2  504  506 -0.60424984539E+02 -0.61925625623E+02 -0.86941841661E+02  0.12265743229E+03  0.00000000000E+00 0.  1.
         21    1    1    2  505  503  0.10632876546E+03 -0.22429723842E+02  0.33647553997E+03  0.35358830279E+03  0.00000000000E+00 0.  1.
         21    1    1    2  506  501 -0.12784093378E+02  0.41134735779E+02  0.34653353412E+02  0.55284305493E+02  0.00000000000E+00 0.  1.
<scales pt_clust_3="55.51880" pt_clust_4="14000.00000" pt_clust_5="92.38798" pt_clust_6="43.07551"></scales>
<clustering>
<clus scale="   43.076">  1  6  2 -1</clus>
<clus scale="   55.519">  2  3  1 -1</clus>
<clus scale="   92.388">  1  5  2 -1</clus>
<clus scale="   43.076">  1  3  2 -1</clus>
</clustering>
</event>
<event>
 6    0  0.2036847E+002  0.8787601E+02  0.7546771E-02  0.1308078E+00
         21   -1    0    0  503  501  0.00000000000E+00  0.00000000000E+00  0.60115604210E+03  0.60115604210E+03  0.00000000000E+00 0. -1.
         21   -1    0    0  504  502 -0.00000000000E+00 -0.00000000000E+00 -0.54127845200E+03  0.54127845200E+03  0.00000000000E+00 0. -1.
         21    1    1    2  503  502 -0.52062143036E+02 -0.11999435357E+03 -0.46597178024E+03  0.48398224307E+03  0.00000000000E+00 0. -1.
         21    1    1    2  504  506 -0.83232241658E+01  0.53069124473E+02 -0.49386466155E+02  0.72970069701E+02  0.00000000000E+00 0.  1.
         21    1    1    2  505  501  0.33397349033E+02  0.15237046816E+02  0.37880511629E+03  0.38057964560E+03  0.00000000000E+00 0. -1.
         21    1    1    2  506  505  0.26988018169E+02  0.51688182284E+02  0.19643072019E+03  0.20490253573E+03  0.00000000000E+00 0. -1.
<scales pt_clust_3="14000.00000" pt_clust_4="54.27648" pt_clust_5="36.70900" pt_clust_6="87.87601"></scales>
<clustering>
<clus scale="   36.709">  1  5  2 -1</clus>
<clus scale="   54.276">  2  4  1 -1</clus>
<clus scale="   87.876">  1  6  2 -1</clus>
<clus scale="   36.709">  1  3  2 -1</clus>
</clustering>
</event>
<event>
 6    0  0.2036847E+002  0.1807259E+03  0.7546771E-02  0.1167102E+00
         21   -1    0    0  503  501  0.00000000000E+00  0.00000000000E+00  0.23660954071E+03  0.23660954071E+03  0.00000000000E+00 0.  1.
         21   -1    0    0  506  502 -0.00000000000E+00 -0.00000000000E+00 -0.80987791059E+03  0.80987791059E+03  0.00000000000E+00 0.  1.
         21    1    1    2  503  505  0.15657935514E+03  0.31926483399E+00 -0.52710765456E+03  0.54987241782E+03  0.00000000000E+00 0.  1.
         21    1    1    2  504  501 -0.38236688236E+02 -0.10096415467E+02 -0.15775372330E+02  0.42577509377E+02  0.00000000000E+00 0.  1.
         21    1    1    2  505  502  0.21038426856E+02  0.61492378748E+02 -0.21060926999E+03  0.22040914830E+03  0.00000000000E+00 0. -1.
         21    1    1    2  506  504 -0.13938109376E+03 -0.51715228115E+02  0.18022392700E+03  0.23362837580E+03  0.00000000000E+00 0.  1.
<scales pt_clust_3="180.72588" pt_clust_4="39.54721" pt_clust_5="64.51438" pt_clust_6="14000.00000"></scales>
<clustering>
<clus scale="   39.547">  1  4  2 -1</clus>
<clus scale="   64.514">  2  5  1 -1</clus>
<clus scale="  180.726">  2  3  1 -1</clus>
<clus scale="   39.547">  1  3  2 -1</clus>
</clustering>
</event>
<event>
 6    0  0.2036847E+002  0.1198404E+03  0.7546771E-02  0.1243361E+00
         21   -1    0    0  505  501  0.00000000000E+00  0.00000000000E+00  0.13111460539E+04  0.13111460539E+04  0.00000000000E+00 0. -1.
         21   -1    0    0  506  502 -0.00000000000E+00 -0.00000000000E+00 -0.18771094533E+03  0.18771094533E+03  0.00000000000E+00 0.  1.
         21    1    1    2  503  501 -0.40480874678E+02 -0.11380052428E+03  0.12508665906E+04  0.12566847210E+04  0.00000000000E+00 0. -1.
         21    1    1    2  504  502  0.28181876161E+02  0.10538895523E+02 -0.44776269630E+02  0.53946276839E+02  0.00000000000E+00 0. -1.
         21    1    1    2  505  504  0.36841894260E+02  0.10669996938E+02  0.23704665535E+02  0.45089745791E+02  0.00000000000E+00 0. -1.
         21    1    1    2  506  503 -0.24542895743E+02  0.92591631824E+02 -0.10635987796E+03  0.14313625556E+03  0.00000000000E+00 0.  1.
<scales pt_clust_3="119.84040" pt_clust_4="30.08798" pt_clust_5="40.67495" pt_clust_6="14000.00000"></scales>
<clustering>
<clus scale="   30.088">  2  4  1 -1</clus>
<clus scale="   40.675">  2  5  1 -1</clus>
<clus scale="  119.840">  1  3  2 -1</clus>
<clus scale="  119.840">  1  3  2 -1</clus>
</clustering>
</event>
<event>
 6    0  0.2036847E+002  0.1233015E+03  0.7546771E-02  0.1237748E+00
         21   -1    0    0  504  501  0.00000000000E+00  0.00000000000E+00  0.28544501779E+02  0.28544501779E+02  0.00000000000E+00 0.  1.
         21   -1    0    0  505  502 -0.00000000000E+00 -0.00000000000E+00 -0.75954336808E+03  0.75954336808E+03  0.00000000000E+00 0. -1.
         21    1    1    2  503  501 -0.49352632664E+02 -0.53954910834E+02 -0.32148019542E+03  0.32969126589E+03  0.00000000000E+00 0. -1.
         21    1    1    2  504  506  0.37718923382E+02 -0.96910602472E+01 -0.40510766642E+02  0.56193914650E+02  0.00000000000E+00 0.  1.
         21    1    1    2  505  503 -0.58704332433E+02 -0.37997837970E+01 -0.18286345027E+03  0.19209289015E+03  0.00000000000E+00 0. -1.
         21    1    1    2  506  502  0.70338041715E+02  0.67445754878E+02 -0.18614445397E+03  0.21010979917E+03  0.00000000000E+00 0.  1.
<scales pt_clust_3="45.74008" pt_clust_4="38.94398" pt_clust_5="45.74008" pt_clust_6="110.99088"></scales>
<clustering>
<clus scale="   38.944">  1  4  2 -1</clus>
<clus scale="   45.740">  3  5 -1 -1</clus>
<clus scale="  110.991">  1  6  2 -1</clus>
<clus scale="   38.944">  1  3  2 -1</clus>
</clustering>
</event>
<event>
 6    0  0.2036847E+002  0.1824877E+03  0.7546771E-02  0.1165417E+00
         21   -1    0    0  502  501  0.00000000000E+00  0.00000000000E+00  0.39006045606E+03  0.39006045606E+03  0.00000000000E+00 0. -1.
         21   -1    0    0  505  502 -0.00000000000E+00 -0.00000000000E+00 -0.26724421273E+03  0.26724421273E+03  0.00000000000E+00 0. -1.
         21    1    1    2  503  501 -0.32967849781E+02  0.29212521618E+02  0.11571296317E+03  0.12381332878E+03  0.00000000000E+00 0. -1.
         21    1    1    2  504  503 -0.11250627070E+03 -0.10845618166E+03  0.20850640842E+03  0.26056731690E+03  0.00000000000E+00 0. -1.
         21    1    1    2  505  506  0.51621773223E+02  0.72891033922E+02 -0.11081180215E+03  0.14232767051E+03  0.00000000000E+00 0. -1.
         21    1    1    2  506  504  0.93852347254E+02  0.63526261173E+01 -0.90591326113E+02  0.13059635259E+03  0.00000000000E+00 0. -1.
<scales pt_clust_3="44.04828" pt_clust_4="163.76736" pt_clust_5="79.55215" pt_clust_6="79.55215"></scales>
<clustering>
<clus scale="   44.048">  1  3  2 -1</clus>
<clus scale="   79.552">  5  6 -1 -1</clus>
<clus scale="  163.767">  1  4  2 -1</clus>
<clus scale="   44.048">  1  3  2 -1</clus>
</clustering>
</event>
<event>
 6    0  0.2036847E+002  0.1306785E+03  0.7546771E-02  0.1226452E+00
         21   -1    0    0  504  501  0.00000000000E+00  0.00000000000E+00  0.24550631305E+03  0.24550631305E+03  0.00000000000E+00 0. -1.
         21   -1    0    0  506  502 -0.00000000000E+00 -0.00000000000E+00 -0.44379618957E+03  0.44379618957E+03  0.00000000000E+00 0. -1.
         21    1    1    2  503  501 -0.10574315823E+02 -0.44094361297E+02  0.35600820625E+01  0.45484096535E+02  0.00000000000E+00 0.  1.
         21    1    1    2  504  505  0.32180579198E+02 -0.89329369700E+02  0.19348171542E+03  0.21552378099E+03  0.00000000000E+00 0. -1.
         21    1    1    2  505  502  0.10760566744E+02  0.12467968501E+03 -0.35148544192E+03  0.37309895407E+03  0.00000000000E+00 0. -1.
         21    1    1    2  506  503 -0.32366830118E+02  0.87440459855E+01 -0.43846232086E+02  0.55195671028E+02  0.00000000000E+00 0. -1.
<scales pt_clust_3="45.32881" pt_clust_4="130.67846" pt_clust_5="14000.00000" pt_clust_6="33.52715"></scales>
<clustering>
<clus scale="   33.527">  2  6  1 -1</clus>
<clus scale="   45.329">  1  3  2 -1</clus>
<clus scale="  130.678">  1  4  2 -1</clus>
<clus scale="   45.329">  1  3  2 -1</clus>
</clustering>
</event>
<event>
 6    0  0.2036847E+002  0.9493426E+02  0.7546771E-02  0.1291324E+00
         21   -1    0    0  506  501  0.00000000000E+00  0.00000000000E+00  0.57625475623E+03  0.57625475623E+03  0.00000000000E+00 0. -1.
         21   -1    0    0  505  502 -0.00000000000E+00 -0.00000000000E+00 -0.18162992948E+03  0.18162992948E+03  0.00000000000E+00 0.  1.
         21    1    1    2  503  502 -0.95938522527E+02 -0.12678995504E+02  0.81244209229E+02  0.12635497048E+03  0.00000000000E+00 0. -1.
         21    1    1    2  504  501 -0.21587486467E+02 -0.43925297993E+02  0.40734641386E+03  0.41027619022E+03  0.00000000000E+00 0. -1.
         21    1    1    2  505  504  0.79842663811E+02  0.53199023708E+02 -0.13488218478E+03  0.16552398877E+03  0.00000000000E+00 0.  1.
         21    1    1    2  506  503  0.37683345183E+02  0.34052697890E+01  0.40916388441E+02  0.55729536241E+02  0.00000000000E+00 0. -1.
<scales pt_clust_3="14000.00000" pt_clust_4="41.98078" pt_clust_5="94.93426" pt_clust_6="37.83689"></scales>
<clustering>
<clus scale="   37.837">  1  6  2 -1</clus>
<clus scale="   41.981">  1  4  2 -1</clus>
<clus scale="   94.934">  2  5  1 -1</clus>
<clus scale="   37.837">  1  3  2 -1</clus>
</clustering>
</event>
<event>
 6    0  0.2036847E+002  0.1501896E+03  0.7546771E-02  0.1200240E+00
         21   -1    0    0  506  501  0.00000000000E+00  0.00000000000E+00  0.31515386360E+03  0.31515386360E+03  0.00000000000E+00 0.  1.
         21   -1    0    0  503  502 -0.00000000000E+00 -0.00000000000E+00 -0.93276355309E+03  0.93276355309E+03  0.00000000000E+00 0.  1.
         21    1    1    2  503  505 -0.10736687734E+03 -0.23306292848E+02 -0.64010680837E+03  0.64946713216E+03  0.00000000000E+00 0.  1.
         21    1    1    2  504  502  0.84632366638E+02  0.17749135953E+02  0.19609062720E+03  0.21431099688E+03  0.00000000000E+00 0.  1.
         21    1    1    2  505  501 -0.21940031829E+02 -0.33484739972E+02 -0.26890587348E+03  0.27186938334E+03  0.00000000000E+00 0.  1.
         21    1    1    2  506  504  0.44674542535E+02  0.39041896867E+02  0.95312365155E+02  0.11226990431E+03  0.00000000000E+00 0.  1.
<scales pt_clust_3="30.84679" pt_clust_4="147.44281" pt_clust_5="30.84679" pt_clust_6="35.08276"></scales>
<clustering>
<clus scale="   30.847">  3  5 -1 -1</clus>
<clus scale="   35.083">  4  6 -1 -1</clus>
<clus scale="  147.443">  1  4  2 -1</clus>
<clus scale="  147.443">  1  3  2 -1</clus>
</clustering>
</event>
<event>
 6    0  0.2036847E+002  0.1014331E+03  0.7546771E-02  0.1277311E+00
         21   -1    0    0  504  501  0.00000000000E+00  0.00000000000E+00  0.62652524553E+03  0.62652524553E+03  0.00000000000E+00 0.  1.
         21   -1    0    0  505  502 -0.00000000000E+00 -0.00000000000E+00 -0.67597304788E+02  0.67597304788E+02  0.00000000000E+00 0. -1.
         21    1    1    2  503  506 -0.36894687956E+02  0.77575964178E+02  0.12378141407E+03  0.15066879799E+03  0.00000000000E+00 0. -1.
         21    1    1    2  504  502 -0.20303759362E+02 -0.28371729286E+02  0.91063562334E+02  0.97518049878E+02  0.00000000000E+00 0.  1.
         21    1    1    2  505  503  0.78281891181E+01  0.44069741767E+02 -0.32196746714E+02  0.55136677296E+02  0.00000000000E+00 0. -1.
         21    1    1    2  506  501  0.49370258199E+02 -0.93273976659E+02  0.37627971105E+03  0.39079902515E+03  0.00000000000E+00 0.  1.
<scales pt_clust_3="14000.00000" pt_clust_4="34.88836" pt_clust_5="44.08227" pt_clust_6="101.43309"></scales>
<clustering>
<clus scale="   34.888">  1  4  2 -1</clus>
<clus scale="   44.082">  2  5  1 -1</clus>
<clus scale="  101.433">  1  6  2 -1</clus>
<clus scale="   34.888">  1  3  2 -1</clus>
</clustering>
</event>
<event>
 6    0  0.2036847E+002  0.9548117E+02  0.7546771E-02  0.1290096E+00
         21   -1    0    0  506  501  0.00000000000E+00  0.00000000000E+00  0.50224692707E+02  0.50224692707E+02  0.00000000000E+00 0. -1.
         21   -1    0    0  505  502 -0.00000000000E+00 -0.00000000000E+00 -0.20621131101E+04  0.20621131101E+04  0.00000000000E+00 0.  1.
         21    1    1    2  503  502 -0.23049586841E+02 -0.35991041714E+02 -0.59360073527E+03  0.59513735511E+03  0.00000000000E+00 0.  1.
         21    1    1    2  504  503 -0.68704938289E+02  0.63401604860E+02 -0.13184200872E+04  0.13217305543E+04  0.00000000000E+00 0.  1.
         21    1    1    2  505  501 -0.31804143849E+01  0.32280191375E+02 -0.73400013922E+02  0.80247665602E+02  0.00000000000E+00 0.  1.
         21    1    1    2  506  504  0.94934939515E+02 -0.59690754521E+02 -0.26467581003E+02  0.11522222772E+03  0.00000000000E+00 0. -1.
<scales pt_clust_3="42.32238" pt_clust_4="95.48117" pt_clust_5="32.43649" pt_clust_6="14000.00000"></scales>
<clustering>
<clus scale="   32.436">  1  5  2 -1</clus>
<clus scale="   42.322">  2  3  1 -1</clus>
<clus scale="   95.481">  2  4  1 -1</clus>
<clus scale="   32.436">  1  3  2 -1</clus>
</clustering>
</event>
<event>
 6    0  0.2036847E+002  0.1409666E+03  0.7546771E-02  0.1212034E+00
         21   -1    0    0  503  501  0.00000000000E+00  0.00000000000E+00  0.21997444582E+03  0.21997444582E+03  0.00000000000E+00 0. -1.
         21   -1    0    0  506  502 -0.00000000000E+00 -0.00000000000E+00 -0.40949628387E+03  0.40949628387E+03  0.00000000000E+00 0. -1.
         21    1    1    2  503  504 -0.17138337895E+02  0.56412044429E+02  0.10896182757E+03  0.12388995621E+03  0.00000000000E+00 0. -1.
         21    1    1    2  504  505 -0.23779771354E+02  0.75308197644E+02  0.68305279427E+02  0.10441462233E+03  0.00000000000E+00 0. -1.
         21    1    1    2  505  502  0.80314513016E+01 -0.42888869604E+02 -0.34458616932E+02  0.55599960672E+02  0.00000000000E+00 0. -1.
         21    1    1    2  506  501  0.32886657948E+02 -0.88831372469E+02 -0.33233032812E+03  0.34556619047E+03  0.00000000000E+00 0. -1.
<scales pt_clust_3="35.36041" pt_clust_4="35.36041" pt_clust_5="43.63438" pt_clust_6="134.89527"></scales>
<clustering>
<clus scale="   35.360">  3  4 -1 -1</clus>
<clus scale="   43.634">  2  5  1 -1</clus>
<clus scale="  134.895">  2  6  1 -1</clus>
<clus scale="  140.967">  1  3  2 -1</clus>
</clustering>
</event>
<event>
 6    0  0.2036847E+002  0.1363990E+03  0.7546771E-02  0.1218258E+00
         21   -1    0    0  504  501  0.00000000000E+00  0.00000000000E+00  0.19071799202E+04  0.19071799202E+04  0.00000000000E+00 0. -1.
         21   -1    0    0  503  502 -0.00000000000E+00 -0.00000000000E+00 -0.12473924498E+03  0.12473924498E+03  0.00000000000E+00 0. -1.
         21    1    1    2  503  505 -0.29468676602E+02  0.12805848631E+03 -0.26593372133E+02  0.13406933377E+03  0.00000000000E+00 0. -1.
         21    1    1    2  504  506  0.37513280935E+02 -0.31421688709E+02  0.22637556068E+03  0.23160410886E+03  0.00000000000E+00 0. -1.
         21    1    1    2  505  501  0.18949632525E+02  0.60614727514E+02  0.14689480527E+04  0.14703202424E+04  0.00000000000E+00 0. -1.
         21    1    1    2  506  502 -0.26994236858E+02 -0.15725152511E+03  0.11371043401E+03  0.19592548016E+03  0.00000000000E+00 0. -1.
<scales pt_clust_3="136.39904" pt_clust_4="48.93433" pt_clust_5="61.47207" pt_clust_6="14000.00000"></scales>
<clustering>
<clus scale="   48.934">  1  4  2 -1</clus>
<clus scale="   61.472">  1  5  2 -1</clus>
<clus scale="  136.399">  2  3  1 -1</clus>
<clus scale="   48.934">  1  3  2 -1</clus>
</clustering>
</event>
<event>
 6    0  0.2036847E+002  0.1660185E+03  0.7546771E-02  0.1182065E+00
         21   -1    0    0  506  501  0.00000000000E+00  0.00000000000E+00  0.60960624382E+02  0.60960624382E+02  0.00000000000E+00 0.  1.
         21   -1    0    0  504  502 -0.00000000000E+00 -0.00000000000E+00 -0.99513155085E+03  0.99513155085E+03  0.00000000000E+00 0.  1.
         21    1    1    2  503  505  0.34841107825E+02  0.90541004420E+02 -0.36899511985E+02  0.10379378720E+03  0.00000000000E+00 0.  1.
         21    1    1    2  504  501 -0.54652993912E+02 -0.19574632607E+02 -0.19891991193E+03  0.20721787410E+03  0.00000000000E+00 0. -1.
         21    1    1    2  505  502  0.34226203892E+02 -0.13887680691E+03 -0.63561615789E+03  0.65151062977E+03  0.00000000000E+00 0.  1.
         21    1    1    2  506  503 -0.14414317805E+02  0.67910435096E+02 -0.62735344667E+02  0.93569884168E+02  0.00000000000E+00 0.  1.
<scales pt_clust_3="50.05480" pt_clust_4="58.05270" pt_clust_5="155.11593" pt_clust_6="50.05480"></scales>
<clustering>
<clus scale="   50.055">  3  6 -1 -1</clus>
<clus scale="   58.053">  2  4  1 -1</clus>
<clus scale="  155.116">  2  5  1 -1</clus>
<clus scale="  166.019">  1  3  2 -1</clus>
</clustering>
</event>
<event>
 6    0  0.2036847E+002  0.1038841E+03  0.7546771E-02  0.1272334E+00
         21   -1    0    0  506  501  0.00000000000E+00  0.00000000000E+00  0.26421197030E+03  0.26421197030E+03  0.00000000000E+00 0.  1.
         21   -1    0    0  504  502 -0.00000000000E+00 -0.00000000000E+00 -0.43855666558E+03  0.43855666558E+03  0.00000000000E+00 0. -1.
         21    1    1    2  503  501  0.62274805883E+02 -0.50514283400E+02  0.52250981096E+02  0.95707937501E+02  0.00000000000E+00 0.  1.
         21    1    1    2  504  503 -0.66039856520E+02  0.16265747587E+02 -0.33815947644E+03  0.34493139709E+03  0.00000000000E+00 0. -1.
         21    1    1    2  505  502 -0.46592865948E+02 -0.34052985605E+02 -0.52116065376E+02  0.77759792027E+02  0.00000000000E+00 0. -1.
         21    1    1    2  506  505  0.50357916584E+02  0.68301521419E+02  0.16367986545E+03  0.18436950926E+03  0.00000000000E+00 0.  1.
<scales pt_clust_3="79.39582" pt_clust_4="103.88414" pt_clust_5="57.71049" pt_clust_6="14000.00000"></scales>
<clustering>
<clus scale="   57.710">  2  5  1 -1</clus>
<clus scale="   79.396">  1  3  2 -1</clus>
<clus scale="  103.884">  2  4  1 -1</clus>
<clus scale="   79.396">  1  3  2 -1</clus>
</clustering>
</event>
<event>
 6    0  0.2036847E+002  0.1868990E+03  0.7546771E-02  0.1161288E+00
         21   -1    0    0  504  501  0.00000000000E+00  0.00000000000E+00  0.13503923676E+03  0.13503923676E+03  0.00000000000E+00 0.  1.
         21   -1    0    0  506  502 -0.00000000000E+00 -0.00000000000E+00 -0.53496278098E+03  0.53496278098E+03  0.00000000000E+00 0.  1.
         21    1    1    2  503  502  0.10112689171E+02  0.12833525535E+03 -0.15481916561E+03  0.20134840026E+03  0.00000000000E+00 0.  1.
         21    1    1    2  504  503  0.39620094406E+02  0.51156999349E+02 -0.29100197018E+02  0.70947952258E+02  0.00000000000E+00 0.  1.
         21    1    1    2  505  501 -0.15361692925E+03 -0.95213875631E+02 -0.56127409312E+02  0.18924621302E+03  0.00000000000E+00 0.  1.
         21    1    1    2  506  505  0.10388414567E+03 -0.84278379070E+02 -0.15987677227E+03  0.20845945220E+03  0.00000000000E+00 0.  1.
<scales pt_clust_3="53.18733" pt_clust_4="53.18733" pt_clust_5="171.18148" pt_clust_6="133.77130"></scales>
<clustering>
<clus scale="   53.187">  3  4 -1 -1</clus>
<clus scale="  133.771">  2  6  1 -1</clus>
<clus scale="  171.181">  1  5  2 -1</clus>
<clus scale="  171.181">  1  3  2 -1</clus>
</clustering>
</event>
<event>
 6    0  0.2036847E+002  0.1412133E+03  0.7546771E-02  0.1211706E+00
         21   -1    0    0  503  501  0.00000000000E+00  0.00000000000E+00  0.27757881715E+03  0.27757881715E+03  0.00000000000E+00 0.  1.
         21   -1    0    0  506  502 -0.00000000000E+00 -0.00000000000E+00 -0.36078100939E+03  0.36078100939E+03  0.00000000000E+00 0. -1.
         21    1    1    2  503  505 -0.84497377789E+02  0.87214911098E+02 -0.81593131487E+02  0.14629998864E+03  0.00000000000E+00 0. -1.
         21    1    1    2  504  501  0.36929383420E+02 -0.21313523315E+01  0.73628054656E+01  0.37716480839E+02  0.00000000000E+00 0. -1.
         21    1    1    2  505  502 -0.60563587519E+02 -0.26053226762E+02 -0.20914914130E+03  0.21929450989E+03  0.00000000000E+00 0. -1.
         21    1    1    2  506  504  0.10813158189E+03 -0.59030332005E+02  0.20017727508E+03  0.23504884717E+03  0.00000000000E+00 0.  1.
<scales pt_clust_3="141.21333" pt_clust_4="36.99084" pt_clust_5="65.27250" pt_clust_6="14000.00000"></scales>
<clustering>
<clus scale="   36.991">  1  4  2 -1</clus>
<clus scale="   65.272">  2  5  1 -1</clus>
<clus scale="  141.213">  2  3  1 -1</clus>
<clus scale="   36.991">  1  3  2 -1</clus>
</clustering>
</event>
<event>
 6    0  0.2036847E+002  0.1340463E+03  0.7546771E-02  0.1221572E+00
         21   -1    0    0  506  501  0.00000000000E+00  0.00000000000E+00  0.32668654766E+04  0.32668654766E+04  0.00000000000E+00 0.  1.
         21   -1    0    0  505  502 -0.00000000000E+00 -0.00000000000E+00 -0.18226556856E+02  0.18226556856E+02  0.00000000000E+00 0.  1.
         21    1    1    2  503  502  0.41691608092E+02 -0.52072468577E+02  0.10865505179E+04  0.10885962337E+04  0.00000000000E+00 0.  1.
         21    1    1    2  504  501 -0.12815920829E+03  0.14273716509E+02  0.59408807360E+03  0.60792200227E+03  0.00000000000E+00 0.  1.
         21    1    1    2  505  504  0.21189567915E+02  0.46552298166E+02  0.58783615996E+02  0.77920650425E+02  0.00000000000E+00 0.  1.
         21    1    1    2  506  503  0.65278032278E+02 -0.87535460977E+01  0.15092167123E+04  0.15106531471E+04  0.00000000000E+00 0.  1.
<scales pt_clust_3="53.06171" pt_clust_4="122.55972" pt_clust_5="51.14796" pt_clust_6="53.06171"></scales>
<clustering>
<clus scale="   51.148">  2  5  1 -1</clus>
<clus scale="   53.062">  3  6 -1 -1</clus>
<clus scale="  122.560">  2  4  1 -1</clus>
<clus scale="  134.046">  1  3  2 -1</clus>
</clustering>
</event>
<event>
 6    0  0.2036847E+002  0.1354073E+03  0.7546771E-02  0.1219646E+00
         21   -1    0    0  505  501  0.00000000000E+00  0.00000000000E+00  0.10072996038E+03  0.10072996038E+03  0.00000000000E+00 0. -1.
         21   -1    0    0  503  502 -0.00000000000E+00 -0.00000000000E+00 -0.62089162573E+03  0.62089162573E+03  0.00000000000E+00 0.  1.
         21    1    1    2  503  501  0.33712587020E+02  0.15202503126E+02  0.43678606505E+02  0.57231768198E+02  0.00000000000E+00 0. -1.
         21    1    1    2  504  506 -0.10534711761E+02  0.58457180836E+02 -0.48793464787E+02  0.76870178542E+02  0.00000000000E+00 0.  1.
         21    1    1    2  505  504  0.20771511782E+02  0.42326691146E+02  0.98504661068E+01  0.48166753758E+02  0.00000000000E+00 0.  1.
         21    1    1    2  506  502 -0.43949387041E+02 -0.11598637511E+03 -0.52489727317E+03  0.53935288561E+03  0.00000000000E+00 0.  1.
<scales pt_clust_3="36.98181" pt_clust_4="60.97568" pt_clust_5="60.97568" pt_clust_6="120.33135"></scales>
<clustering>
<clus scale="   36.982">  1  3  2 -1</clus>
<clus scale="   60.976">  4  5 -1 -1</clus>
<clus scale="  120.331">  2  6  1 -1</clus>
<clus scale="   36.982">  1  3  2 -1</clus>
</clustering>
</event>
<event>
 6    0  0.2036847E+002  0.1646721E+03  0.7546771E-02  0.1183521E+00
         21   -1    0    0  503  501  0.00000000000E+00  0.00000000000E+00  0.25616382259E+02  0.25616382259E+02  0.00000000000E+00 0.  1.
         21   -1    0    0  504  502 -0.00000000000E+00 -0.00000000000E+00 -0.16832834274E+04  0.16832834274E+04  0.00000000000E+00 0. -1.
         21    1    1    2  503  505  0.40883657812E+02 -0.76175373670E+02 -0.11148432932E+03  0.14107769744E+03  0.00000000000E+00 0.  1.
         21    1    1    2  504  506 -0.34936528767E+01  0.39515647314E+02 -0.45229387953E+03  0.45403022526E+03  0.00000000000E+00 0. -1.
         21    1    1    2  505  502  0.54869173717E+02 -0.41673545837E+02 -0.19547424837E+03  0.20726189332E+03  0.00000000000E+00 0.  1.
         21    1    1    2  506  501 -0.92259178652E+02  0.78333272193E+02 -0.89841458790E+03  0.90652999362E+03  0.00000000000E+00 0. -1.
<scales pt_clust_3="56.88275" pt_clust_4="34.60646" pt_clust_5="56.88275" pt_clust_6="163.43422"></scales>
<clustering>
<clus scale="   34.606">  4  6 -1 -1</clus>
<clus scale="   56.883">  3  5 -1 -1</clus>
<clus scale="  163.434">  2  4  1 -1</clus>
<clus scale="  164.672">  1  3  2 -1</clus>
</clustering>
</event>
<event>
 6    0  0.2036847E+002  0.9273325E+02  0.7546771E-02  0.1296365E+00
         21   -1    0    0  506  501  0.00000000000E+00  0.00000000000E+00  0.27128871680E+04  0.27128871680E+04  0.00000000000E+00 0.  1.
         21   -1    0    0  504  502 -0.00000000000E+00 -0.00000000000E+00 -0.27414779124E+02  0.27414779124E+02  0.00000000000E+00 0.  1.
         21    1    1    2  503  505 -0.64275301274E+02  0.93648593985E+02  0.24836098639E+03  0.27310172660E+03  0.00000000000E+00 0.  1.
         21    1    1    2  504  501  0.13029213870E+02 -0.48850928922E+02  0.25799432768E+03  0.26290159145E+03  0.00000000000E+00 0. -1.
         21    1    1    2  505  502 -0.32685613934E+02 -0.64941777258E+01  0.12305626520E+02  0.35523965806E+02  0.00000000000E+00 0.  1.
         21    1    1    2  506  503  0.83931701338E+02 -0.38303487338E+02  0.21668114483E+04  0.21687746632E+04  0.00000000000E+00 0.  1.
<scales pt_clust_3="92.73325" pt_clust_4="50.48972" pt_clust_5="33.32452" pt_clust_6="14000.00000"></scales>
<clustering>
<clus scale="   33.325">  2  5  1 -1</clus>
<clus scale="   50.490">  2  4  1 -1</clus>
<clus scale="   92.733">  2  3  1 -1</clus>
<clus scale="   92.733">  1  3  2 -1</clus>
</clustering>
</event>
<event>
 6    0  0.2036847E+002  0.1846142E+03  0.7546771E-02  0.1163411E+00
         21   -1    0    0  505  501  0.00000000000E+00  0.00000000000E+00  0.34395609939E+02  0.34395609939E+02  0.00000000000E+00 0.  1.
         21   -1    0    0  504  502 -0.00000000000E+00 -0.00000000000E+00 -0.14480545933E+04  0.14480545933E+04  0.00000000000E+00 0. -1.
         21    1    1    2  503  501  0.33368178962E+02  0.29409122847E+02 -0.17672240695E+03  0.18223375371E+03  0.00000000000E+00 0. -1.
         21    1    1    2  504  503  0.12846233388E+03  0.33049699674E+02 -0.94868496465E+03  0.95791336562E+03  0.00000000000E+00 0. -1.
         21    1    1    2  505  506 -0.61764419916E+02  0.65792075667E+01 -0.81702964382E+02  0.10263285989E+03  0.00000000000E+00 0.  1.
         21    1    1    2  506  502 -0.10006609292E+03 -0.69038030088E+02 -0.20654864741E+03  0.23967022406E+03  0.00000000000E+00 0.  1.
<scales pt_clust_3="33.28238" pt_clust_4="182.73944" pt_clust_5="45.16324" pt_clust_6="45.16324"></scales>
<clustering>
<clus scale="   33.282">  3  4 -1 -1</clus>
<clus scale="   45.163">  5  6 -1 -1</clus>
<clus scale="  182.739">  2  3  1 -1</clus>
<clus scale="  184.614">  1  3  2 -1</clus>
</clustering>
</event>
<event>
 6    0  0.2036847E+002  0.1154173E+03  0.7546771E-02  0.1250854E+00
         21   -1    0    0  505  501  0.00000000000E+00  0.00000000000E+00  0.42068247691E+03  0.42068247691E+03  0.00000000000E+00 0. -1.
         21   -1    0    0  506  502 -0.00000000000E+00 -0.00000000000E+00 -0.13937926187E+04  0.13937926187E+04  0.00000000000E+00 0. -1.
         21    1    1    2  503  502  0.28939188480E+02  0.12783058002E+03 -0.58204877747E+03  0.59662292377E+03  0.00000000000E+00 0. -1.
         21    1    1    2  504  501 -0.96941894364E+02 -0.74119299404E+02  0.34801311187E+03  0.36878791664E+03  0.00000000000E+00 0. -1.
         21    1    1    2  505  503  0.34496560873E+02 -0.22672787677E+02  0.46490523615E+02  0.62172637061E+02  0.00000000000E+00 0. -1.
         21    1    1    2  506  504  0.33506145012E+02 -0.31038492936E+02 -0.78556499982E+03  0.78689161816E+03  0.00000000000E+00 0. -1.
<scales pt_clust_3="115.41727" pt_clust_4="14000.00000" pt_clust_5="41.28036" pt_clust_6="45.74701"></scales>
<clustering>
<clus scale="   41.280">  1  5  2 -1</clus>
<clus scale="   45.747">  2  6  1 -1</clus>
<clus scale="  115.417">  2  3  1 -1</clus>
<clus scale="   41.280">  1  3  2 -1</clus>
</clustering>
</event>
<event>
 6    0  0.2036847E+002  0.1261688E+03  0.7546771E-02  0.1233254E+00
         21   -1    0    0  503  501  0.00000000000E+00  0.00000000000E+00  0.54791781792E+02  0.54791781792E+02  0.00000000000E+00 0.  1.
         21   -1    0    0  504  502 -0.00000000000E+00 -0.00000000000E+00 -0.49491245207E+03  0.49491245207E+03  0.00000000000E+00 0.  1.
         21    1    1    2  503  506  0.33692226888E+02 -0.39303296671E+02 -0.90281515781E+01  0.52549241696E+02  0.00000000000E+00 0.  1.
         21    1    1    2  504  501 -0.38615129481E+02  0.22765027822E+02 -0.60359718553E+02  0.75184242634E+02  0.00000000000E+00 0.  1.
         21    1    1    2  505  502 -0.26972134838E+02  0.88841878301E+02 -0.30612741767E+03  0.31989743864E+03  0.00000000000E+00 0.  1.
         21    1    1    2  506  505  0.31895037431E+02 -0.72303609451E+02 -0.64605382483E+02  0.10207331090E+03  0.00000000000E+00 0.  1.
<scales pt_clust_3="33.64908" pt_clust_4="44.82605" pt_clust_5="119.12226" pt_clust_6="33.64908"></scales>
<clustering>
<clus scale="   33.649">  3  6 -1 -1</clus>
<clus scale="   44.826">  2  4  1 -1</clus>
<clus scale="  119.122">  2  5  1 -1</clus>
<clus scale="  126.169">  1  3  2 -1</clus>
</clustering>
</event>
<event>
 6    0  0.2036847E+002  0.8676942E+02  0.7546771E-02  0.1310869E+00
         21   -1    0    0  506  501  0.00000000000E+00  0.00000000000E+00  0.66282208069E+03  0.66282208069E+03  0.00000000000E+00 0. -1.
         21   -1    0    0  503  502 -0.00000000000E+00 -0.00000000000E+00 -0.35971061216E+03  0.35971061216E+03  0.00000000000E+00 0.  1.
         21    1    1    2  503  505 -0.18161394407E+02 -0.45521824621E+02 -0.24794206945E+03  0.25273967351E+03  0.00000000000E+00 0.  1.
         21    1    1    2  504  502 -0.49395419937E+02 -0.12739465138E+02 -0.92820811561E+02  0.10591460967E+03  0.00000000000E+00 0.  1.
         21    1    1    2  505  501  0.10302512600E+03  0.64949987337E+02  0.54956646769E+03  0.56289961792E+03  0.00000000000E+00 0. -1.
         21    1    1    2  506  504 -0.35468311654E+02 -0.66886975781E+01  0.94307881846E+02  0.10097879176E+03  0.00000000000E+00 0. -1.
<scales pt_clust_3="49.09327" pt_clust_4="86.76942" pt_clust_5="14000.00000" pt_clust_6="36.09349"></scales>
<clustering>
<clus scale="   36.093">  1  6  2 -1</clus>
<clus scale="   49.093">  2  3  1 -1</clus>
<clus scale="   86.769">  2  4  1 -1</clus>
<clus scale="   36.093">  1  3  2 -1</clus>
</clustering>
</event>
<event>
 6    0  0.2036847E+002  0.1360814E+03  0.7546771E-02  0.1218701E+00
         21   -1    0    0  504  501  0.00000000000E+00  0.00000000000E+00  0.12075913811E+03  0.12075913811E+03  0.00000000000E+00 0.  1.
         21   -1    0    0  501  502 -0.00000000000E+00 -0.00000000000E+00 -0.21824624289E+04  0.21824624289E+04  0.00000000000E+00 0. -1.
         21    1    1    2  503  502  0.29150828375E+02 -0.21712898695E+02 -0.30673015970E+03  0.30887636950E+03  0.00000000000E+00 0.  1.
         21    1    1    2  504  506 -0.19066110679E+02  0.61886348879E+02  0.73973081943E+02  0.98313038841E+02  0.00000000000E+00 0.  1.
         21    1    1    2  505  503  0.44991997461E+02 -0.82856440834E+02 -0.18237211177E+04  0.18261566704E+04  0.00000000000E+00 0. -1.
         21    1    1    2  506  505 -0.55076715156E+02  0.42682990650E+02 -0.52250953395E+01  0.69875488296E+02  0.00000000000E+00 0.  1.
<scales pt_clust_3="34.63474" pt_clust_4="64.75675" pt_clust_5="34.63474" pt_clust_6="124.12338"></scales>
<clustering>
<clus scale="   34.635">  3  5 -1 -1</clus>
<clus scale="   64.757">  1  4  2 -1</clus>
<clus scale="  124.123">  1  6  2 -1</clus>
<clus scale="   64.757">  1  3  2 -1</clus>
</clustering>
</event>
<event>
 6    0  0.2036847E+002  0.7996441E+02  0.7546771E-02  0.1329152E+00
         21   -1    0    0  503  501  0.00000000000E+00  0.00000000000E+00  0.33718440018E+03  0.33718440018E+03  0.00000000000E+00 0.  1.
         21   -1    0    0  506  502 -0.00000000000E+00 -0.00000000000E+00 -0.43394227036E+03  0.43394227036E+03  0.00000000000E+00 0.  1.
         21    1    1    2  503  505  0.15694253001E+02  0.11650226903E+03  0.11706292906E+03  0.16590002298E+03  0.00000000000E+00 0.  1.
         21    1    1    2  504  501 -0.12512688307E+02 -0.68081022213E+02  0.16424178791E+03  0.17823287533E+03  0.00000000000E+00 0.  1.
         21    1    1    2  505  502 -0.61516999509E+02  0.97296110899E+01 -0.29653694184E+02  0.68980780941E+02  0.00000000000E+00 0.  1.
         21    1    1    2  506  504  0.58335434815E+02 -0.58150857907E+02 -0.34840889297E+03  0.35801299128E+03  0.00000000000E+00 0.  1.
<scales pt_clust_3="14000.00000" pt_clust_4="79.96441" pt_clust_5="62.28167" pt_clust_6="49.25040"></scales>
<clustering>
<clus scale="   62.282">  2  5  1 -1</clus>
<clus scale="   49.250">  2  6  1 -1</clus>
<clus scale="   79.964">  1  4  2 -1</clus>
<clus scale="   79.964">  1  3  2 -1</clus>
</clustering>
</event>
<event>
 6    0  0.2036847E+002  0.1295116E+03  0.7546771E-02  0.1228182E+00
         21   -1    0    0  502  501  0.00000000000E+00  0.00000000000E+00  0.13905995869E+03  0.13905995869E+03  0.00000000000E+00 0.  1.
         21   -1    0    0  504  502 -0.00000000000E+00 -0.00000000000E+00 -0.11453096631E+04  0.11453096631E+04  0.00000000000E+00 0. -1.
         21    1    1    2  503  501 -0.33710491456E+02  0.40036455005E+02  0.10193157353E+03  0.11458342222E+03  0.00000000000E+00 0.  1.
         21    1    1    2  504  506  0.31384653645E+02 -0.50911218610E+02 -0.48016977370E+03  0.48388010936E+03  0.00000000000E+00 0.  1.
         21    1    1    2  505  503  0.11331493490E+02  0.85911913920E+02 -0.44301015349E+02  0.97323376735E+02  0.00000000000E+00 0.  1.
         21    1    1    2  506  505 -0.90056556782E+01 -0.75037150315E+02 -0.58371048895E+03  0.58858271353E+03  0.00000000000E+00 0. -1.
<scales pt_clust_3="52.33847" pt_clust_4="39.49878" pt_clust_5="121.66251" pt_clust_6="39.49878"></scales>
<clustering>
<clus scale="   39.499">  4  6 -1 -1</clus>
<clus scale="   52.338">  1  3  2 -1</clus>
<clus scale="  121.663">  1  5  2 -1</clus>
<clus scale="   52.338">  1  3  2 -1</clus>
</clustering>
</event>
<event>
 6    0  0.2036847E+002  0.1475595E+03  0.7546771E-02  0.1203504E+00
         21   -1    0    0  503  501  0.00000000000E+00  0.00000000000E+00  0.36586861267E+03  0.36586861267E+03  0.00000000000E+00 0. -1.
         21   -1    0    0  506  502 -0.00000000000E+00 -0.00000000000E+00 -0.13105090641E+03  0.13105090641E+03  0.00000000000E+00 0.  1.
         21    1    1    2  503  505 -0.44057293709E+02  0.22961302498E+02  0.63693523362E+02  0.80778285818E+02  0.00000000000E+00 0.  1.
         21    1    1    2  504  501  0.69333315343E+02 -0.60818991112E+02 -0.24136026495E+02  0.95334181022E+02  0.00000000000E+00 0.  1.
         21    1    1    2  505  502 -0.71287896361E+02  0.57752413459E+02  0.23791170699E+03  0.25498879534E+03  0.00000000000E+00 0. -1.
         21    1    1    2  506  504  0.46011874728E+02 -0.19894724845E+02 -0.42651497599E+02  0.65818256890E+02  0.00000000000E+00 0.  1.
<scales pt_clust_3="32.53373" pt_clust_4="146.66129" pt_clust_5="32.53373" pt_clust_6="30.31068"></scales>
<clustering>
<clus scale="   30.311">  4  6 -1 -1</clus>
<clus scale="   32.534">  3  5 -1 -1</clus>
<clus scale="  146.661">  2  4  1 -1</clus>
<clus scale="  147.560">  1  3  2 -1</clus>
</clustering>
</event>
<event>
 6    0  0.2036847E+002  0.2331329E+03  0.7546771E-02  0.1124454E+00
         21   -1    0    0  502  501  0.00000000000E+00  0.00000000000E+00  0.39961707165E+03  0.39961707165E+03  0.00000000000E+00 0. -1.
         21   -1    0    0  503  502 -0.00000000000E+00 -0.00000000000E+00 -0.27709995722E+03  0.27709995722E+03  0.00000000000E+00 0.  1.
         21    1    1    2  503  506 -0.77000938656E+02 -0.10688177304E+03 -0.59238828259E+02  0.14443717228E+03  0.00000000000E+00 0.  1.
         21    1    1    2  504  505  0.59928826929E+02  0.78530926883E+02  0.89465814599E+02  0.13327679001E+03  0.00000000000E+00 0. -1.
         21    1    1    2  505  501  0.81473877839E+02  0.88618174662E+02  0.21587541058E+03  0.24717072347E+03  0.00000000000E+00 0. -1.
         21    1    1    2  506  504 -0.64401766113E+02 -0.60267328505E+02 -0.12358528249E+03  0.15183234310E+03  0.00000000000E+00 0.  1.
<scales pt_clust_3="65.55093" pt_clust_4="54.15238" pt_clust_5="226.95164" pt_clust_6="65.55093"></scales>
<clustering>
<clus scale="   54.152">  4  5 -1 -1</clus>
<clus scale="   65.551">  3  6 -1 -1</clus>
<clus scale="  226.952">  1  4  2 -1</clus>
<clus scale="  226.952">  1  3  2 -1</clus>
</clustering>
</event>
<event>
 6    0  0.2036847E+002  0.1426670E+03  0.7546771E-02  0.1209785E+00
         21   -1    0    0  502  501  0.00000000000E+00  0.00000000000E+00  0.83591090822E+01  0.83591090822E+01  0.00000000000E+00 0. -1.
         21   -1    0    0  505  502 -0.00000000000E+00 -0.00000000000E+00 -0.23761059957E+04  0.23761059957E+04  0.00000000000E+00 0. -1.
         21    1    1    2  503  501 -0.71526624298E+02  0.16647781150E+02 -0.59055222106E+03  0.59510094303E+03  0.00000000000E+00 0. -1.
         21    1    1    2  504  506  0.83475348732E+02  0.44679644595E+02 -0.98534625827E+03  0.98988466660E+03  0.00000000000E+00 0. -1.
         21    1    1    2  505  504  0.38049593487E+02 -0.14668339686E+02 -0.35046809480E+03  0.35283256259E+03  0.00000000000E+00 0. -1.
         21    1    1    2  506  503 -0.49998317921E+02 -0.46659086059E+02 -0.44138031245E+03  0.44664693252E+03  0.00000000000E+00 0. -1.
<scales pt_clust_3="66.05073" pt_clust_4="135.97636" pt_clust_5="34.85440" pt_clust_6="66.05073"></scales>
<clustering>
<clus scale="   34.854">  4  5 -1 -1</clus>
<clus scale="   66.051">  3  6 -1 -1</clus>
<clus scale="  135.976">  2  4  1 -1</clus>
<clus scale="  142.667">  1  3  2 -1</clus>
</clustering>
</event>
<event>
 6    0  0.2036847E+002  0.1266913E+03  0.7546771E-02  0.1232449E+00
         21   -1    0    0  504  501  0.00000000000E+00  0.00000000000E+00  0.17729452600E+03  0.17729452600E+03  0.00000000000E+00 0. -1.
         21   -1    0    0  505  502 -0.00000000000E+00 -0.00000000000E+00 -0.15996544028E+03  0.15996544028E+03  0.00000000000E+00 0. -1.
         21    1    1    2  503  501 -0.58893814668E+02  0.45200481524E+02 -0.32391134995E+02  0.80998460247E+02  0.00000000000E+00 0. -1.
         21    1    1    2  504  506  0.70028924730E+01 -0.31216488438E+02  0.35019843910E+02  0.47433101531E+02  0.00000000000E+00 0.  1.
         21    1    1    2  505  503 -0.51368779130E+02  0.97859621982E+01 -0.59694473358E+02  0.79359603546E+02  0.00000000000E+00 0. -1.
         21    1    1    2  506  502  0.10325970133E+03 -0.23769955284E+02  0.74394850162E+02  0.12946880096E+03  0.00000000000E+00 0. -1.
<scales pt_clust_3="38.85275" pt_clust_4="31.99234" pt_clust_5="38.85275" pt_clust_6="118.30928"></scales>
<clustering>
<clus scale="   31.992">  1  4  2 -1</clus>
<clus scale="   38.853">  3  5 -1 -1</clus>
<clus scale="  118.309">  1  6  2 -1</clus>
<clus scale="   31.992">  1  3  2 -1</clus>
</clustering>
</event>
<event>
 6    0  0.2036847E+002  0.1299973E+03  0.7546771E-02  0.1227460E+00
         21   -1    0    0  506  501  0.00000000000E+00  0.00000000000E+00  0.13499850596E+04  0.13499850596E+04  0.00000000000E+00 0.  1.
         21   -1    0    0  505  502 -0.00000000000E+00 -0.00000000000E+00 -0.26882920649E+02  0.26882920649E+02  0.00000000000E+00 0.  1.
         21    1    1    2  503  501  0.44649675450E+02  0.46496804279E+02  0.23054133970E+03  0.23938432621E+03  0.00000000000E+00 0. -1.
         21    1    1    2  504  502 -0.25427295339E+02 -0.60529145876E+02  0.70842002040E+02  0.96586303904E+02  0.00000000000E+00 0.  1.
         21    1    1    2  505  503  0.11687128324E+02  0.78192591673E+02  0.86673996180E+03  0.87033834326E+03  0.00000000000E+00 0.  1.
         21    1    1    2  506  504 -0.30909508436E+02 -0.64160250077E+02  0.15497883543E+03  0.17055900689E+03  0.00000000000E+00 0.  1.
<scales pt_clust_3="64.46353" pt_clust_4="39.00440" pt_clust_5="123.48694" pt_clust_6="39.00440"></scales>
<clustering>
<clus scale="   39.004">  4  6 -1 -1</clus>
<clus scale="   64.464">  1  3  2 -1</clus>
<clus scale="  123.487">  1  5  2 -1</clus>
<clus scale="   64.464">  1  3  2 -1</clus>
</clustering>
</event>
<event>
 6    0  0.2036847E+002  0.1758570E+03  0.7546771E-02  0.1171874E+00
         21   -1    0    0  505  501  0.00000000000E+00  0.00000000000E+00  0.46532235977E+03  0.46532235977E+03  0.00000000000E+00 0. -1.
         21   -1    0    0  504  502 -0.00000000000E+00 -0.00000000000E+00 -0.39738604642E+03  0.39738604642E+03  0.00000000000E+00 0.  1.
         21    1    1    2  503  502 -0.74446224355E+01  0.83805260837E+02 -0.43577913232E+02  0.94751140726E+02  0.00000000000E+00 0. -1.
         21    1    1    2  504  506  0.73595789074E+02  0.90708769527E+02 -0.29055881952E+03  0.31315946200E+03  0.00000000000E+00 0.  1.
         21    1    1    2  505  503 -0.63599802227E+02 -0.13216408844E+03  0.37924603216E+03  0.40662001184E+03  0.00000000000E+00 0. -1.
         21    1    1    2  506  501 -0.25513644115E+01 -0.42349941921E+02  0.22827013937E+02  0.48177791630E+02  0.00000000000E+00 0. -1.
<scales pt_clust_3="81.63842" pt_clust_4="14000.00000" pt_clust_5="175.85705" pt_clust_6="42.42673"></scales>
<clustering>
<clus scale="   42.427">  1  6  2 -1</clus>
<clus scale="   81.638">  2  3  1 -1</clus>
<clus scale="  175.857">  1  5  2 -1</clus>
<clus scale="   42.427">  1  3  2 -1</clus>
</clustering>
</event>
<event>
 6    0  0.2036847E+002  0.1551463E+03  0.7546771E-02  0.1194288E+00
         21   -1    0    0  505  501  0.00000000000E+00  0.00000000000E+00  0.27512045597E+03  0.27512045597E+03  0.00000000000E+00 0.  1.
         21   -1    0    0  503  502 -0.00000000000E+00 -0.00000000000E+00 -0.40036059179E+03  0.40036059179E+03  0.00000000000E+00 0.  1.
         21    1    1    2  503  501  0.63830867014E+00 -0.36032507654E+02  0.16618288698E+02  0.39685218471E+02  0.00000000000E+00 0. -1.
         21    1    1    2  504  506  0.79065024976E+02  0.10597743793E+03  0.58841325279E+02  0.14472317397E+03  0.00000000000E+00 0.  1.
         21    1    1    2  505  504  0.21119113833E+02  0.53494806740E+02  0.11993380475E+03  0.13301063430E+03  0.00000000000E+00 0.  1.
         21    1    1    2  506  502 -0.10082244748E+03 -0.12343973701E+03 -0.32063355454E+03  0.35806202101E+03  0.00000000000E+00 0.  1.
<scales pt_clust_3="36.03816" pt_clust_4="14000.00000" pt_clust_5="41.08426" pt_clust_6="155.14629"></scales>
<clustering>
<clus scale="   36.038">  1  3  2 -1</clus>
<clus scale="   41.084">  1  5  2 -1</clus>
<clus scale="  155.146">  2  6  1 -1</clus>
<clus scale="   36.038">  1  3  2 -1</clus>
</clustering>
</event>
<event>
 6    0  0.2036847E+002  0.2448677E+03  0.7546771E-02  0.1116592E+00
         21   -1    0    0  503  501  0.00000000000E+00  0.00000000000E+00  0.23531700484E+03  0.23531700484E+03  0.00000000000E+00 0.  1.
         21   -1    0    0  504  502 -0.00000000000E+00 -0.00000000000E+00 -0.35855378323E+03  0.35855378323E+03  0.00000000000E+00 0.  1.
         21    1    1    2  503  505  0.42793008832E+02 -0.63669319486E+02  0.33044215406E+02  0.83528103178E+02  0.00000000000E+00 0.  1.
         21    1    1    2  504  506 -0.70371100922E+01  0.53960660729E+02 -0.55818799039E+02  0.77955193226E+02  0.00000000000E+00 0.  1.
         21    1    1    2  505  502  0.16251793567E+03 -0.72303619603E+02  0.31279029672E+02  0.18060528929E+03  0.00000000000E+00 0.  1.
         21    1    1    2  506  501 -0.19827383441E+03  0.82012278360E+02 -0.13174122444E+03  0.25178220237E+03  0.00000000000E+00 0.  1.
<scales pt_clust_3="46.37997" pt_clust_4="54.41759" pt_clust_5="46.37997" pt_clust_6="234.46204"></scales>
<clustering>
<clus scale="   46.380">  3  5 -1 -1</clus>
<clus scale="   54.418">  2  4  1 -1</clus>
<clus scale="  234.462">  2  6  1 -1</clus>
<clus scale="  244.868">  1  3  2 -1</clus>
</clustering>
</event>
<event>
 6    0  0.2036847E+002  0.1929545E+03  0.7546771E-02  0.1155823E+00
         21   -1    0    0  504  501  0.00000000000E+00  0.00000000000E+00  0.48855846437E+03  0.48855846437E+03  0.00000000000E+00 0.  1.
         21   -1    0    0  506  502 -0.00000000000E+00 -0.00000000000E+00 -0.20144927005E+03  0.20144927005E+03  0.00000000000E+00 0. -1.
         21    1    1    2  503  502  0.39403245253E+02  0.49397697269E+02  0.59146747265E+02  0.86551059751E+02  0.00000000000E+00 0.  1.
         21    1    1    2  504  503  0.16513974173E+03  0.34793931059E+02  0.29899885954E+03  0.34333958400E+03  0.00000000000E+00 0.  1.
         21    1    1    2  505  501 -0.10271551250E+03 -0.42748800219E+02  0.25124729468E+02  0.11405782945E+03  0.00000000000E+00 0. -1.
         21    1    1    2  506  505 -0.10182747449E+03 -0.41442828109E+02 -0.96161141954E+02  0.14605926121E+03  0.00000000000E+00 0. -1.
<scales pt_clust_3="53.38448" pt_clust_4="53.38448" pt_clust_5="172.10405" pt_clust_6="109.93790"></scales>
<clustering>
<clus scale="   53.384">  3  4 -1 -1</clus>
<clus scale="  109.938">  2  6  1 -1</clus>
<clus scale="  172.104">  2  5  1 -1</clus>
<clus scale="  192.954">  1  3  2 -1</clus>
</clustering>
</event>
<event>
 6    0  0.2036847E+002  0.1467911E+03  0.7546771E-02  0.1204472E+00
         21   -1    0    0  506  501  0.00000000000E+00  0.00000000000E+00  0.42376212751E+02  0.42376212751E+02  0.00000000000E+00 0.  1.
         21   -1    0    0  505  502 -0.00000000000E+00 -0.00000000000E+00 -0.18714482818E+04  0.18714482818E+04  0.00000000000E+00 0. -1.
         21    1    1    2  503  504 -0.77009575390E+02  0.20892805598E+02 -0.90952612902E+03  0.91301958544E+03  0.00000000000E+00 0. -1.
         21    1    1    2  504  501  0.44195195573E+02 -0.48541078927E+01 -0.93504280451E+02  0.10353660289E+03  0.00000000000E+00 0.  1.
         21    1    1    2  505  503 -0.63833477104E+02 -0.30244960057E+02 -0.78999009673E+03  0.79314174228E+03  0.00000000000E+00 0. -1.
         21    1    1    2  506  502  0.96647856921E+02  0.14206262352E+02 -0.36051562863E+02  0.10412656396E+03  0.00000000000E+00 0.  1.
<scales pt_clust_3="49.03187" pt_clust_4="44.46097" pt_clust_5="49.03187" pt_clust_6="137.26176"></scales>
<clustering>
<clus scale="   44.461">  1  4  2 -1</clus>
<clus scale="   49.032">  3  5 -1 -1</clus>
<clus scale="  137.262">  1  6  2 -1</clus>
<clus scale="   44.461">  1  3  2 -1</clus>
</clustering>
</event>
<event>
 6    0  0.2036847E+002  0.2182853E+03  0.7546771E-02  0.1135168E+00
         21   -1    0    0  504  501  0.00000000000E+00  0.00000000000E+00  0.25366891759E+03  0.25366891759E+03  0.00000000000E+00 0. -1.
         21   -1    0    0  503  502 -0.00000000000E+00 -0.00000000000E+00 -0.24412033238E+03  0.24412033238E+03  0.00000000000E+00 0. -1.
         21    1    1    2  503  505 -0.50920238701E+02  0.52713760725E+02 -0.11159945019E+02  0.74136061751E+02  0.00000000000E+00 0.  1.
         21    1    1    2  504  506  0.31238166781E+02 -0.77381051156E+02  0.45825450663E+02  0.95203057043E+02  0.00000000000E+00 0. -1.
         21    1    1    2  505  501  0.67870473822E+02  0.16446230337E+03 -0.30368028052E+02  0.18048952206E+03  0.00000000000E+00 0. -1.
         21    1    1    2  506  502 -0.48188401901E+02 -0.13979501294E+03  0.52511076178E+01  0.14796060912E+03  0.00000000000E+00 0. -1.
<scales pt_clust_3="73.29128" pt_clust_4="71.53274" pt_clust_5="196.42170" pt_clust_6="71.53274"></scales>
<clustering>
<clus scale="   71.533">  4  6 -1 -1</clus>
<clus scale="   73.291">  2  3  1 -1</clus>
<clus scale="  196.422">  2  5  1 -1</clus>
<clus scale="  218.285">  1  3  2 -1</clus>
</clustering>
</event>
<event>
 6    0  0.2036847E+002  0.1528088E+03  0.7546771E-02  0.1197063E+00
         21   -1    0    0  505  501  0.00000000000E+00  0.00000000000E+00  0.32624783271E+03  0.32624783271E+03  0.00000000000E+00 0. -1.
         21   -1    0    0  504  502 -0.00000000000E+00 -0.00000000000E+00 -0.30281241086E+03  0.30281241086E+03  0.00000000000E+00 0. -1.
         21    1    1    2  503  502 -0.49837318149E+02  0.74294981724E+01 -0.21778468007E+02  0.54893145220E+02  0.00000000000E+00 0. -1.
         21    1    1    2  504  506  0.51381103484E+02 -0.64467122840E+02 -0.17467733978E+03  0.19315330894E+03  0.00000000000E+00 0. -1.
         21    1    1    2  505  503 -0.96721670392E+02  0.14623687442E+03  0.16045491462E+03  0.23766801339E+03  0.00000000000E+00 0. -1.
         21    1    1    2  506  501  0.95177885057E+02 -0.89199249757E+02  0.59436315013E+02  0.14334577602E+03  0.00000000000E+00 0. -1.
<scales pt_clust_3="50.38805" pt_clust_4="61.61399" pt_clust_5="152.80876" pt_clust_6="14000.00000"></scales>
<clustering>
<clus scale="   50.388">  2  3  1 -1</clus>
<clus scale="   61.614">  2  4  1 -1</clus>
<clus scale="  152.809">  1  5  2 -1</clus>
<clus scale="  152.809">  1  3  2 -1</clus>
</clustering>
</event>
<event>
 6    0  0.2036847E+002  0.7927200E+02  0.7546771E-02  0.1331130E+00
         21   -1    0    0  503  501  0.00000000000E+00  0.00000000000E+00  0.49303053629E+02  0.49303053629E+02  0.00000000000E+00 0.  1.
         21   -1    0    0  506  502 -0.00000000000E+00 -0.00000000000E+00 -0.52783797960E+03  0.52783797960E+03  0.00000000000E+00 0.  1.
         21    1    1    2  503  505 -0.11901238675E+03  0.29853931850E+02 -0.81811683177E+02  0.14747324148E+03  0.00000000000E+00 0.  1.
         21    1    1    2  504  502  0.27136263262E+02 -0.21523826905E+02 -0.18723784995E+03  0.19041445419E+03  0.00000000000E+00 0.  1.
         21    1    1    2  505  504  0.40886604632E+02  0.13366233751E+02 -0.15751276442E+03  0.16328086721E+03  0.00000000000E+00 0.  1.
         21    1    1    2  506  501  0.50989518858E+02 -0.21696338696E+02 -0.51972628418E+02  0.75972470348E+02  0.00000000000E+00 0.  1.
<scales pt_clust_3="14000.00000" pt_clust_4="34.63599" pt_clust_5="53.81978" pt_clust_6="79.27200"></scales>
<clustering>
<clus scale="   34.636">  2  4  1 -1</clus>
<clus scale="   53.820">  2  5  1 -1</clus>
<clus scale="   79.272">  1  6  2 -1</clus>
<clus scale="   79.272">  1  3  2 -1</clus>
</clustering>
</event>
<event>
 6    0  0.2036847E+002  0.1547379E+03  0.7546771E-02  0.1194769E+00
         21   -1    0    0  506  501  0.00000000000E+00  0.00000000000E+00  0.16819760558E+03  0.16819760558E+03  0.00000000000E+00 0. -1.
         21   -1    0    0  503  502 -0.00000000000E+00 -0.00000000000E+00 -0.70557518327E+03  0.70557518327E+03  0.00000000000E+00 0. -1.
         21    1    1    2  503  504  0.42889242672E+02 -0.10120347395E+03  0.76834761239E+02  0.13410895127E+03  0.00000000000E+00 0. -1.
         21    1    1    2  504  501 -0.14641431018E+02 -0.41312979351E+02  0.45186518306E+02  0.62952007130E+02  0.00000000000E+00 0. -1.
         21    1    1    2  505  502 -0.34538403368E+02  0.59886573486E+02 -0.28830085415E+03  0.29647375178E+03  0.00000000000E+00 0. -1.
         21    1    1    2  506  505  0.62905917137E+01  0.82629879812E+02 -0.37109800308E+03  0.38023807867E+03  0.00000000000E+00 0. -1.
<scales pt_clust_3="33.62256" pt_clust_4="33.62256" pt_clust_5="41.08292" pt_clust_6="152.09224"></scales>
<clustering>
<clus scale="   33.623">  3  4 -1 -1</clus>
<clus scale="   41.083">  5  6 -1 -1</clus>
<clus scale="  152.092">  2  5  1 -1</clus>
<clus scale="  154.738">  1  3  2 -1</clus>
</clustering>
</event>
<event>
 6    0  0.2036847E+002  0.1409396E+03  0.7546771E-02  0.1212070E+00
         21   -1    0    0  503  501  0.00000000000E+00  0.00000000000E+00  0.39938964416E+03  0.39938964416E+03  0.00000000000E+00 0.  1.
         21   -1    0    0  505  502 -0.00000000000E+00 -0.00000000000E+00 -0.40404950028E+03  0.40404950028E+03  0.00000000000E+00 0.  1.
         21    1    1    2  503  502  0.74310126674E+01 -0.29141816778E+02  0.15663051729E+02  0.33908651165E+02  0.00000000000E+00 0.  1.
         21    1    1    2  504  506  0.21096833937E+02 -0.38565505988E+02 -0.87990226594E+02  0.98359822237E+02  0.00000000000E+00 0.  1.
         21    1    1    2  505  504  0.93304837014E+02 -0.14596997013E+02 -0.27903375593E+03  0.29458224977E+03  0.00000000000E+00 0.  1.
         21    1    1    2  506  501 -0.12183268362E+03  0.82304319779E+02  0.34670107468E+03  0.37658842127E+03  0.00000000000E+00 0.  1.
<scales pt_clust_3="30.07433" pt_clust_4="42.09894" pt_clust_5="42.09894" pt_clust_6="126.81121"></scales>
<clustering>
<clus scale="   30.074">  1  3  2 -1</clus>
<clus scale="   42.099">  4  5 -1 -1</clus>
<clus scale="  126.811">  1  6  2 -1</clus>
<clus scale="   30.074">  1  3  2 -1</clus>
</clustering>
</event>
<event>
 6    0  0.2036847E+002  0.1968909E+03  0.7546771E-02  0.1152389E+00
         21   -1    0    0  505  501  0.00000000000E+00  0.00000000000E+00  0.30888961563E+04  0.30888961563E+04  0.00000000000E+00 0.  1.
         21   -1    0    0  504  502 -0.00000000000E+00 -0.00000000000E+00 -0.93498281727E+02  0.93498281727E+02  0.00000000000E+00 0. -1.
         21    1    1    2  503  502  0.12502416454E+01 -0.50462828209E+02  0.70441193513E+03  0.70621826264E+03  0.00000000000E+00 0.  1.
         21    1    1    2  504  506  0.76785739027E+02  0.16617420187E+03  0.11964987328E+02  0.18344774735E+03  0.00000000000E+00 0. -1.
         21    1    1    2  505  503 -0.11604837148E+03 -0.13622364366E+03  0.21319088227E+04  0.21394063041E+04  0.00000000000E+00 0.  1.
         21    1    1    2  506  501  0.38012390811E+02  0.20512270001E+02  0.14711212942E+03  0.15332212396E+03  0.00000000000E+00 0. -1.
<scales pt_clust_3="36.92362" pt_clust_4="184.20839" pt_clust_5="36.92362" pt_clust_6="43.19369"></scales>
<clustering>
<clus scale="   36.924">  3  5 -1 -1</clus>
<clus scale="   43.194">  1  6  2 -1</clus>
<clus scale="  184.208">  2  4  1 -1</clus>
<clus scale="   43.194">  1  3  2 -1</clus>
</clustering>
</event>
<event>
 6    0  0.2036847E+002  0.8520186E+02  0.7546771E-02  0.1314905E+00
         21   -1    0    0  504  501  0.00000000000E+00  0.00000000000E+00  0.25714867995E+03  0.25714867995E+03  0.00000000000E+00 0. -1.
         21   -1    0    0  503  502 -0.00000000000E+00 -0.00000000000E+00 -0.13178564809E+03  0.13178564809E+03  0.00000000000E+00 0. -1.
         21    1    1    2  503  506 -0.44767146569E+02 -0.13665242303E+02 -0.53267269759E+02  0.70910071828E+02  0.00000000000E+00 0. -1.
         21    1    1    2  504  505  0.99810277448E+02 -0.36748128947E+02  0.15778501712E+02  0.10752431158E+03  0.00000000000E+00 0. -1.
         21    1    1    2  505  502 -0.18266267990E+02 -0.27209326205E+02  0.84970342754E+01  0.33855628340E+02  0.00000000000E+00 0. -1.
         21    1    1    2  506  501 -0.36776862890E+02  0.77622697456E+02  0.15435476563E+03  0.17664431629E+03  0.00000000000E+00 0. -1.
<scales pt_clust_3="61.01543" pt_clust_4="14000.00000" pt_clust_5="32.77200" pt_clust_6="85.20186"></scales>
<clustering>
<clus scale="   32.772">  2  5  1 -1</clus>
<clus scale="   61.015">  2  3  1 -1</clus>
<clus scale="   85.202">  1  6  2 -1</clus>
<clus scale="   85.202">  1  3  2 -1</clus>
</clustering>
</event>
<event>
 6    0  0.2036847E+002  0.1830131E+03  0.7546771E-02  0.1164918E+00
         21   -1    0    0  505  501  0.00000000000E+00  0.00000000000E+00  0.62777103155E+02  0.62777103155E+02  0.00000000000E+00 0. -1.
         21   -1    0    0  506  502 -0.00000000000E+00 -0.00000000000E+00 -0.10715871555E+04  0.10715871555E+04  0.00000000000E+00 0. -1.
         21    1    1    2  503  504  0.85538771386E+02 -0.10767613537E+03 -0.13985112725E+03  0.19613609900E+03  0.00000000000E+00 0. -1.
         21    1    1    2  504  501  0.11176373095E+02 -0.63578679815E+02 -0.40917956455E+02  0.76429307226E+02  0.00000000000E+00 0.  1.
         21    1    1    2  505  502 -0.22833677212E+01  0.13877203652E+03 -0.49834126984E+03  0.51730736813E+03  0.00000000000E+00 0. -1.
         21    1    1    2  506  503 -0.94431776760E+02  0.32482778657E+02 -0.32969969878E+03  0.34449148429E+03  0.00000000000E+00 0. -1.
<scales pt_clust_3="37.10167" pt_clust_4="37.10167" pt_clust_5="174.81817" pt_clust_6="99.86236"></scales>
<clustering>
<clus scale="   37.102">  3  4 -1 -1</clus>
<clus scale="   99.862">  2  6  1 -1</clus>
<clus scale="  174.818">  2  5  1 -1</clus>
<clus scale="  183.013">  1  3  2 -1</clus>
</clustering>
</event>
<event>
 6    0  0.2036847E+002  0.1341704E+03  0.7546771E-02  0.1221396E+00
         21   -1    0    0  502  501  0.00000000000E+00  0.00000000000E+00  0.25495168909E+02  0.25495168909E+02  0.00000000000E+00 0.  1.
         21   -1    0    0  503  502 -0.00000000000E+00 -0.00000000000E+00 -0.81087926687E+03  0.81087926687E+03  0.00000000000E+00 0. -1.
         21    1    1    2  503  506  0.17452085040E+02 -0.83674448865E+02 -0.33325685308E+03  0.34404377453E+03  0.00000000000E+00 0.  1.
         21    1    1    2  504  505  0.24187345436E+01  0.60149079244E+02 -0.98655526796E+02  0.11557108193E+03  0.00000000000E+00 0.  1.
         21    1    1    2  505  501 -0.56240731119E+02  0.47844736387E+02 -0.13426536065E+03  0.15322965022E+03  0.00000000000E+00 0.  1.
         21    1    1    2  506  504  0.36369911535E+02 -0.24319366766E+02 -0.21920635743E+03  0.22352992910E+03  0.00000000000E+00 0. -1.
<scales pt_clust_3="130.09347" pt_clust_4="52.97460" pt_clust_5="52.97460" pt_clust_6="34.79188"></scales>
<clustering>
<clus scale="   34.792">  3  6 -1 -1</clus>
<clus scale="   52.975">  4  5 -1 -1</clus>
<clus scale="  130.093">  2  3  1 -1</clus>
<clus scale="  134.170">  1  3  2 -1</clus>
</clustering>
</event>
<event>
 6    0  0.2036847E+002  0.7376039E+02  0.7546771E-02  0.1347753E+00
         21   -1    0    0  504  501  0.00000000000E+00  0.00000000000E+00  0.60767982219E+03  0.60767982219E+03  0.00000000000E+00 0. -1.
         21   -1    0    0  503  502 -0.00000000000E+00 -0.00000000000E+00 -0.18851364377E+03  0.18851364377E+03  0.00000000000E+00 0.  1.
         21    1    1    2  503  506  0.66316414006E+02  0.32274752896E+02 -0.14089887910E+03  0.15903465212E+03  0.00000000000E+00 0.  1.
         21    1    1    2  504  502 -0.32957284817E+02  0.80511231854E+01  0.10767872271E+03  0.11289690223E+03  0.00000000000E+00 0. -1.
         21    1    1    2  505  501 -0.24023472578E+01  0.55840247841E+02  0.41149602393E+03  0.41527446618E+03  0.00000000000E+00 0. -1.
         21    1    1    2  506  505 -0.30956781931E+02 -0.96166123922E+02  0.40890310880E+02  0.10898744543E+03  0.00000000000E+00 0. -1.
<scales pt_clust_3="73.76039" pt_clust_4="33.92644" pt_clust_5="69.26645" pt_clust_6="14000.00000"></scales>
<clustering>
<clus scale="   33.926">  1  4  2 -1</clus>
<clus scale="   69.266">  1  5  2 -1</clus>
<clus scale="   73.760">  2  3  1 -1</clus>
<clus scale="   33.926">  1  3  2 -1</clus>
</clustering>
</event>
<event>
 6    0  0.2036847E+002  0.1597172E+03  0.7546771E-02  0.1189016E+00
         21   -1    0    0  505  501  0.00000000000E+00  0.00000000000E+00  0.22980109319E+03  0.22980109319E+03  0.00000000000E+00 0. -1.
         21   -1    0    0  503  502 -0.00000000000E+00 -0.00000000000E+00 -0.32748387514E+03  0.32748387514E+03  0.00000000000E+00 0.  1.
         21    1    1    2  503  506 -0.85513864931E+02  0.57337209835E+02  0.12814028383E+03  0.16437794581E+03  0.00000000000E+00 0. -1.
         21    1    1    2  504  502  0.29270742144E+02 -0.95376782354E+01 -0.21399109451E+02  0.37492206351E+02  0.00000000000E+00 0.  1.
         21    1    1    2  505  504  0.68762064072E+02 -0.10412994395E+03 -0.25162308368E+03  0.28086552463E+03  0.00000000000E+00 0.  1.
         21    1    1    2  506  501 -0.12518941284E+02  0.56330412350E+02  0.47199127352E+02  0.74549291541E+02  0.00000000000E+00 0. -1.
<scales pt_clust_3="46.34323" pt_clust_4="30.78545" pt_clust_5="147.30249" pt_clust_6="46.34323"></scales>
<clustering>
<clus scale="   30.785">  2  4  1 -1</clus>
<clus scale="   46.343">  3  6 -1 -1</clus>
<clus scale="  147.302">  2  5  1 -1</clus>
<clus scale="  159.717">  1  3  2 -1</clus>
</clustering>
</event>
<event>
 6    0  0.2036847E+002  0.2207210E+03  0.7546771E-02  0.1133347E+00
         21   -1    0    0  505  501  0.00000000000E+00  0.00000000000E+00  0.21274622010E+03  0.21274622010E+03  0.00000000000E+00 0. -1.
         21   -1    0    0  504  502 -0.00000000000E+00 -0.00000000000E+00 -0.26258154876E+03  0.26258154876E+03  0.00000000000E+00 0. -1.
         21    1    1    2  503  502 -0.14076005428E+03  0.91314449721E+02 -0.12480141932E+03  0.20911029595E+03  0.00000000000E+00 0. -1.
         21    1    1    2  504  506  0.70779840894E+02 -0.16615127400E+02  0.16242753919E+02  0.74496143459E+02  0.00000000000E+00 0. -1.
         21    1    1    2  505  503 -0.28485753264E+02  0.27940585966E+02  0.78714873529E+01  0.40670318370E+02  0.00000000000E+00 0.  1.
         21    1    1    2  506  501  0.98465966648E+02 -0.10263990829E+03  0.50851849396E+02  0.15105101108E+03  0.00000000000E+00 0. -1.
<scales pt_clust_3="37.30470" pt_clust_4="42.32086" pt_clust_5="37.30470" pt_clust_6="215.33656"></scales>
<clustering>
<clus scale="   37.305">  3  5 -1 -1</clus>
<clus scale="   42.321">  4  6 -1 -1</clus>
<clus scale="  215.337">  1  4  2 -1</clus>
<clus scale="  215.337">  1  3  2 -1</clus>
</clustering>
</event>
<event>
 6    0  0.2036847E+002  0.7554289E+02  0.7546771E-02  0.1342198E+00
         21   -1    0    0  504  501  0.00000000000E+00  0.00000000000E+00  0.18754884780E+03  0.18754884780E+03  0.00000000000E+00 0.  1.
         21   -1    0    0  505  502 -0.00000000000E+00 -0.00000000000E+00 -0.22888662856E+03  0.22888662856E+03  0.00000000000E+00 0.  1.
         21    1    1    2  503  506  0.37416906591E+02 -0.57683187426E+02  0.57533635902E+02  0.89652073431E+02  0.00000000000E+00 0.  1.
         21    1    1    2  504  503 -0.43959295703E+02  0.25941377320E+02  0.77072218976E+02  0.92441882683E+02  0.00000000000E+00 0.  1.
         21    1    1    2  505  501 -0.54084122148E+02  0.65757452684E+02 -0.10162937075E+03  0.13258078236E+03  0.00000000000E+00 0.  1.
         21    1    1    2  506  502  0.60626511260E+02 -0.34015642578E+02 -0.74314264886E+02  0.10176073788E+03  0.00000000000E+00 0.  1.
<scales pt_clust_3="39.55989" pt_clust_4="51.04287" pt_clust_5="75.54289" pt_clust_6="14000.00000"></scales>
<clustering>
<clus scale="   51.043">  1  4  2 -1</clus>
<clus scale="   39.560">  1  3  2 -1</clus>
<clus scale="   75.543">  1  5  2 -1</clus>
<clus scale="   51.043">  1  3  2 -1</clus>
</clustering>
</event>
<event>
 6    0  0.2036847E+002  0.1639004E+03  0.7546771E-02  0.1184362E+00
         21   -1    0    0  506  501  0.00000000000E+00  0.00000000000E+00  0.33170174599E+03  0.33170174599E+03  0.00000000000E+00 0. -1.
         21   -1    0    0  505  502 -0.00000000000E+00 -0.00000000000E+00 -0.16526321010E+03  0.16526321010E+03  0.00000000000E+00 0. -1.
         21    1    1    2  503  502  0.34798846700E+02  0.24006302923E+02  0.18573198694E+02  0.46176032976E+02  0.00000000000E+00 0. -1.
         21    1    1    2  504  503  0.42011989173E+02  0.17020442611E+03  0.56851727337E+02  0.18430049594E+03  0.00000000000E+00 0. -1.
         21    1    1    2  505  501  0.26218713352E+02 -0.11338974647E+03  0.21909142748E+02  0.11842578296E+03  0.00000000000E+00 0. -1.
         21    1    1    2  506  504 -0.10302954922E+03 -0.80820982561E+02  0.69104467112E+02  0.14806264421E+03  0.00000000000E+00 0. -1.
<scales pt_clust_3="30.32231" pt_clust_4="30.32231" pt_clust_5="116.38151" pt_clust_6="151.82406"></scales>
<clustering>
<clus scale="   30.322">  3  4 -1 -1</clus>
<clus scale="  116.382">  2  5  1 -1</clus>
<clus scale="  151.824">  1  6  2 -1</clus>
<clus scale="  151.824">  1  3  2 -1</clus>
</clustering>
</event>
<event>
 6    0  0.2036847E+002  0.1343905E+03  0.7546771E-02  0.1221083E+00
         21   -1    0    0  505  501  0.00000000000E+00  0.00000000000E+00  0.25400177265E+03  0.25400177265E+03  0.00000000000E+00 0. -1.
         21   -1    0    0  504  502 -0.00000000000E+00 -0.00000000000E+00 -0.64502782337E+03  0.64502782337E+03  0.00000000000E+00 0.  1.
         21    1    1    2  503  506 -0.51421828497E+02 -0.76961514806E+02  0.19236931416E+03  0.21347888007E+03  0.00000000000E+00 0. -1.
         21    1    1    2  504  503  0.36423324474E+02  0.95312835539E+02 -0.53771652515E+03  0.54731184584E+03  0.00000000000E+00 0.  1.
         21    1    1    2  505  502  0.22611152121E+02  0.30545563064E+02 -0.72569679380E+02  0.81918581460E+02  0.00000000000E+00 0.  1.
         21    1    1    2  506  501 -0.76126480969E+01 -0.48896883797E+02  0.26890839652E+02  0.56320288648E+02  0.00000000000E+00 0. -1.
<scales pt_clust_3="14000.00000" pt_clust_4="134.39053" pt_clust_5="38.00389" pt_clust_6="48.61574"></scales>
<clustering>
<clus scale="   38.004">  2  5  1 -1</clus>
<clus scale="   48.616">  1  6  2 -1</clus>
<clus scale="  134.391">  2  4  1 -1</clus>
<clus scale="   48.616">  1  3  2 -1</clus>
</clustering>
</event>
<event>
 6    0  0.2036847E+002  0.6002238E+02  0.7546771E-02  0.1397738E+00
         21   -1    0    0  506  501  0.00000000000E+00  0.00000000000E+00  0.14837893491E+03  0.14837893491E+03  0.00000000000E+00 0. -1.
         21   -1    0    0  503  502 -0.00000000000E+00 -0.00000000000E+00 -0.71873275420E+03  0.71873275420E+03  0.00000000000E+00 0.  1.
         21    1    1    2  503  504  0.80105674338E+02 -0.22963069676E+01 -0.34557436627E+03  0.35474474585E+03  0.00000000000E+00 0. -1.
         21    1    1    2  504  505 -0.73658475167E+02  0.23486878593E+02  0.76903863046E+02  0.10904773533E+03  0.00000000000E+00 0. -1.
         21    1    1    2  505  501  0.35191997757E+02  0.22081787501E+02  0.39239728224E+02  0.57147513650E+02  0.00000000000E+00 0. -1.
         21    1    1    2  506  502 -0.41639196928E+02 -0.43272359127E+02 -0.34092304430E+03  0.34617169428E+03  0.00000000000E+00 0.  1.
<scales pt_clust_3="14000.00000" pt_clust_4="60.02238" pt_clust_5="41.54614" pt_clust_6="58.99724"></scales>
<clustering>
<clus scale="   41.546">  1  5  2 -1</clus>
<clus scale="   58.997">  2  6  1 -1</clus>
<clus scale="   60.022">  1  4  2 -1</clus>
<clus scale="   41.546">  1  3  2 -1</clus>
</clustering>
</event>
<event>
 6    0  0.2036847E+002  0.1223769E+03  0.7546771E-02  0.1239227E+00
         21   -1    0    0  506  501  0.00000000000E+00  0.00000000000E+00  0.11046282342E+04  0.11046282342E+04  0.00000000000E+00 0. -1.
         21   -1    0    0  503  502 -0.00000000000E+00 -0.00000000000E+00 -0.40152299338E+03  0.40152299338E+03  0.00000000000E+00 0.  1.
         21    1    1    2  503  501 -0.88701368414E+01 -0.79080722750E+02  0.33996385873E+02  0.86534353240E+02  0.00000000000E+00 0.  1.
         21    1    1    2  504  502  0.33936345617E+02 -0.17005384235E+02 -0.12380118936E+03  0.12948974143E+03  0.00000000000E+00 0.  1.
         21    1    1    2  505  504  0.70512509682E+02  0.40173831550E+02 -0.23894363245E+03  0.25234898504E+03  0.00000000000E+00 0.  1.
         21    1    1    2  506  505 -0.95578718458E+02  0.55912275435E+02  0.10318536768E+04  0.10377781479E+04  0.00000000000E+00 0. -1.
<scales pt_clust_3="79.57663" pt_clust_4="35.99920" pt_clust_5="35.99920" pt_clust_6="110.47826"></scales>
<clustering>
<clus scale="   35.999">  4  5 -1 -1</clus>
<clus scale="   79.577">  2  3  1 -1</clus>
<clus scale="  110.478">  1  6  2 -1</clus>
<clus scale="  110.478">  1  3  2 -1</clus>
</clustering>
</event>
<event>
 6    0  0.2036847E+002  0.1061176E+03  0.7546771E-02  0.1267933E+00
         21   -1    0    0  503  501  0.00000000000E+00  0.00000000000E+00  0.31085971534E+04  0.31085971534E+04  0.00000000000E+00 0.  1.
         21   -1    0    0  505  502 -0.00000000000E+00 -0.00000000000E+00 -0.54050052732E+03  0.54050052732E+03  0.00000000000E+00 0.  1.
         21    1    1    2  503  502  0.11936526585E+03  0.31558170284E+02  0.22913778558E+04  0.22947018243E+04  0.00000000000E+00 0.  1.
         21    1    1    2  504  501 -0.85354048823E+02  0.72913930438E+01  0.80232393310E+03  0.80688423686E+03  0.00000000000E+00 0. -1.
         21    1    1    2  505  506 -0.31396566627E+02  0.49397328066E+02 -0.29137432245E+03  0.29719494646E+03  0.00000000000E+00 0.  1.
         21    1    1    2  506  504 -0.26146503977E+01 -0.88246891394E+02 -0.23423084034E+03  0.25031667304E+03  0.00000000000E+00 0.  1.
<scales pt_clust_3="14000.00000" pt_clust_4="106.11758" pt_clust_5="58.53068" pt_clust_6="51.90556"></scales>
<clustering>
<clus scale="   58.531">  2  5  1 -1</clus>
<clus scale="   51.906">  2  6  1 -1</clus>
<clus scale="  106.118">  2  4  1 -1</clus>
<clus scale="  106.118">  1  3  2 -1</clus>
</clustering>
</event>
<event>
 6    0  0.2036847E+002  0.1460626E+03  0.7546771E-02  0.1205396E+00
         21   -1    0    0  506  501  0.00000000000E+00  0.00000000000E+00  0.28614416311E+03  0.28614416311E+03  0.00000000000E+00 0.  1.
         21   -1    0    0  504  502 -0.00000000000E+00 -0.00000000000E+00 -0.21103532137E+03  0.21103532137E+03  0.00000000000E+00 0.  1.
         21    1    1    2  503  501 -0.89516325041E+02  0.70648017576E+01 -0.13870549540E+03  0.16523407133E+03  0.00000000000E+00 0.  1.
         21    1    1    2  504  503 -0.45763535893E+02  0.59492782541E+00 -0.24890942718E+02  0.52098120753E+02  0.00000000000E+00 0.  1.
         21    1    1    2  505  502  0.43807163527E+02 -0.27741888867E+02  0.73610098222E+02  0.90039583154E+02  0.00000000000E+00 0.  1.
         21    1    1    2  506  505  0.91472697407E+02  0.20082159284E+02  0.16509518163E+03  0.18980770925E+03  0.00000000000E+00 0.  1.
<scales pt_clust_3="143.07162" pt_clust_4="32.79533" pt_clust_5="40.58546" pt_clust_6="40.58546"></scales>
<clustering>
<clus scale="   32.795">  3  4 -1 -1</clus>
<clus scale="   40.585">  5  6 -1 -1</clus>
<clus scale="  143.072">  2  3  1 -1</clus>
<clus scale="  146.063">  1  3  2 -1</clus>
</clustering>
</event>
<event>
 6    0  0.2036847E+002  0.2278162E+03  0.7546771E-02  0.1128186E+00
         21   -1    0    0  503  501  0.00000000000E+00  0.00000000000E+00  0.97624545190E+02  0.97624545190E+02  0.00000000000E+00 0.  1.
         21   -1    0    0  505  502 -0.00000000000E+00 -0.00000000000E+00 -0.69975047401E+03  0.69975047401E+03  0.00000000000E+00 0. -1.
         21    1    1    2  503  506  0.74495877017E+02 -0.83658053980E+02 -0.16718446190E+03  0.20124350918E+03  0.00000000000E+00 0. -1.
         21    1    1    2  504  501 -0.11907777203E+03  0.18602944959E+03 -0.19253726188E+03  0.29301376950E+03  0.00000000000E+00 0.  1.
         21    1    1    2  505  504 -0.43861857532E+02 -0.23502107438E+02 -0.13234321964E+03  0.14138931850E+03  0.00000000000E+00 0.  1.
         21    1    1    2  506  502  0.88443752542E+02 -0.78869288172E+02 -0.11006098540E+03  0.16172842202E+03  0.00000000000E+00 0. -1.
<scales pt_clust_3="42.59274" pt_clust_4="223.56452" pt_clust_5="49.76155" pt_clust_6="42.59274"></scales>
<clustering>
<clus scale="   42.593">  3  6 -1 -1</clus>
<clus scale="   49.762">  2  5  1 -1</clus>
<clus scale="  223.565">  1  4  2 -1</clus>
<clus scale="  223.565">  1  3  2 -1</clus>
</clustering>
</event>
<event>
 6    0  0.2036847E+002  0.1109928E+03  0.7546771E-02  0.1258742E+00
         21   -1    0    0  503  501  0.00000000000E+00  0.00000000000E+00  0.21695501417E+04  0.21695501417E+04  0.00000000000E+00 0. -1.
         21   -1    0    0  504  502 -0.00000000000E+00 -0.00000000000E+00 -0.67793163822E+02  0.67793163822E+02  0.00000000000E+00 0. -1.
         21    1    1    2  503  505  0.41849689078E+02 -0.75732854277E+02  0.25216847069E+02  0.90126306198E+02  0.00000000000E+00 0. -1.
         21    1    1    2  504  506 -0.39310168920E+02 -0.42452621094E+01  0.51945569945E+02  0.65281343949E+02  0.00000000000E+00 0.  1.
         21    1    1    2  505  502  0.64038759679E+02 -0.10339275896E+02  0.11698215612E+02  0.65914426462E+02  0.00000000000E+00 0.  1.
         21    1    1    2  506  501 -0.66578279837E+02  0.90317392283E+02  0.20128963453E+04  0.20160212289E+04  0.00000000000E+00 0. -1.
<scales pt_clust_3="14000.00000" pt_clust_4="39.53874" pt_clust_5="48.18124" pt_clust_6="110.99276"></scales>
<clustering>
<clus scale="   39.539">  2  4  1 -1</clus>
<clus scale="   48.181">  2  5  1 -1</clus>
<clus scale="  110.993">  1  6  2 -1</clus>
<clus scale="  110.993">  1  3  2 -1</clus>
</clustering>
</event>
<event>
 6    0  0.2036847E+002  0.1632097E+03  0.7546771E-02  0.1185120E+00
         21   -1    0    0  505  501  0.00000000000E+00  0.00000000000E+00  0.18560189857E+03  0.18560189857E+03  0.00000000000E+00 0.  1.
         21   -1    0    0  504  502 -0.00000000000E+00 -0.00000000000E+00 -0.15275644367E+03  0.15275644367E+03  0.00000000000E+00 0.  1.
         21    1    1    2  503  501 -0.39086050935E+02 -0.42579824859E+02  0.58563561200E+02  0.82282753741E+02  0.00000000000E+00 0.  1.
         21    1    1    2  504  503 -0.54828855771E+02 -0.74784331976E+02  0.49904951917E+01  0.92864443015E+02  0.00000000000E+00 0.  1.
         21    1    1    2  505  506  0.26095715784E+02  0.70025971849E+02  0.72211385101E+00  0.74733824766E+02  0.00000000000E+00 0.  1.
         21    1    1    2  506  502  0.67819190921E+02  0.47338184986E+02 -0.31430715339E+02  0.88477320720E+02  0.00000000000E+00 0.  1.
<scales pt_clust_3="50.20028" pt_clust_4="50.20028" pt_clust_5="52.92918" pt_clust_6="160.29616"></scales>
<clustering>
<clus scale="   50.200">  3  4 -1 -1</clus>
<clus scale="   52.929">  5  6 -1 -1</clus>
<clus scale="  160.296">  2  5  1 -1</clus>
<clus scale="  163.210">  1  3  2 -1</clus>
</clustering>
</event>
<event>
 6    0  0.2036847E+002  0.1388863E+03  0.7546771E-02  0.1214835E+00
         21   -1    0    0  506  501  0.00000000000E+00  0.00000000000E+00  0.55266608813E+03  0.55266608813E+03  0.00000000000E+00 0. -1.
         21   -1    0    0  504  502 -0.00000000000E+00 -0.00000000000E+00 -0.96972433744E+02  0.96972433744E+02  0.00000000000E+00 0.  1.
         21    1    1    2  503  502  0.22168855180E+02  0.57161733847E+02  0.54751667550E+02  0.82198948022E+02  0.00000000000E+00 0. -1.
         21    1    1    2  504  501  0.90819510160E+02  0.23466227253E+02 -0.40810340509E+02  0.10229531338E+03  0.00000000000E+00 0.  1.
         21    1    1    2  505  503 -0.69012911689E+02 -0.44730345294E+02  0.18938100139E+03  0.20646730844E+03  0.00000000000E+00 0. -1.
         21    1    1    2  506  505 -0.43975453651E+02 -0.35897615806E+02  0.25237132596E+03  0.25867695203E+03  0.00000000000E+00 0. -1.
<scales pt_clust_3="61.31005" pt_clust_4="131.69123" pt_clust_5="36.65783" pt_clust_6="36.65783"></scales>
<clustering>
<clus scale="   36.658">  5  6 -1 -1</clus>
<clus scale="   61.310">  2  3  1 -1</clus>
<clus scale="  131.691">  2  4  1 -1</clus>
<clus scale="  138.886">  1  3  2 -1</clus>
</clustering>
</event>
<event>
 6    0  0.2036847E+002  0.9810291E+02  0.7546771E-02  0.1284337E+00
         21   -1    0    0  506  501  0.00000000000E+00  0.00000000000E+00  0.27955083098E+03  0.27955083098E+03  0.00000000000E+00 0.  1.
         21   -1    0    0  505  502 -0.00000000000E+00 -0.00000000000E+00 -0.38420359358E+03  0.38420359358E+03  0.00000000000E+00 0. -1.
         21    1    1    2  503  501 -0.36904012536E+02 -0.71589315170E+01  0.74088500883E+02  0.83079855590E+02  0.00000000000E+00 0.  1.
         21    1    1    2  504  502  0.71493243269E+02 -0.10509496843E+03 -0.32636772665E+03  0.35024581257E+03  0.00000000000E+00 0. -1.
         21    1    1    2  505  503 -0.60911742245E+00  0.36065233993E+02 -0.21396977964E+02  0.41939275065E+02  0.00000000000E+00 0.  1.
         21    1    1    2  506  504 -0.33980113310E+02  0.76188665952E+02  0.16902344114E+03  0.18848948134E+03  0.00000000000E+00 0.  1.
<scales pt_clust_3="37.51475" pt_clust_4="14000.00000" pt_clust_5="36.07038" pt_clust_6="98.10291"></scales>
<clustering>
<clus scale="   36.070">  2  5  1 -1</clus>
<clus scale="   37.515">  1  3  2 -1</clus>
<clus scale="   98.103">  1  6  2 -1</clus>
<clus scale="   37.515">  1  3  2 -1</clus>
</clustering>
</event>
<event>
 6    0  0.2036847E+002  0.1118928E+03  0.7546771E-02  0.1257104E+00
         21   -1    0    0  506  501  0.00000000000E+00  0.00000000000E+00  0.59452439329E+03  0.59452439329E+03  0.00000000000E+00 0. -1.
         21   -1    0    0  504  502 -0.00000000000E+00 -0.00000000000E+00 -0.44657168554E+02  0.44657168554E+02  0.00000000000E+00 0. -1.
         21    1    1    2  503  502 -0.11000611150E+02  0.57365021879E+02  0.14577436091E+02  0.60201834057E+02  0.00000000000E+00 0. -1.
         21    1    1    2  504  501  0.52197470285E+02 -0.49306543835E+02  0.18876261377E+03  0.20195800437E+03  0.00000000000E+00 0.  1.
         21    1    1    2  505  503 -0.37202974857E+02  0.51086219390E+02  0.70406139846E+02  0.94609131048E+02  0.00000000000E+00 0. -1.
         21    1    1    2  506  505 -0.39938842782E+01 -0.59144697434E+02  0.27612103502E+03  0.28241259237E+03  0.00000000000E+00 0. -1.
<scales pt_clust_3="49.57389" pt_clust_4="99.30277" pt_clust_5="49.57389" pt_clust_6="59.27939"></scales>
<clustering>
<clus scale="   49.574">  3  5 -1 -1</clus>
<clus scale="   59.279">  1  6  2 -1</clus>
<clus scale="   99.303">  1  4  2 -1</clus>
<clus scale="   59.279">  1  3  2 -1</clus>
</clustering>
</event>
<event>
 6    0  0.2036847E+002  0.1327498E+03  0.7546771E-02  0.1223432E+00
         21   -1    0    0  506  501  0.00000000000E+00  0.00000000000E+00  0.60644743030E+03  0.60644743030E+03  0.00000000000E+00 0.  1.
         21   -1    0    0  504  502 -0.00000000000E+00 -0.00000000000E+00 -0.67403432601E+03  0.67403432601E+03  0.00000000000E+00 0. -1.
         21    1    1    2  503  505  0.15985736414E+02 -0.34441811048E+02  0.11193158996E+03  0.11819671293E+03  0.00000000000E+00 0.  1.
         21    1    1    2  504  501 -0.59560558574E+02 -0.48496084404E+02 -0.32542154915E+03  0.33436284930E+03  0.00000000000E+00 0. -1.
         21    1    1    2  505  502 -0.40236091585E+02  0.11892549789E+03 -0.32492705935E+03  0.34833864416E+03  0.00000000000E+00 0. -1.
         21    1    1    2  506  503  0.83810913746E+02 -0.35987602441E+02  0.47083012283E+03  0.47958354992E+03  0.00000000000E+00 0.  1.
<scales pt_clust_3="34.20447" pt_clust_4="76.80710" pt_clust_5="121.70514" pt_clust_6="34.20447"></scales>
<clustering>
<clus scale="   34.204">  3  6 -1 -1</clus>
<clus scale="   76.807">  2  4  1 -1</clus>
<clus scale="  121.705">  2  5  1 -1</clus>
<clus scale="  132.750">  1  3  2 -1</clus>
</clustering>
</event>
<event>
 6    0  0.2036847E+002  0.1282852E+03  0.7546771E-02  0.1230023E+00
         21   -1    0    0  504  501  0.00000000000E+00  0.00000000000E+00  0.42872208043E+03  0.42872208043E+03  0.00000000000E+00 0.  1.
         21   -1    0    0  505  502 -0.00000000000E+00 -0.00000000000E+00 -0.81084579141E+02  0.81084579141E+02  0.00000000000E+00 0.  1.
         21    1    1    2  503  506 -0.66432561197E+02 -0.88327650205E+01  0.70354902623E+02  0.97165401497E+02  0.00000000000E+00 0.  1.
         21    1    1    2  504  502  0.18258477553E+02 -0.83770537328E+02  0.11636575238E+02  0.86523319458E+02  0.00000000000E+00 0.  1.
         21    1    1    2  505  503  0.10352402911E+03  0.55136267358E+02  0.13127088726E+03  0.17603771875E+03  0.00000000000E+00 0.  1.
         21    1    1    2  506  501 -0.55349945466E+02  0.37467034990E+02  0.13437513617E+03  0.15008021987E+03  0.00000000000E+00 0.  1.
<scales pt_clust_3="59.62891" pt_clust_4="85.73724" pt_clust_5="113.54291" pt_clust_6="59.62891"></scales>
<clustering>
<clus scale="   59.629">  3  6 -1 -1</clus>
<clus scale="   85.737">  2  4  1 -1</clus>
<clus scale="  113.543">  2  5  1 -1</clus>
<clus scale="  128.285">  1  3  2 -1</clus>
</clustering>
</event>
<event>
 6    0  0.2036847E+002  0.1203600E+03  0.7546771E-02  0.1242504E+00
         21   -1    0    0  506  501  0.00000000000E+00  0.00000000000E+00  0.10944697674E+04  0.10944697674E+04  0.00000000000E+00 0. -1.
         21   -1    0    0  505  502 -0.00000000000E+00 -0.00000000000E+00 -0.10730848850E+03  0.10730848850E+03  0.00000000000E+00 0.  1.
         21    1    1    2  503  504  0.61256098037E+02 -0.74246265928E+02  0.45846064847E+03  0.46845595710E+03  0.00000000000E+00 0. -1.
         21    1    1    2  504  502 -0.57383315657E+02  0.10828372648E+03 -0.56967021411E+02  0.13514233927E+03  0.00000000000E+00 0.  1.
         21    1    1    2  505  501  0.11683233503E+02  0.29479694513E+02  0.54908249430E+02  0.63407146199E+02  0.00000000000E+00 0. -1.
         21    1    1    2  506  503 -0.15556015883E+02 -0.63517155065E+02  0.53075940245E+03  0.53477281336E+03  0.00000000000E+00 0. -1.
<scales pt_clust_3="120.36003" pt_clust_4="14000.00000" pt_clust_5="31.71041" pt_clust_6="49.28006"></scales>
<clustering>
<clus scale="   31.710">  1  5  2 -1</clus>
<clus scale="   49.280">  1  6  2 -1</clus>
<clus scale="  120.360">  1  3  2 -1</clus>
<clus scale="   31.710">  1  3  2 -1</clus>
</clustering>
</event>
<event>
 6    0  0.2036847E+002  0.3588125E+03  0.7546771E-02  0.1059055E+00
         21   -1    0    0  504  501  0.00000000000E+00  0.00000000000E+00  0.20546092248E+04  0.20546092248E+04  0.00000000000E+00 0. -1.
         21   -1    0    0  505  502 -0.00000000000E+00 -0.00000000000E+00 -0.12853722023E+03  0.12853722023E+03  0.00000000000E+00 0.  1.
         21    1    1    2  503  506  0.76036343320E+02  0.29628555135E+03  0.11640860569E+04  0.12036041714E+04  0.00000000000E+00 0. -1.
         21    1    1    2  504  502 -0.26733277332E+02 -0.28189635687E+02  0.88424680953E+02  0.96582854994E+02  0.00000000000E+00 0. -1.
         21    1    1    2  505  503 -0.81343985246E+02 -0.33218879632E+03  0.18434240892E+03  0.38852073827E+03  0.00000000000E+00 0.  1.
         21    1    1    2  506  501  0.32040919258E+02  0.64092880662E+02  0.48921885775E+03  0.49443868036E+03  0.00000000000E+00 0. -1.
<scales pt_clust_3="42.78579" pt_clust_4="38.85002" pt_clust_5="346.93996" pt_clust_6="42.78579"></scales>
<clustering>
<clus scale="   38.850">  1  4  2 -1</clus>
<clus scale="   42.786">  3  6 -1 -1</clus>
<clus scale="  346.940">  2  5  1 -1</clus>
<clus scale="   38.850">  1  3  2 -1</clus>
</clustering>
</event>
<event>
 6    0  0.2036847E+002  0.1009843E+03  0.7546771E-02  0.1278240E+00
         21   -1    0    0  505  501  0.00000000000E+00  0.00000000000E+00  0.40274327009E+03  0.40274327009E+03  0.00000000000E+00 0. -1.
         21   -1    0    0  504  502 -0.00000000000E+00 -0.00000000000E+00 -0.21624798114E+03  0.21624798114E+03  0.00000000000E+00 0.  1.
         21    1    1    2  503  501 -0.90204496978E+02  0.15330921137E+01  0.14836285164E+03  0.17363967690E+03  0.00000000000E+00 0. -1.
         21    1    1    2  504  503  0.95677700239E+02 -0.94372418526E+02 -0.14688519794E+03  0.19908700881E+03  0.00000000000E+00 0.  1.
         21    1    1    2  505  506  0.10797813350E+02  0.63078533636E+02  0.19940378078E+03  0.20942149356E+03  0.00000000000E+00 0. -1.
         21    1    1    2  506  502 -0.16271016611E+02  0.29760792777E+02 -0.14386145528E+02  0.36843071960E+02  0.00000000000E+00 0. -1.
<scales pt_clust_3="100.98425" pt_clust_4="14000.00000" pt_clust_5="64.69703" pt_clust_6="33.91830"></scales>
<clustering>
<clus scale="   33.918">  2  6  1 -1</clus>
<clus scale="   64.697">  1  5  2 -1</clus>
<clus scale="  100.984">  1  3  2 -1</clus>
<clus scale="   64.697">  1  3  2 -1</clus>
</clustering>
</event>
<event>
 6    0  0.2036847E+002  0.1072928E+03  0.7546771E-02  0.1265667E+00
         21   -1    0    0  505  501  0.00000000000E+00  0.00000000000E+00  0.12376841162E+03  0.12376841162E+03  0.00000000000E+00 0. -1.
         21   -1    0    0  504  502 -0.00000000000E+00 -0.00000000000E+00 -0.19151653158E+03  0.19151653158E+03  0.00000000000E+00 0. -1.
         21    1    1    2  503  501 -0.91182941323E+02  0.20117457273E+02 -0.13966803715E+02  0.94414577696E+02  0.00000000000E+00 0. -1.
         21    1    1    2  504  503 -0.32905379894E+02 -0.33787496988E+02 -0.12883519672E+02  0.48891144984E+02  0.00000000000E+00 0. -1.
         21    1    1    2  505  506  0.12558468240E+03 -0.25233625802E+02 -0.30281693348E+02  0.13162533675E+03  0.00000000000E+00 0. -1.
         21    1    1    2  506  502 -0.14963611796E+01  0.38903665517E+02 -0.10616103222E+02  0.40353883766E+02  0.00000000000E+00 0. -1.
<scales pt_clust_3="107.29276" pt_clust_4="42.49789" pt_clust_5="14000.00000" pt_clust_6="38.93243"></scales>
<clustering>
<clus scale="   38.932">  2  6  1 -1</clus>
<clus scale="   42.498">  2  4  1 -1</clus>
<clus scale="  107.293">  1  3  2 -1</clus>
<clus scale="  107.293">  1  3  2 -1</clus>
</clustering>
</event>
<event>
 6    0  0.2036847E+002  0.1223769E+03  0.7546771E-02  0.1239227E+00
         21   -1    0    0  506  501  0.00000000000E+00  0.00000000000E+00  0.21475404978E+04  0.21475404978E+04  0.00000000000E+00 0.  1.
         21   -1    0    0  505  502 -0.00000000000E+00 -0.00000000000E+00 -0.14025465162E+03  0.14025465162E+03  0.00000000000E+00 0. -1.
         21    1    1    2  503  502 -0.59672978492E+02 -0.10125507979E+03 -0.98269765373E+02  0.15320052980E+03  0.00000000000E+00 0. -1.
         21    1    1    2  504  501  0.28781294786E+02  0.67392287274E+02  0.18281838923E+04  0.18296519963E+04  0.00000000000E+00 0.  1.
         21    1    1    2  505  504 -0.28095364820E+02  0.13164167885E+02  0.13620928095E+02  0.33884724031E+02  0.00000000000E+00 0. -1.
         21    1    1    2  506  503  0.58987048527E+02  0.20698624630E+02  0.26375079116E+03  0.27105789934E+03  0.00000000000E+00 0. -1.
<scales pt_clust_3="122.37686" pt_clust_4="14000.00000" pt_clust_5="31.02652" pt_clust_6="61.89427"></scales>
<clustering>
<clus scale="   31.027">  2  5  1 -1</clus>
<clus scale="   61.894">  1  6  2 -1</clus>
<clus scale="  122.377">  2  3  1 -1</clus>
<clus scale="   61.894">  1  3  2 -1</clus>
</clustering>
</event>
<event>
 6    0  0.2036847E+002  0.9059912E+02  0.7546771E-02  0.1301407E+00
         21   -1    0    0  504  501  0.00000000000E+00  0.00000000000E+00  0.20445256038E+04  0.20445256038E+04  0.00000000000E+00 0. -1.
         21   -1    0    0  505  502 -0.00000000000E+00 -0.00000000000E+00 -0.11461150351E+03  0.11461150351E+03  0.00000000000E+00 0.  1.
         21    1    1    2  503  501  0.29846838972E+01  0.15134850395E+03  0.17213585196E+04  0.17280018608E+04  0.00000000000E+00 0. -1.
         21    1    1    2  504  506  0.42657579556E+02 -0.69827963523E+02  0.27754840408E+03  0.28935917160E+03  0.00000000000E+00 0. -1.
         21    1    1    2  505  503 -0.44818057200E+02 -0.22917088473E+02  0.11747325354E+01  0.50351079351E+02  0.00000000000E+00 0. -1.
         21    1    1    2  506  502 -0.82420625339E+00 -0.58603451951E+02 -0.70167555950E+02  0.91424995513E+02  0.00000000000E+00 0.  1.
<scales pt_clust_3="90.59912" pt_clust_4="81.64337" pt_clust_5="50.33737" pt_clust_6="14000.00000"></scales>
<clustering>
<clus scale="   50.337">  2  5  1 -1</clus>
<clus scale="   81.643">  1  4  2 -1</clus>
<clus scale="   90.599">  1  3  2 -1</clus>
<clus scale="   81.643">  1  3  2 -1</clus>
</clustering>
</event>
<event>
 6    0  0.2036847E+002  0.7836519E+02  0.7546771E-02  0.1333756E+00
         21   -1    0    0  506  501  0.00000000000E+00  0.00000000000E+00  0.32789722993E+03  0.32789722993E+03  0.00000000000E+00 0. -1.
         21   -1    0    0  505  502 -0.00000000000E+00 -0.00000000000E+00 -0.24558130516E+03  0.24558130516E+03  0.00000000000E+00 0.  1.
         21    1    1    2  503  502  0.69592613518E+02 -0.19642523628E+02 -0.11662416179E+03  0.13722301448E+03  0.00000000000E+00 0.  1.
         21    1    1    2  504  501  0.25197797280E+02  0.62083788580E+02  0.19582649912E+03  0.20697184241E+03  0.00000000000E+00 0. -1.
         21    1    1    2  505  504 -0.59889318204E+02 -0.63189244373E+02 -0.91515371831E+02  0.12631181386E+03  0.00000000000E+00 0.  1.
         21    1    1    2  506  503 -0.34901092594E+02  0.20747979421E+02  0.94628959262E+02  0.10297186434E+03  0.00000000000E+00 0. -1.
<scales pt_clust_3="70.54972" pt_clust_4="14000.00000" pt_clust_5="78.36519" pt_clust_6="40.60252"></scales>
<clustering>
<clus scale="   40.603">  1  6  2 -1</clus>
<clus scale="   70.550">  2  3  1 -1</clus>
<clus scale="   78.365">  2  5  1 -1</clus>
<clus scale="   40.603">  1  3  2 -1</clus>
</clustering>
</event>
<event>
 6    0  0.2036847E+002  0.1476905E+03  0.7546771E-02  0.1203340E+00
         21   -1    0    0  503  501  0.00000000000E+00  0.00000000000E+00  0.33308609846E+02  0.33308609846E+02  0.00000000000E+00 0. -1.
         21   -1    0    0  505  502 -0.00000000000E+00 -0.00000000000E+00 -0.11989726918E+04  0.11989726918E+04  0.00000000000E+00 0. -1.
         21    1    1    2  503  506 -0.55764356005E+02  0.47493460201E+02 -0.53112877647E+03  0.53615582563E+03  0.00000000000E+00 0. -1.
         21    1    1    2  504  501  0.77691805601E+02 -0.60909633186E+02 -0.11360310821E+03  0.15050470514E+03  0.00000000000E+00 0. -1.
         21    1    1    2  505  504  0.48915938569E+02  0.11728124039E+01 -0.52744325476E+02  0.71945176384E+02  0.00000000000E+00 0. -1.
         21    1    1    2  506  502 -0.70843388166E+02  0.12243360581E+02 -0.46818787178E+03  0.47367559448E+03  0.00000000000E+00 0. -1.
<scales pt_clust_3="145.34694" pt_clust_4="33.12960" pt_clust_5="33.12960" pt_clust_6="38.72302"></scales>
<clustering>
<clus scale="   33.130">  4  5 -1 -1</clus>
<clus scale="   38.723">  3  6 -1 -1</clus>
<clus scale="  145.347">  2  3  1 -1</clus>
<clus scale="  147.690">  1  3  2 -1</clus>
</clustering>
</event>
<event>
 6    0  0.2036847E+002  0.8072122E+02  0.7546771E-02  0.1327017E+00
         21   -1    0    0  506  501  0.00000000000E+00  0.00000000000E+00  0.35237906530E+02  0.35237906530E+02  0.00000000000E+00 0. -1.
         21   -1    0    0  504  502 -0.00000000000E+00 -0.00000000000E+00 -0.63557943997E+03  0.63557943997E+03  0.00000000000E+00 0. -1.
         21    1    1    2  503  502 -0.29059269510E+02  0.76908472776E+01 -0.11494571328E+03  0.11881122538E+03  0.00000000000E+00 0. -1.
         21    1    1    2  504  505  0.44987785398E+01 -0.78000989744E+02 -0.28495841336E+03  0.29547536404E+03  0.00000000000E+00 0. -1.
         21    1    1    2  505  501  0.72928021216E+02  0.81193457450E+02 -0.15282625407E+03  0.18779440286E+03  0.00000000000E+00 0. -1.
         21    1    1    2  506  503 -0.48367530246E+02 -0.10883314983E+02 -0.47611152737E+02  0.68736354224E+02  0.00000000000E+00 0. -1.
<scales pt_clust_3="30.05978" pt_clust_4="80.72122" pt_clust_5="14000.00000" pt_clust_6="52.59014"></scales>
<clustering>
<clus scale="   30.060">  2  3  1 -1</clus>
<clus scale="   52.590">  1  6  2 -1</clus>
<clus scale="   80.721">  2  4  1 -1</clus>
<clus scale="   52.590">  1  3  2 -1</clus>
</clustering>
</event>
<event>
 6    0  0.2036847E+002  0.9356152E+02  0.7546771E-02  0.1294449E+00
         21   -1    0    0  503  501  0.00000000000E+00  0.00000000000E+00  0.47491689422E+03  0.47491689422E+03  0.00000000000E+00 0.  1.
         21   -1    0    0  506  502 -0.00000000000E+00 -0.00000000000E+00 -0.20977186816E+04  0.20977186816E+04  0.00000000000E+00 0. -1.
         21    1    1    2  503  505 -0.10785682239E+02  0.78287646672E+02  0.42719249104E+03  0.43444068751E+03  0.00000000000E+00 0.  1.
         21    1    1    2  504  501 -0.41090077567E+02 -0.36168661587E+00  0.23065399168E+02  0.47122584080E+02  0.00000000000E+00 0. -1.
         21    1    1    2  505  502  0.23418877392E+02 -0.14682395924E+03 -0.18483671300E+04  0.18543372849E+04  0.00000000000E+00 0. -1.
         21    1    1    2  506  504  0.28456882414E+02  0.68897999180E+02 -0.22469254754E+03  0.23673501931E+03  0.00000000000E+00 0. -1.
<scales pt_clust_3="93.56152" pt_clust_4="41.09167" pt_clust_5="14000.00000" pt_clust_6="74.32595"></scales>
<clustering>
<clus scale="   41.092">  1  4  2 -1</clus>
<clus scale="   74.326">  2  6  1 -1</clus>
<clus scale="   93.562">  1  3  2 -1</clus>
<clus scale="   41.092">  1  3  2 -1</clus>
</clustering>
</event>
<event>
 6    0  0.2036847E+002  0.1258281E+03  0.7546771E-02  0.1233781E+00
         21   -1    0    0  504  501  0.00000000000E+00  0.00000000000E+00  0.29166693330E+03  0.29166693330E+03  0.00000000000E+00 0. -1.
         21   -1    0    0  505  502 -0.00000000000E+00 -0.00000000000E+00 -0.50304672545E+03  0.50304672545E+03  0.00000000000E+00 0.  1.
         21    1    1    2  503  502 -0.33208146076E+02 -0.34146860639E+02 -0.38805059311E+02  0.61437949880E+02  0.00000000000E+00 0. -1.
         21    1    1    2  504  503 -0.82786872789E+02 -0.81880139657E+02  0.25110544459E+03  0.27678867007E+03  0.00000000000E+00 0. -1.
         21    1    1    2  505  506  0.76579058033E+02  0.54702702821E+02 -0.19603742902E+03  0.21745668856E+03  0.00000000000E+00 0.  1.
         21    1    1    2  506  501  0.39415960833E+02  0.61324297474E+02 -0.22764274842E+03  0.23903035024E+03  0.00000000000E+00 0.  1.
<scales pt_clust_3="47.63181" pt_clust_4="117.78916" pt_clust_5="38.94889" pt_clust_6="38.94889"></scales>
<clustering>
<clus scale="   38.949">  5  6 -1 -1</clus>
<clus scale="   47.632">  2  3  1 -1</clus>
<clus scale="  117.789">  1  4  2 -1</clus>
<clus scale="  117.789">  1  3  2 -1</clus>
</clustering>
</event>
<event>
 6    0  0.2036847E+002  0.1310449E+03  0.7546771E-02  0.1225913E+00
         21   -1    0    0  504  501  0.00000000000E+00  0.00000000000E+00  0.38277884946E+03  0.38277884946E+03  0.00000000000E+00 0. -1.
         21   -1    0    0  506  502 -0.00000000000E+00 -0.00000000000E+00 -0.24339628508E+03  0.24339628508E+03  0.00000000000E+00 0. -1.
         21    1    1    2  503  505  0.31141044650E+02 -0.48763295343E+02  0.87424372746E+02  0.10483627514E+03  0.00000000000E+00 0.  1.
         21    1    1    2  504  502 -0.14601539039E+03 -0.35254990738E+01 -0.59686008512E+02  0.15778258138E+03  0.00000000000E+00 0. -1.
         21    1    1    2  505  501  0.61456306334E+02 -0.21956408593E+02  0.21550068128E+03  0.22516550601E+03  0.00000000000E+00 0. -1.
         21    1    1    2  506  503  0.53418039407E+02  0.74245203010E+02 -0.10385648113E+03  0.13839077201E+03  0.00000000000E+00 0. -1.
<scales pt_clust_3="56.19630" pt_clust_4="116.66506" pt_clust_5="56.19630" pt_clust_6="91.46495"></scales>
<clustering>
<clus scale="   56.196">  3  5 -1 -1</clus>
<clus scale="   91.465">  2  6  1 -1</clus>
<clus scale="  116.665">  2  4  1 -1</clus>
<clus scale="  131.045">  1  3  2 -1</clus>
</clustering>
</event>
<event>
 6    0  0.2036847E+002  0.9376681E+02  0.7546771E-02  0.1293978E+00
         21   -1    0    0  506  501  0.00000000000E+00  0.00000000000E+00  0.54234330286E+03  0.54234330286E+03  0.00000000000E+00 0.  1.
         21   -1    0    0  504  502 -0.00000000000E+00 -0.00000000000E+00 -0.65941403487E+02  0.65941403487E+02  0.00000000000E+00 0.  1.
         21    1    1    2  503  501  0.37456834137E+02 -0.84046218911E+02  0.39250031731E+03  0.40314176220E+03  0.00000000000E+00 0.  1.
         21    1    1    2  504  505  0.10048168174E+02  0.29502065360E+02 -0.45545882654E+01  0.31497330338E+02  0.00000000000E+00 0. -1.
         21    1    1    2  505  503 -0.65934445309E+02  0.85763436499E+02  0.45294422397E+02  0.11727873984E+03  0.00000000000E+00 0.  1.
         21    1    1    2  506  502  0.18429442999E+02 -0.31219282947E+02  0.43161747930E+02  0.56366873972E+02  0.00000000000E+00 0.  1.
<scales pt_clust_3="93.76681" pt_clust_4="31.16629" pt_clust_5="14000.00000" pt_clust_6="33.61453"></scales>
<clustering>
<clus scale="   31.166">  2  4  1 -1</clus>
<clus scale="   33.615">  2  6  1 -1</clus>
<clus scale="   93.767">  1  3  2 -1</clus>
<clus scale="   93.767">  1  3  2 -1</clus>
</clustering>
</event>
<event>
 6    0  0.2036847E+002  0.2979830E+03  0.7546771E-02  0.1086253E+00
         21   -1    0    0  504  501  0.00000000000E+00  0.00000000000E+00  0.29901396765E+04  0.29901396765E+04  0.00000000000E+00 0. -1.
         21   -1    0    0  501  502 -0.00000000000E+00 -0.00000000000E+00 -0.30405145364E+03  0.30405145364E+03  0.00000000000E+00 0.  1.
         21    1    1    2  503  502 -0.10251421517E+03  0.10099621298E+03 -0.13919542422E+03  0.20021180153E+03  0.00000000000E+00 0.  1.
         21    1    1    2  504  506  0.27666494440E+02 -0.23044858433E+03  0.24755124818E+04  0.24863696492E+04  0.00000000000E+00 0. -1.
         21    1    1    2  505  503  0.97698680703E+02  0.18895091024E+03 -0.36752667290E+02  0.21586624851E+03  0.00000000000E+00 0.  1.
         21    1    1    2  506  505 -0.22850959976E+02 -0.59498538899E+02  0.38652383253E+03  0.39174343085E+03  0.00000000000E+00 0. -1.
<scales pt_clust_3="143.90761" pt_clust_4="47.42488" pt_clust_5="283.90732" pt_clust_6="47.42488"></scales>
<clustering>
<clus scale="   47.425">  4  6 -1 -1</clus>
<clus scale="  143.908">  2  3  1 -1</clus>
<clus scale="  283.907">  2  5  1 -1</clus>
<clus scale="  297.983">  1  3  2 -1</clus>
</clustering>
</event>
<event>
 6    0  0.2036847E+002  0.3901515E+03  0.7546771E-02  0.1047244E+00
         21   -1    0    0  503  501  0.00000000000E+00  0.00000000000E+00  0.20513057076E+03  0.20513057076E+03  0.00000000000E+00 0.  1.
         21   -1    0    0  506  502 -0.00000000000E+00 -0.00000000000E+00 -0.95196333181E+03  0.95196333181E+03  0.00000000000E+00 0.  1.
         21    1    1    2  503  505  0.53046301922E+02  0.32817215518E+03 -0.18445050173E+03  0.38017477713E+03  0.00000000000E+00 0.  1.
         21    1    1    2  504  501 -0.65203980731E+01 -0.35162340923E+03 -0.30054547582E+03  0.46261119803E+03  0.00000000000E+00 0.  1.
         21    1    1    2  505  502  0.15776332945E+02  0.82630667153E+02 -0.96835793739E+02  0.12827272034E+03  0.00000000000E+00 0.  1.
         21    1    1    2  506  504 -0.62302236794E+02 -0.59179413102E+02 -0.16500098976E+03  0.18603520706E+03  0.00000000000E+00 0.  1.
<scales pt_clust_3="38.64408" pt_clust_4="382.51386" pt_clust_5="38.64408" pt_clust_6="85.92888"></scales>
<clustering>
<clus scale="   38.644">  3  5 -1 -1</clus>
<clus scale="   85.929">  2  6  1 -1</clus>
<clus scale="  382.514">  1  4  2 -1</clus>
<clus scale="  382.514">  1  3  2 -1</clus>
</clustering>
</event>
<event>
 6    0  0.2036847E+002  0.8725793E+02  0.7546771E-02  0.1309631E+00
         21   -1    0    0  505  501  0.00000000000E+00  0.00000000000E+00  0.10155542746E+04  0.10155542746E+04  0.00000000000E+00 0.  1.
         21   -1    0    0  503  502 -0.00000000000E+00 -0.00000000000E+00 -0.62947338771E+02  0.62947338771E+02  0.00000000000E+00 0.  1.
         21    1    1    2  503  506  0.44472164586E+01  0.44288076578E+02 -0.33738671196E+01  0.44638486092E+02  0.00000000000E+00 0.  1.
         21    1    1    2  504  501  0.16372866574E+02 -0.47628713949E+02  0.63370778451E+03  0.63570600225E+03  0.00000000000E+00 0.  1.
         21    1    1    2  505  502 -0.93825425275E+02  0.59872271291E+02  0.27002808594E+03  0.29206688702E+03  0.00000000000E+00 0.  1.
         21    1    1    2  506  504  0.73005342243E+02 -0.56531633921E+02  0.52244932515E+02  0.10609023802E+03  0.00000000000E+00 0.  1.
<scales pt_clust_3="44.51080" pt_clust_4="49.32915" pt_clust_5="87.25793" pt_clust_6="14000.00000"></scales>
<clustering>
<clus scale="   44.511">  2  3  1 -1</clus>
<clus scale="   49.329">  1  4  2 -1</clus>
<clus scale="   87.258">  1  5  2 -1</clus>
<clus scale="   49.329">  1  3  2 -1</clus>
</clustering>
</event>
<event>
 6    0  0.2036847E+002  0.1680311E+03  0.7546771E-02  0.1179917E+00
         21   -1    0    0  504  501  0.00000000000E+00  0.00000000000E+00  0.73058208153E+03  0.73058208153E+03  0.00000000000E+00 0.  1.
         21   -1    0    0  505  502 -0.00000000000E+00 -0.00000000000E+00 -0.68370156870E+02  0.68370156870E+02  0.00000000000E+00 0.  1.
         21    1    1    2  503  502  0.11946688360E+03  0.15794708142E+02  0.25791581175E+03  0.28467942502E+03  0.00000000000E+00 0.  1.
         21    1    1    2  504  503  0.59193476068E+02  0.10876761100E+02  0.25436067873E+03  0.26138386795E+03  0.00000000000E+00 0.  1.
         21    1    1    2  505  506 -0.15346421962E+03 -0.43983764748E+01  0.75240977749E+02  0.17097314746E+03  0.00000000000E+00 0.  1.
         21    1    1    2  506  501 -0.25196140042E+02 -0.22273092767E+02  0.74694456437E+02  0.81915797969E+02  0.00000000000E+00 0.  1.
<scales pt_clust_3="37.56698" pt_clust_4="37.56698" pt_clust_5="158.45326" pt_clust_6="33.62939"></scales>
<clustering>
<clus scale="   33.629">  1  6  2 -1</clus>
<clus scale="   37.567">  3  4 -1 -1</clus>
<clus scale="  158.453">  2  5  1 -1</clus>
<clus scale="   33.629">  1  3  2 -1</clus>
</clustering>
</event>
<event>
 6    0  0.2036847E+002  0.1364885E+03  0.7546771E-02  0.1218134E+00
         21   -1    0    0  504  501  0.00000000000E+00  0.00000000000E+00  0.28912402296E+04  0.28912402296E+04  0.00000000000E+00 0.  1.
         21   -1    0    0  503  502 -0.00000000000E+00 -0.00000000000E+00 -0.15253499828E+04  0.15253499828E+04  0.00000000000E+00 0.  1.
         21    1    1    2  503  505  0.91391272483E+02  0.13251377311E+02 -0.41174087164E+02  0.10111018317E+03  0.00000000000E+00 0.  1.
         21    1    1    2  504  502 -0.12020766568E+03 -0.76562115974E+02 -0.14501849423E+04  0.14571712347E+04  0.00000000000E+00 0.  1.
         21    1    1    2  505  506  0.25657243798E+02  0.31417555154E+02  0.10635892856E+04  0.10643624971E+04  0.00000000000E+00 0.  1.
         21    1    1    2  506  501  0.31591494022E+01  0.31893183509E+02  0.17936599907E+04  0.17939462973E+04  0.00000000000E+00 0.  1.
<scales pt_clust_3="136.48847" pt_clust_4="14000.00000" pt_clust_5="77.81862" pt_clust_6="31.01043"></scales>
<clustering>
<clus scale="   31.010">  5  6 -1 -1</clus>
<clus scale="   77.819">  1  5  2 -1</clus>
<clus scale="  136.488">  1  3  2 -1</clus>
<clus scale="   77.819">  1  3  2 -1</clus>
</clustering>
</event>
<event>
 6    0  0.2036847E+002  0.8602907E+02  0.7546771E-02  0.1312763E+00
         21   -1    0    0  505  501  0.00000000000E+00  0.00000000000E+00  0.32145472471E+04  0.32145472471E+04  0.00000000000E+00 0. -1.
         21   -1    0    0  506  502 -0.00000000000E+00 -0.00000000000E+00 -0.21791266222E+03  0.21791266222E+03  0.00000000000E+00 0.  1.
         21    1    1    2  503  502  0.49977765801E+02  0.27683573755E+02  0.53166679634E+02  0.78043918108E+02  0.00000000000E+00 0.  1.
         21    1    1    2  504  501 -0.44961610070E+02  0.58214917704E+02  0.38137741887E+03  0.38840604867E+03  0.00000000000E+00 0. -1.
         21    1    1    2  505  503  0.89943531033E+02 -0.19520392062E+02  0.27465993098E+04  0.27481409449E+04  0.00000000000E+00 0. -1.
         21    1    1    2  506  504 -0.94959686764E+02 -0.66378099397E+02 -0.18450882345E+03  0.21786899761E+03  0.00000000000E+00 0.  1.
<scales pt_clust_3="57.13280" pt_clust_4="86.02907" pt_clust_5="14000.00000" pt_clust_6="60.50212"></scales>
<clustering>
<clus scale="   57.133">  2  3  1 -1</clus>
<clus scale="   60.502">  2  6  1 -1</clus>
<clus scale="   86.029">  2  4  1 -1</clus>
<clus scale="   86.029">  1  3  2 -1</clus>
</clustering>
</event>
<event>
 6    0  0.2036847E+002  0.1810224E+03  0.7546771E-02  0.1166817E+00
         21   -1    0    0  503  501  0.00000000000E+00  0.00000000000E+00  0.58528914243E+03  0.58528914243E+03  0.00000000000E+00 0. -1.
         21   -1    0    0  504  502 -0.00000000000E+00 -0.00000000000E+00 -0.21346785422E+04  0.21346785422E+04  0.00000000000E+00 0.  1.
         21    1    1    2  503  506  0.16613460981E+03  0.56317320194E+02  0.52640569983E+03  0.55486512771E+03  0.00000000000E+00 0. -1.
         21    1    1    2  504  505 -0.14770834246E+03 -0.82671768098E+01 -0.19890358704E+04  0.19945299683E+04  0.00000000000E+00 0.  1.
         21    1    1    2  505  501  0.14113108254E+02 -0.34750230796E+02  0.30383504679E+02  0.48269200548E+02  0.00000000000E+00 0. -1.
         21    1    1    2  506  502 -0.32539375608E+02 -0.13299912589E+02 -0.11714273395E+03  0.12230338817E+03  0.00000000000E+00 0.  1.
<scales pt_clust_3="14000.00000" pt_clust_4="181.02243" pt_clust_5="37.50745" pt_clust_6="35.15251"></scales>
<clustering>
<clus scale="   35.153">  2  6  1 -1</clus>
<clus scale="   37.507">  1  5  2 -1</clus>
<clus scale="  181.022">  2  4  1 -1</clus>
<clus scale="   37.507">  1  3  2 -1</clus>
</clustering>
</event>
<event>
 6    0  0.3898784E+002  0.1260945E+03  0.7546771E-02  0.1233369E+00
         21   -1    0    0  503  501  0.00000000000E+00  0.00000000000E+00  0.19606490285E+04  0.19606490285E+04  0.00000000000E+00 0.  1.
         21   -1    0    0  504  502 -0.00000000000E+00 -0.00000000000E+00 -0.50775093623E+03  0.50775093623E+03  0.00000000000E+00 0.  1.
         21    1    1    2  503  505  0.11412947685E+03  0.53438075855E+02  0.18431233059E+04  0.18474265036E+04  0.00000000000E+00 0.  1.
         21    1    1    2  504  506  0.19106828092E+00  0.52981207555E+02  0.35838510632E+02  0.63964394044E+02  0.00000000000E+00 0.  1.
         21    1    1    2  505  502 -0.14085363440E+03 -0.34152372574E+02 -0.45286585617E+03  0.47549302262E+03  0.00000000000E+00 0.  1.
         21    1    1    2  506  501  0.26533089266E+02 -0.72266910837E+02  0.26802131852E+02  0.81516044431E+02  0.00000000000E+00 0.  1.
<scales pt_clust_3="126.09450" pt_clust_4="52.98155" pt_clust_5="14000.00000" pt_clust_6="74.23853"></scales>
<clustering>
<clus scale="   52.982">  2  4  1 -1</clus>
<clus scale="   74.239">  2  6  1 -1</clus>
<clus scale="  126.095">  1  3  2 -1</clus>
<clus scale="  126.095">  1  3  2 -1</clus>
</clustering>
</event>
<event>
 6    0  0.2036847E+002  0.1198993E+03  0.7546771E-02  0.1243263E+00
         21   -1    0    0  504  501  0.00000000000E+00  0.00000000000E+00  0.13369157393E+03  0.13369157393E+03  0.00000000000E+00 0. -1.
         21   -1    0    0  506  502 -0.00000000000E+00 -0.00000000000E+00 -0.23279282886E+04  0.23279282886E+04  0.00000000000E+00 0.  1.
         21    1    1    2  503  501 -0.48793470836E+02  0.94399483176E+02  0.74085341907E+02  0.12954035319E+03  0.00000000000E+00 0. -1.
         21    1    1    2  504  502 -0.42526084186E+02 -0.83462689651E+01  0.13524363018E+02  0.45398639152E+02  0.00000000000E+00 0. -1.
         21    1    1    2  505  503  0.53186395750E+02 -0.42866012220E+02 -0.60486322458E+03  0.60870831122E+03  0.00000000000E+00 0.  1.
         21    1    1    2  506  505  0.38133159272E+02 -0.43187201991E+02 -0.16769831950E+04  0.16779725590E+04  0.00000000000E+00 0.  1.
<scales pt_clust_3="14000.00000" pt_clust_4="43.33737" pt_clust_5="119.89930" pt_clust_6="57.50950"></scales>
<clustering>
<clus scale="   43.337">  1  4  2 -1</clus>
<clus scale="   57.510">  2  6  1 -1</clus>
<clus scale="  119.899">  2  5  1 -1</clus>
<clus scale="   43.337">  1  3  2 -1</clus>
</clustering>
</event>
<event>
 6    0  0.2036847E+002  0.1263305E+03  0.7546771E-02  0.1233005E+00
         21   -1    0    0  503  501  0.00000000000E+00  0.00000000000E+00  0.31010466295E+03  0.31010466295E+03  0.00000000000E+00 0. -1.
         21   -1    0    0  506  502 -0.00000000000E+00 -0.00000000000E+00 -0.22424711007E+03  0.22424711007E+03  0.00000000000E+00 0.  1.
         21    1    1    2  503  505 -0.30261550060E+02  0.98029560573E+01  0.75250080655E+02  0.81697209243E+02  0.00000000000E+00 0. -1.
         21    1    1    2  504  502  0.11618572618E+03  0.67544481716E+02 -0.17293445378E+03  0.21901530833E+03  0.00000000000E+00 0.  1.
         21    1    1    2  505  504 -0.43982079678E+02 -0.21095579898E+02  0.14934927664E+02  0.51014692867E+02  0.00000000000E+00 0.  1.
         21    1    1    2  506  501 -0.41942096441E+02 -0.56251857875E+02  0.16860699834E+03  0.18262456258E+03  0.00000000000E+00 0. -1.
<scales pt_clust_3="31.80974" pt_clust_4="14000.00000" pt_clust_5="52.15385" pt_clust_6="126.33048"></scales>
<clustering>
<clus scale="   31.810">  1  3  2 -1</clus>
<clus scale="   52.154">  1  5  2 -1</clus>
<clus scale="  126.330">  1  6  2 -1</clus>
<clus scale="   31.810">  1  3  2 -1</clus>
</clustering>
</event>
<event>
 6    0  0.2036847E+002  0.1740972E+03  0.7546771E-02  0.1173641E+00
         21   -1    0    0  505  501  0.00000000000E+00  0.00000000000E+00  0.85978462499E+02  0.85978462499E+02  0.00000000000E+00 0. -1.
         21   -1    0    0  503  502 -0.00000000000E+00 -0.00000000000E+00 -0.51560665987E+03  0.51560665987E+03  0.00000000000E+00 0.  1.
         21    1    1    2  503  506 -0.37757900258E+02  0.64725022624E+01 -0.18322699966E+03  0.18718890384E+03  0.00000000000E+00 0.  1.
         21    1    1    2  504  501 -0.49334467020E+02  0.16051252833E+02 -0.62974147595E+02  0.81592129638E+02  0.00000000000E+00 0.  1.
         21    1    1    2  505  502  0.13402494227E+03 -0.68980337341E+02 -0.14502906498E+02  0.15143086339E+03  0.00000000000E+00 0. -1.
         21    1    1    2  506  504 -0.46932574995E+02  0.46456582246E+02 -0.16892414361E+03  0.18137322549E+03  0.00000000000E+00 0.  1.
<scales pt_clust_3="32.79207" pt_clust_4="51.70064" pt_clust_5="150.73477" pt_clust_6="51.70064"></scales>
<clustering>
<clus scale="   32.792">  3  6 -1 -1</clus>
<clus scale="   51.701">  3  4 -1 -1</clus>
<clus scale="  150.735">  1  5  2 -1</clus>
<clus scale="  150.735">  1  3  2 -1</clus>
</clustering>
</event>
<event>
 6    0  0.2036847E+002  0.2384691E+03  0.7546771E-02  0.1120817E+00
         21   -1    0    0  505  501  0.00000000000E+00  0.00000000000E+00  0.41442160154E+03  0.41442160154E+03  0.00000000000E+00 0. -1.
         21   -1    0    0  503  502 -0.00000000000E+00 -0.00000000000E+00 -0.53664312729E+03  0.53664312729E+03  0.00000000000E+00 0.  1.
         21    1    1    2  503  506 -0.91427350493E+02 -0.11657644835E+03  0.27280803846E+03  0.31044042034E+03  0.00000000000E+00 0. -1.
         21    1    1    2  504  502  0.82478571128E+02  0.10244849691E+03 -0.37521405014E+03  0.39759777745E+03  0.00000000000E+00 0.  1.
         21    1    1    2  505  504  0.30130446681E+02  0.84158537645E+02 -0.10023609492E+03  0.13430479515E+03  0.00000000000E+00 0.  1.
         21    1    1    2  506  501 -0.21181667316E+02 -0.70030586199E+02  0.80420580836E+02  0.10872173589E+03  0.00000000000E+00 0. -1.
<scales pt_clust_3="225.66891" pt_clust_4="79.77834" pt_clust_5="79.77834" pt_clust_6="41.11765"></scales>
<clustering>
<clus scale="   41.118">  3  6 -1 -1</clus>
<clus scale="   79.778">  4  5 -1 -1</clus>
<clus scale="  225.669">  1  3  2 -1</clus>
<clus scale="  225.669">  1  3  2 -1</clus>
</clustering>
</event>
<event>
 6    0  0.2036847E+002  0.9599602E+02  0.7546771E-02  0.1288948E+00
         21   -1    0    0  505  501  0.00000000000E+00  0.00000000000E+00  0.55094549223E+03  0.55094549223E+03  0.00000000000E+00 0.  1.
         21   -1    0    0  506  502 -0.00000000000E+00 -0.00000000000E+00 -0.55800513401E+03  0.55800513401E+03  0.00000000000E+00 0.  1.
         21    1    1    2  503  501 -0.94994781722E+02  0.15946040994E+02  0.50053549127E+03  0.50971959232E+03  0.00000000000E+00 0.  1.
         21    1    1    2  504  502 -0.22683180493E+02  0.41160314256E+02 -0.33392367828E+03  0.33721465131E+03  0.00000000000E+00 0.  1.
         21    1    1    2  505  504  0.39293880253E+02 -0.30724874705E+02  0.18186150618E+02  0.53092024121E+02  0.00000000000E+00 0. -1.
         21    1    1    2  506  503  0.78384081961E+02 -0.26381480544E+02 -0.19185760539E+03  0.20892435848E+03  0.00000000000E+00 0.  1.
<scales pt_clust_3="95.99602" pt_clust_4="46.99679" pt_clust_5="46.51129" pt_clust_6="14000.00000"></scales>
<clustering>
<clus scale="   46.997">  2  4  1 -1</clus>
<clus scale="   46.511">  2  5  1 -1</clus>
<clus scale="   95.996">  1  3  2 -1</clus>
<clus scale="   95.996">  1  3  2 -1</clus>
</clustering>
</event>
<event>
 6    0  0.2036847E+002  0.1142591E+03  0.7546771E-02  0.1252880E+00
         21   -1    0    0  503  501  0.00000000000E+00  0.00000000000E+00  0.96713558674E+03  0.96713558674E+03  0.00000000000E+00 0. -1.
         21   -1    0    0  505  502 -0.00000000000E+00 -0.00000000000E+00 -0.60740487094E+03  0.60740487094E+03  0.00000000000E+00 0. -1.
         21    1    1    2  503  504 -0.38343661854E+02 -0.12775625166E+03  0.91551146193E+03  0.92517735228E+03  0.00000000000E+00 0. -1.
         21    1    1    2  504  506  0.19178868696E+02  0.53163019706E+02 -0.28894111253E+03  0.29441654535E+03  0.00000000000E+00 0. -1.
         21    1    1    2  505  501  0.36497407830E+02  0.19634956526E+02  0.30891248116E+02  0.51690052295E+02  0.00000000000E+00 0. -1.
         21    1    1    2  506  502 -0.17332614672E+02  0.54958275430E+02 -0.29773088172E+03  0.30325650776E+03  0.00000000000E+00 0. -1.
<scales pt_clust_3="108.25761" pt_clust_4="36.18984" pt_clust_5="41.44385" pt_clust_6="36.18984"></scales>
<clustering>
<clus scale="   36.190">  4  6 -1 -1</clus>
<clus scale="   41.444">  1  5  2 -1</clus>
<clus scale="  108.258">  1  3  2 -1</clus>
<clus scale="   41.444">  1  3  2 -1</clus>
</clustering>
</event>
<event>
 6    0  0.2036847E+002  0.1148398E+03  0.7546771E-02  0.1251861E+00
         21   -1    0    0  504  501  0.00000000000E+00  0.00000000000E+00  0.98109365180E+03  0.98109365180E+03  0.00000000000E+00 0. -1.
         21   -1    0    0  505  502 -0.00000000000E+00 -0.00000000000E+00 -0.21011987867E+02  0.21011987867E+02  0.00000000000E+00 0. -1.
         21    1    1    2  503  502  0.10895375509E+02  0.61389137067E+02  0.21731125291E+03  0.22607856156E+03  0.00000000000E+00 0. -1.
         21    1    1    2  504  503 -0.78375310002E+01  0.65533144867E+02  0.35159860453E+03  0.35773956823E+03  0.00000000000E+00 0. -1.
         21    1    1    2  505  506 -0.33501756047E+02 -0.98803948004E+02  0.24346280389E+03  0.26487492270E+03  0.00000000000E+00 0. -1.
         21    1    1    2  506  501  0.30443911539E+02 -0.28118333930E+02  0.14770900260E+03  0.15341258717E+03  0.00000000000E+00 0. -1.
<scales pt_clust_3="31.74202" pt_clust_4="31.74202" pt_clust_5="110.09820" pt_clust_6="41.44240"></scales>
<clustering>
<clus scale="   31.742">  3  4 -1 -1</clus>
<clus scale="   41.442">  1  6  2 -1</clus>
<clus scale="  110.098">  2  5  1 -1</clus>
<clus scale="   41.442">  1  3  2 -1</clus>
</clustering>
</event>
<event>
 6    0  0.2036847E+002  0.5756065E+03  0.7546771E-02  0.9957349E-01
         21   -1    0    0  506  501  0.00000000000E+00  0.00000000000E+00  0.48623868812E+03  0.48623868812E+03  0.00000000000E+00 0. -1.
         21   -1    0    0  505  502 -0.00000000000E+00 -0.00000000000E+00 -0.19959187403E+04  0.19959187403E+04  0.00000000000E+00 0.  1.
         21    1    1    2  503  501 -0.23899757112E+02 -0.25215217965E+02  0.19130816719E+02  0.39660985306E+02  0.00000000000E+00 0.  1.
         21    1    1    2  504  502 -0.14455410470E+02 -0.21781427153E+03 -0.52897061740E+03  0.57224289410E+03  0.00000000000E+00 0. -1.
         21    1    1    2  505  503 -0.72691218925E+02  0.57227827603E+03  0.20815151768E+03  0.61328092489E+03  0.00000000000E+00 0. -1.
         21    1    1    2  506  504  0.11104638651E+03 -0.32924878653E+03 -0.12079917692E+04  0.12569726242E+04  0.00000000000E+00 0.  1.
<scales pt_clust_3="34.74199" pt_clust_4="113.34711" pt_clust_5="557.61951" pt_clust_6="113.34711"></scales>
<clustering>
<clus scale="   34.742">  1  3  2 -1</clus>
<clus scale="  113.347">  4  6 -1 -1</clus>
<clus scale="  557.620">  1  5  2 -1</clus>
<clus scale="   34.742">  1  3  2 -1</clus>
</clustering>
</event>
<event>
 6    0  0.2036847E+002  0.7936413E+02  0.7546771E-02  0.1330866E+00
         21   -1    0    0  505  501  0.00000000000E+00  0.00000000000E+00  0.14192737645E+04  0.14192737645E+04  0.00000000000E+00 0.  1.
         21   -1    0    0  501  502 -0.00000000000E+00 -0.00000000000E+00 -0.39203947604E+02  0.39203947604E+02  0.00000000000E+00 0.  1.
         21    1    1    2  503  502  0.32460853765E+02 -0.20078186065E+02  0.14290587447E+03  0.14791527825E+03  0.00000000000E+00 0.  1.
         21    1    1    2  504  506 -0.14047128640E+03  0.15033170150E+02  0.13058899918E+03  0.19238416051E+03  0.00000000000E+00 0.  1.
         21    1    1    2  505  504  0.76548089882E+02  0.39755461262E+01  0.10548179733E+04  0.10575993437E+04  0.00000000000E+00 0.  1.
         21    1    1    2  506  503  0.31462342756E+02  0.10694697888E+01  0.51756969998E+02  0.60578929676E+02  0.00000000000E+00 0. -1.
<scales pt_clust_3="74.67404" pt_clust_4="14000.00000" pt_clust_5="79.36413" pt_clust_6="30.51112"></scales>
<clustering>
<clus scale="   30.511">  3  6 -1 -1</clus>
<clus scale="   74.674">  2  3  1 -1</clus>
<clus scale="   79.364">  1  5  2 -1</clus>
<clus scale="   79.364">  1  3  2 -1</clus>
</clustering>
</event>
<event>
 6    0  0.2036847E+002  0.2700814E+03  0.7546771E-02  0.1101233E+00
         21   -1    0    0  503  501  0.00000000000E+00  0.00000000000E+00  0.38915815703E+03  0.38915815703E+03  0.00000000000E+00 0. -1.
         21   -1    0    0  506  502 -0.00000000000E+00 -0.00000000000E+00 -0.79737103335E+03  0.79737103335E+03  0.00000000000E+00 0. -1.
         21    1    1    2  503  505  0.12005997321E+03 -0.26961284694E+02  0.60369674390E+02  0.13706132067E+03  0.00000000000E+00 0.  1.
         21    1    1    2  504  502 -0.15881836652E+03 -0.20146009229E+02 -0.28180790302E+03  0.32410620086E+03  0.00000000000E+00 0.  1.
         21    1    1    2  505  504  0.13237195284E+03 -0.48668414698E+02  0.23983174000E+03  0.27822690739E+03  0.00000000000E+00 0. -1.
         21    1    1    2  506  501 -0.93613559529E+02  0.95775708620E+02 -0.42660638768E+03  0.44713476146E+03  0.00000000000E+00 0. -1.
<scales pt_clust_3="106.09633" pt_clust_4="245.03528" pt_clust_5="106.09633" pt_clust_6="133.92716"></scales>
<clustering>
<clus scale="  106.096">  3  5 -1 -1</clus>
<clus scale="  133.927">  2  6  1 -1</clus>
<clus scale="  245.035">  2  4  1 -1</clus>
<clus scale="  270.081">  1  3  2 -1</clus>
</clustering>
</event>
<event>
 6    0  0.2036847E+002  0.2406777E+03  0.7546771E-02  0.1119342E+00
         21   -1    0    0  502  501  0.00000000000E+00  0.00000000000E+00  0.15306517651E+04  0.15306517651E+04  0.00000000000E+00 0. -1.
         21   -1    0    0  505  502 -0.00000000000E+00 -0.00000000000E+00 -0.10726441241E+03  0.10726441241E+03  0.00000000000E+00 0.  1.
         21    1    1    2  503  506 -0.63846261903E+02 -0.75752550217E+01  0.48669557054E+02  0.80637803985E+02  0.00000000000E+00 0. -1.
         21    1    1    2  504  501  0.13126764374E+03  0.17768300536E+02  0.78631004472E+03  0.79738973735E+03  0.00000000000E+00 0. -1.
         21    1    1    2  505  503 -0.16249922337E+03  0.31593622626E+02  0.32373692661E+01  0.16557365475E+03  0.00000000000E+00 0.  1.
         21    1    1    2  506  504  0.95077841537E+02 -0.41786668140E+02  0.58517038164E+03  0.59431498142E+03  0.00000000000E+00 0. -1.
<scales pt_clust_3="48.74008" pt_clust_4="236.39684" pt_clust_5="48.74008" pt_clust_6="56.51853"></scales>
<clustering>
<clus scale="   48.740">  3  5 -1 -1</clus>
<clus scale="   56.519">  4  6 -1 -1</clus>
<clus scale="  236.397">  1  4  2 -1</clus>
<clus scale="  236.397">  1  3  2 -1</clus>
</clustering>
</event>
<event>
 6    0  0.2036847E+002  0.1750295E+03  0.7546771E-02  0.1172702E+00
         21   -1    0    0  503  501  0.00000000000E+00  0.00000000000E+00  0.70453610280E+03  0.70453610280E+03  0.00000000000E+00 0. -1.
         21   -1    0    0  505  502 -0.00000000000E+00 -0.00000000000E+00 -0.13395962277E+03  0.13395962277E+03  0.00000000000E+00 0. -1.
         21    1    1    2  503  506 -0.25086535359E+00  0.11820542808E+03  0.17814837818E+03  0.21379763986E+03  0.00000000000E+00 0. -1.
         21    1    1    2  504  501 -0.29405988029E+02 -0.75116588592E+02  0.19917150455E+03  0.21488718491E+03  0.00000000000E+00 0. -1.
         21    1    1    2  505  504  0.19677438426E+02 -0.15508523283E+03  0.24131849434E+03  0.28752955802E+03  0.00000000000E+00 0. -1.
         21    1    1    2  506  502  0.99794149562E+01  0.11199639334E+03 -0.48061897047E+02  0.12228134278E+03  0.00000000000E+00 0. -1.
<scales pt_clust_3="159.15937" pt_clust_4="52.31374" pt_clust_5="52.31374" pt_clust_6="112.44012"></scales>
<clustering>
<clus scale="   52.314">  4  5 -1 -1</clus>
<clus scale="  112.440">  2  6  1 -1</clus>
<clus scale="  159.159">  1  3  2 -1</clus>
<clus scale="  159.159">  1  3  2 -1</clus>
</clustering>
</event>
<event>
 6    0  0.2036847E+002  0.1001191E+03  0.7546771E-02  0.1280046E+00
         21   -1    0    0  506  501  0.00000000000E+00  0.00000000000E+00  0.43116243326E+02  0.43116243326E+02  0.00000000000E+00 0. -1.
         21   -1    0    0  505  502 -0.00000000000E+00 -0.00000000000E+00 -0.64613577241E+03  0.64613577241E+03  0.00000000000E+00 0. -1.
         21    1    1    2  503  504  0.12550136368E+02  0.62291266978E+02 -0.27900886031E+02  0.69398611700E+02  0.00000000000E+00 0. -1.
         21    1    1    2  504  502 -0.43083875371E+02  0.11923856013E+02 -0.24148180583E+03  0.24558473325E+03  0.00000000000E+00 0. -1.
         21    1    1    2  505  501  0.53901846307E+02 -0.98104543735E+02 -0.31847092316E+03  0.33757019927E+03  0.00000000000E+00 0. -1.
         21    1    1    2  506  503 -0.23368107304E+02  0.23889420744E+02 -0.15165914069E+02  0.36698471522E+02  0.00000000000E+00 0. -1.
<scales pt_clust_3="31.25688" pt_clust_4="44.70345" pt_clust_5="90.36664" pt_clust_6="31.25688"></scales>
<clustering>
<clus scale="   31.257">  3  6 -1 -1</clus>
<clus scale="   44.703">  2  4  1 -1</clus>
<clus scale="   90.367">  2  5  1 -1</clus>
<clus scale="  100.119">  1  3  2 -1</clus>
</clustering>
</event>
<event>
 6    0  0.2036847E+002  0.1224846E+03  0.7546771E-02  0.1239054E+00
         21   -1    0    0  502  501  0.00000000000E+00  0.00000000000E+00  0.31113317823E+04  0.31113317823E+04  0.00000000000E+00 0.  1.
         21   -1    0    0  503  502 -0.00000000000E+00 -0.00000000000E+00 -0.27082121017E+02  0.27082121017E+02  0.00000000000E+00 0. -1.
         21    1    1    2  503  505 -0.79073929694E+02  0.66523225442E+02  0.30239573660E+03  0.31956408965E+03  0.00000000000E+00 0.  1.
         21    1    1    2  504  501  0.52699556176E+02  0.23686332585E+02  0.82243017376E+03  0.82445720100E+03  0.00000000000E+00 0.  1.
         21    1    1    2  505  506 -0.20648711755E+01 -0.14072256312E+03  0.27453543816E+03  0.30850739095E+03  0.00000000000E+00 0. -1.
         21    1    1    2  506  504  0.28439244693E+02  0.50513005091E+02  0.16848883128E+04  0.16858852218E+04  0.00000000000E+00 0.  1.
<scales pt_clust_3="103.33453" pt_clust_4="55.44273" pt_clust_5="109.17164" pt_clust_6="55.44273"></scales>
<clustering>
<clus scale="   55.443">  4  6 -1 -1</clus>
<clus scale="  103.335">  2  3  1 -1</clus>
<clus scale="  109.172">  2  5  1 -1</clus>
<clus scale="  122.485">  1  3  2 -1</clus>
</clustering>
</event>
<event>
 6    0  0.2036847E+002  0.1511377E+03  0.7546771E-02  0.1199082E+00
         21   -1    0    0  505  501  0.00000000000E+00  0.00000000000E+00  0.28948296085E+02  0.28948296085E+02  0.00000000000E+00 0. -1.
         21   -1    0    0  504  502 -0.00000000000E+00 -0.00000000000E+00 -0.11657542730E+04  0.11657542730E+04  0.00000000000E+00 0. -1.
         21    1    1    2  503  506  0.29361640263E+02  0.29739185056E+02 -0.15760543608E+03  0.16305213439E+03  0.00000000000E+00 0.  1.
         21    1    1    2  504  501 -0.18408260172E+02 -0.43641968258E+02 -0.12340460142E+03  0.13218237813E+03  0.00000000000E+00 0. -1.
         21    1    1    2  505  503  0.11989437653E+03  0.32092819918E+02 -0.24612402691E+03  0.27564768680E+03  0.00000000000E+00 0. -1.
         21    1    1    2  506  502 -0.13084775662E+03 -0.18190036716E+02 -0.60967191254E+03  0.62382036981E+03  0.00000000000E+00 0. -1.
<scales pt_clust_3="33.63320" pt_clust_4="47.36545" pt_clust_5="33.63320" pt_clust_6="139.58189"></scales>
<clustering>
<clus scale="   33.633">  3  5 -1 -1</clus>
<clus scale="   47.365">  1  4  2 -1</clus>
<clus scale="  139.582">  2  6  1 -1</clus>
<clus scale="   47.365">  1  3  2 -1</clus>
</clustering>
</event>
<event>
 6    0  0.2036847E+002  0.1378225E+03  0.7546771E-02  0.1216289E+00
         21   -1    0    0  506  501  0.00000000000E+00  0.00000000000E+00  0.32051280085E+03  0.32051280085E+03  0.00000000000E+00 0.  1.
         21   -1    0    0  504  502 -0.00000000000E+00 -0.00000000000E+00 -0.12615961981E+03  0.12615961981E+03  0.00000000000E+00 0.  1.
         21    1    1    2  503  501 -0.72899136392E+01  0.61445630012E+02  0.14967242726E+03  0.16195846310E+03  0.00000000000E+00 0.  1.
         21    1    1    2  504  503 -0.54972107607E+02  0.48334782985E+02  0.11217729339E+03  0.13394748603E+03  0.00000000000E+00 0.  1.
         21    1    1    2  505  502  0.35463647550E+02 -0.51720074339E+02 -0.59279408554E+02  0.86294175155E+02  0.00000000000E+00 0.  1.
         21    1    1    2  506  505  0.26798373697E+02 -0.58060338658E+02 -0.82171310571E+01  0.64472296381E+02  0.00000000000E+00 0.  1.
<scales pt_clust_3="50.91530" pt_clust_4="50.91530" pt_clust_5="46.93650" pt_clust_6="134.81375"></scales>
<clustering>
<clus scale="   46.936">  5  6 -1 -1</clus>
<clus scale="   50.915">  3  4 -1 -1</clus>
<clus scale="  134.814">  2  5  1 -1</clus>
<clus scale="  137.823">  1  3  2 -1</clus>
</clustering>
</event>
<event>
 6    0  0.2036847E+002  0.1471895E+03  0.7546771E-02  0.1203970E+00
         21   -1    0    0  506  501  0.00000000000E+00  0.00000000000E+00  0.11049997607E+03  0.11049997607E+03  0.00000000000E+00 0.  1.
         21   -1    0    0  501  502 -0.00000000000E+00 -0.00000000000E+00 -0.57446159213E+03  0.57446159213E+03  0.00000000000E+00 0.  1.
         21    1    1    2  503  504 -0.51838785878E+02 -0.24884898058E+02  0.12752125981E+02  0.58899359841E+02  0.00000000000E+00 0.  1.
         21    1    1    2  504  505  0.95681435651E+02  0.10278248612E+02 -0.42281560637E+03  0.43362843139E+03  0.00000000000E+00 0.  1.
         21    1    1    2  505  502  0.42556632454E+02 -0.23707041487E+02 -0.80638266760E+02  0.94210513468E+02  0.00000000000E+00 0.  1.
         21    1    1    2  506  503 -0.86399282227E+02  0.38313690932E+02  0.26740131091E+02  0.98223263502E+02  0.00000000000E+00 0.  1.
<scales pt_clust_3="48.32106" pt_clust_4="133.51760" pt_clust_5="48.71438" pt_clust_6="48.32106"></scales>
<clustering>
<clus scale="   48.321">  3  6 -1 -1</clus>
<clus scale="   48.714">  2  5  1 -1</clus>
<clus scale="  133.518">  2  4  1 -1</clus>
<clus scale="  147.189">  1  3  2 -1</clus>
</clustering>
</event>
<event>
 6    0  0.2036847E+002  0.4963895E+03  0.7546771E-02  0.1014726E+00
         21   -1    0    0  506  501  0.00000000000E+00  0.00000000000E+00  0.90319635870E+03  0.90319635870E+03  0.00000000000E+00 0. -1.
         21   -1    0    0  504  502 -0.00000000000E+00 -0.00000000000E+00 -0.32921075013E+03  0.32921075013E+03  0.00000000000E+00 0. -1.
         21    1    1    2  503  505 -0.15358651331E+03 -0.41453683534E+03  0.16002671026E+03  0.47014694822E+03  0.00000000000E+00 0. -1.
         21    1    1    2  504  501  0.18552410288E+03  0.42200902863E+03  0.28486537049E+03  0.54190321303E+03  0.00000000000E+00 0. -1.
         21    1    1    2  505  502 -0.24459752480E+02 -0.59446264906E+02 -0.15840026263E+02  0.66204564304E+02  0.00000000000E+00 0. -1.
         21    1    1    2  506  503 -0.74778370988E+01  0.51974071615E+02  0.14493355409E+03  0.15415238328E+03  0.00000000000E+00 0.  1.
<scales pt_clust_3="39.11646" pt_clust_4="485.67462" pt_clust_5="39.11646" pt_clust_6="52.50926"></scales>
<clustering>
<clus scale="   39.116">  3  5 -1 -1</clus>
<clus scale="   52.509">  1  6  2 -1</clus>
<clus scale="  485.675">  1  4  2 -1</clus>
<clus scale="   52.509">  1  3  2 -1</clus>
</clustering>
</event>
<event>
 6    0  0.2036847E+002  0.1759801E+03  0.7546771E-02  0.1171751E+00
         21   -1    0    0  506  501  0.00000000000E+00  0.00000000000E+00  0.23179414043E+02  0.23179414043E+02  0.00000000000E+00 0. -1.
         21   -1    0    0  505  502 -0.00000000000E+00 -0.00000000000E+00 -0.28127863382E+04  0.28127863382E+04  0.00000000000E+00 0. -1.
         21    1    1    2  503  502 -0.52101899556E+02  0.51643104817E+02 -0.48818038479E+03  0.49366153010E+03  0.00000000000E+00 0. -1.
         21    1    1    2  504  503  0.50994243722E+02 -0.72503230614E+01 -0.24526259185E+03  0.25061268730E+03  0.00000000000E+00 0. -1.
         21    1    1    2  505  501 -0.11694773504E+03 -0.39973703787E+02 -0.18496486203E+04  0.18537730951E+04  0.00000000000E+00 0. -1.
         21    1    1    2  506  504  0.11805539087E+03 -0.44190779686E+01 -0.20651532720E+03  0.23791843966E+03  0.00000000000E+00 0. -1.
<scales pt_clust_3="73.35951" pt_clust_4="50.48315" pt_clust_5="158.50416" pt_clust_6="50.48315"></scales>
<clustering>
<clus scale="   50.483">  4  6 -1 -1</clus>
<clus scale="   73.360">  2  3  1 -1</clus>
<clus scale="  158.504">  2  5  1 -1</clus>
<clus scale="  175.980">  1  3  2 -1</clus>
</clustering>
</event>
<event>
 6    0  0.2036847E+002  0.1010717E+03  0.7546771E-02  0.1278058E+00
         21   -1    0    0  503  501  0.00000000000E+00  0.00000000000E+00  0.43254820027E+03  0.43254820027E+03  0.00000000000E+00 0. -1.
         21   -1    0    0  505  502 -0.00000000000E+00 -0.00000000000E+00 -0.72538328375E+02  0.72538328375E+02  0.00000000000E+00 0. -1.
         21    1    1    2  503  506  0.12576122393E+02 -0.41413053203E+02  0.47722324264E+02  0.64425306077E+02  0.00000000000E+00 0. -1.
         21    1    1    2  504  502 -0.19380786623E+01  0.82416362824E+02  0.26116861470E+02  0.86477184639E+02  0.00000000000E+00 0. -1.
         21    1    1    2  505  501 -0.78677003217E+02 -0.82793794730E+02  0.22924515462E+03  0.25612150280E+03  0.00000000000E+00 0. -1.
         21    1    1    2  506  504  0.68038959486E+02  0.41790485109E+02  0.56925531533E+02  0.98062535119E+02  0.00000000000E+00 0. -1.
<scales pt_clust_3="43.28048" pt_clust_4="76.22358" pt_clust_5="101.07172" pt_clust_6="14000.00000"></scales>
<clustering>
<clus scale="   43.280">  1  3  2 -1</clus>
<clus scale="   76.224">  2  4  1 -1</clus>
<clus scale="  101.072">  1  5  2 -1</clus>
<clus scale="   43.280">  1  3  2 -1</clus>
</clustering>
</event>
<event>
 6    0  0.2036847E+002  0.2182374E+03  0.7546771E-02  0.1135204E+00
         21   -1    0    0  506  501  0.00000000000E+00  0.00000000000E+00  0.12173310100E+03  0.12173310100E+03  0.00000000000E+00 0.  1.
         21   -1    0    0  503  502 -0.00000000000E+00 -0.00000000000E+00 -0.26068090645E+04  0.26068090645E+04  0.00000000000E+00 0.  1.
         21    1    1    2  503  505  0.10840640009E+03  0.81143380830E+01 -0.21246384886E+02  0.11076641610E+03  0.00000000000E+00 0.  1.
         21    1    1    2  504  502 -0.60186846706E+02 -0.19244938186E+02 -0.11866685257E+04  0.11883497020E+04  0.00000000000E+00 0. -1.
         21    1    1    2  505  501  0.83069256901E+02  0.58410034822E+02  0.36848397300E+02  0.10802795006E+03  0.00000000000E+00 0.  1.
         21    1    1    2  506  504 -0.13128881029E+03 -0.47279434719E+02 -0.13140094501E+04  0.13213980974E+04  0.00000000000E+00 0.  1.
<scales pt_clust_3="78.15633" pt_clust_4="44.40929" pt_clust_5="78.15633" pt_clust_6="213.17523"></scales>
<clustering>
<clus scale="   44.409">  4  6 -1 -1</clus>
<clus scale="   78.156">  3  5 -1 -1</clus>
<clus scale="  213.175">  2  4  1 -1</clus>
<clus scale="  218.237">  1  3  2 -1</clus>
</clustering>
</event>
<event>
 6    0  0.2036847E+002  0.9785020E+02  0.7546771E-02  0.1284883E+00
         21   -1    0    0  506  501  0.00000000000E+00  0.00000000000E+00  0.21522773328E+03  0.21522773328E+03  0.00000000000E+00 0.  1.
         21   -1    0    0  503  502 -0.00000000000E+00 -0.00000000000E+00 -0.30281332478E+03  0.30281332478E+03  0.00000000000E+00 0.  1.
         21    1    1    2  503  501 -0.72053970897E+01  0.72064606616E+02 -0.87540044761E+02  0.11361551263E+03  0.00000000000E+00 0.  1.
         21    1    1    2  504  502 -0.55410532662E+02  0.17670793506E+02 -0.17781485273E+03  0.18708475600E+03  0.00000000000E+00 0.  1.
         21    1    1    2  505  504  0.29359696786E+02 -0.85678927354E+02  0.11712863292E+03  0.14806075455E+03  0.00000000000E+00 0.  1.
         21    1    1    2  506  505  0.33256232965E+02 -0.40564727677E+01  0.60640673069E+02  0.69280034878E+02  0.00000000000E+00 0.  1.
<scales pt_clust_3="97.85020" pt_clust_4="57.14501" pt_clust_5="14000.00000" pt_clust_6="33.50272"></scales>
<clustering>
<clus scale="   33.503">  1  6  2 -1</clus>
<clus scale="   57.145">  2  4  1 -1</clus>
<clus scale="   97.850">  2  3  1 -1</clus>
<clus scale="   33.503">  1  3  2 -1</clus>
</clustering>
</event>
<event>
 6    0  0.2036847E+002  0.1140990E+03  0.7546771E-02  0.1253162E+00
         21   -1    0    0  506  501  0.00000000000E+00  0.00000000000E+00  0.12836206505E+03  0.12836206505E+03  0.00000000000E+00 0. -1.
         21   -1    0    0  503  502 -0.00000000000E+00 -0.00000000000E+00 -0.30288205710E+03  0.30288205710E+03  0.00000000000E+00 0. -1.
         21    1    1    2  503  501 -0.11228790957E+03  0.84116174248E+02 -0.31360052081E+02  0.14376215870E+03  0.00000000000E+00 0. -1.
         21    1    1    2  504  505 -0.32959674835E+00 -0.41761345516E+02 -0.63428849708E+01  0.42241576711E+02  0.00000000000E+00 0. -1.
         21    1    1    2  505  502  0.88078257860E+02 -0.60613640034E+02 -0.16954606276E+03  0.20044365857E+03  0.00000000000E+00 0. -1.
         21    1    1    2  506  504  0.24539248461E+02  0.18258811301E+02  0.32729007765E+02  0.44796728167E+02  0.00000000000E+00 0.  1.
<scales pt_clust_3="14000.00000" pt_clust_4="38.37859" pt_clust_5="114.09896" pt_clust_6="30.58691"></scales>
<clustering>
<clus scale="   30.587">  1  6  2 -1</clus>
<clus scale="   38.379">  1  4  2 -1</clus>
<clus scale="  114.099">  2  5  1 -1</clus>
<clus scale="   30.587">  1  3  2 -1</clus>
</clustering>
</event>
<event>
 6    0  0.2036847E+002  0.2772591E+03  0.7546771E-02  0.1097195E+00
         21   -1    0    0  503  501  0.00000000000E+00  0.00000000000E+00  0.21717661299E+03  0.21717661299E+03  0.00000000000E+00 0.  1.
         21   -1    0    0  504  502 -0.00000000000E+00 -0.00000000000E+00 -0.17598352108E+04  0.17598352108E+04  0.00000000000E+00 0. -1.
         21    1    1    2  503  505  0.83033919667E+02 -0.83473490001E+02  0.70978547018E+02  0.13747876012E+03  0.00000000000E+00 0.  1.
         21    1    1    2  504  501 -0.51647612666E+02  0.20967189243E+02 -0.12634064269E+03  0.13809075608E+03  0.00000000000E+00 0. -1.
         21    1    1    2  505  506  0.20599874225E+03  0.13438558253E+03 -0.60554580227E+02  0.25330184324E+03  0.00000000000E+00 0.  1.
         21    1    1    2  506  502 -0.23738504926E+03 -0.71879281769E+02 -0.14267419219E+04  0.14481404643E+04  0.00000000000E+00 0. -1.
<scales pt_clust_3="116.69202" pt_clust_4="55.74136" pt_clust_5="277.25908" pt_clust_6="14000.00000"></scales>
<clustering>
<clus scale="   55.741">  2  4  1 -1</clus>
<clus scale="  116.692">  1  3  2 -1</clus>
<clus scale="  277.259">  1  5  2 -1</clus>
<clus scale="  116.692">  1  3  2 -1</clus>
</clustering>
</event>
<event>
 6    0  0.2036847E+002  0.1445918E+03  0.7546771E-02  0.1207281E+00
         21   -1    0    0  504  501  0.00000000000E+00  0.00000000000E+00  0.17518580549E+03  0.17518580549E+03  0.00000000000E+00 0. -1.
         21   -1    0    0  503  502 -0.00000000000E+00 -0.00000000000E+00 -0.77380024298E+03  0.77380024298E+03  0.00000000000E+00 0. -1.
         21    1    1    2  503  506  0.16740127528E+02 -0.45766939092E+02 -0.11910200675E+03  0.12868617873E+03  0.00000000000E+00 0.  1.
         21    1    1    2  504  502  0.19039653006E+02 -0.88333328362E+02 -0.61432785186E+03  0.62093799599E+03  0.00000000000E+00 0. -1.
         21    1    1    2  505  501 -0.51179422257E+01  0.44867137617E+02  0.75308669008E+02  0.87810301209E+02  0.00000000000E+00 0. -1.
         21    1    1    2  506  505 -0.30661838308E+02  0.89233129837E+02  0.59506752117E+02  0.11155157254E+03  0.00000000000E+00 0. -1.
<scales pt_clust_3="48.73238" pt_clust_4="136.38146" pt_clust_5="33.22770" pt_clust_6="33.22770"></scales>
<clustering>
<clus scale="   33.228">  5  6 -1 -1</clus>
<clus scale="   48.732">  2  3  1 -1</clus>
<clus scale="  136.381">  2  4  1 -1</clus>
<clus scale="  144.592">  1  3  2 -1</clus>
</clustering>
</event>
<event>
 6    0  0.2036847E+002  0.2713798E+03  0.7546771E-02  0.1100492E+00
         21   -1    0    0  504  501  0.00000000000E+00  0.00000000000E+00  0.15614869043E+04  0.15614869043E+04  0.00000000000E+00 0. -1.
         21   -1    0    0  505  502 -0.00000000000E+00 -0.00000000000E+00 -0.25689507915E+03  0.25689507915E+03  0.00000000000E+00 0.  1.
         21    1    1    2  503  506 -0.13940648860E+03 -0.15994726508E+02 -0.67947441661E+02  0.15590655909E+03  0.00000000000E+00 0.  1.
         21    1    1    2  504  502  0.32831349448E+02  0.19755922108E+01  0.65508678356E+02  0.73302028698E+02  0.00000000000E+00 0.  1.
         21    1    1    2  505  503 -0.95936604684E+02 -0.88699326683E+02 -0.99625958754E+02  0.16430682983E+03  0.00000000000E+00 0.  1.
         21    1    1    2  506  501  0.20251174384E+03  0.10271846098E+03  0.14066565472E+04  0.14248665658E+04  0.00000000000E+00 0. -1.
<scales pt_clust_3="87.00886" pt_clust_4="32.89074" pt_clust_5="87.00886" pt_clust_6="256.00479"></scales>
<clustering>
<clus scale="   32.891">  1  4  2 -1</clus>
<clus scale="   87.009">  3  5 -1 -1</clus>
<clus scale="  256.005">  1  6  2 -1</clus>
<clus scale="   32.891">  1  3  2 -1</clus>
</clustering>
</event>
<event>
 6    0  0.2036847E+002  0.7206158E+02  0.7546771E-02  0.1353220E+00
         21   -1    0    0  506  501  0.00000000000E+00  0.00000000000E+00  0.19958085564E+04  0.19958085564E+04  0.00000000000E+00 0. -1.
         21   -1    0    0  503  502 -0.00000000000E+00 -0.00000000000E+00 -0.89217013667E+02  0.89217013667E+02  0.00000000000E+00 0.  1.
         21    1    1    2  503  505 -0.44899709623E+02 -0.81445256860E+01  0.49870663463E+02  0.67597339423E+02  0.00000000000E+00 0. -1.
         21    1    1    2  504  502  0.81360274779E+02  0.24742511025E+02 -0.47631903499E+02  0.97470428309E+02  0.00000000000E+00 0.  1.
         21    1    1    2  505  501  0.37216396349E+02 -0.31827345599E+02  0.78276103667E+02  0.92331947290E+02  0.00000000000E+00 0.  1.
         21    1    1    2  506  504 -0.73676961505E+02  0.15229360260E+02  0.18260766791E+04  0.18276258551E+04  0.00000000000E+00 0. -1.
<scales pt_clust_3="45.63241" pt_clust_4="44.36979" pt_clust_5="14000.00000" pt_clust_6="72.06158"></scales>
<clustering>
<clus scale="   45.632">  2  3  1 -1</clus>
<clus scale="   44.370">  2  4  1 -1</clus>
<clus scale="   72.062">  1  6  2 -1</clus>
<clus scale="   72.062">  1  3  2 -1</clus>
</clustering>
</event>
<event>
 6    0  0.2036847E+002  0.1371590E+03  0.7546771E-02  0.1217204E+00
         21   -1    0    0  503  501  0.00000000000E+00  0.00000000000E+00  0.83282353985E+03  0.83282353985E+03  0.00000000000E+00 0. -1.
         21   -1    0    0  505  502 -0.00000000000E+00 -0.00000000000E+00 -0.22407464862E+03  0.22407464862E+03  0.00000000000E+00 0.  1.
         21    1    1    2  503  504 -0.90411601633E+02  0.10705390144E+03  0.67371305376E+03  0.68813085553E+03  0.00000000000E+00 0. -1.
         21    1    1    2  504  506  0.63229691687E+02 -0.10724643260E+03  0.78235768715E+02  0.14703954136E+03  0.00000000000E+00 0.  1.
         21    1    1    2  505  501  0.56902171813E+02 -0.28611129547E+02 -0.16361837609E+03  0.17557740995E+03  0.00000000000E+00 0.  1.
         21    1    1    2  506  502 -0.29720261866E+02  0.28803660705E+02  0.20418444851E+02  0.46150381640E+02  0.00000000000E+00 0. -1.
<scales pt_clust_3="137.15899" pt_clust_4="14000.00000" pt_clust_5="33.48894" pt_clust_6="41.38774"></scales>
<clustering>
<clus scale="   41.388">  2  6  1 -1</clus>
<clus scale="   33.489">  2  5  1 -1</clus>
<clus scale="  137.159">  1  3  2 -1</clus>
<clus scale="  137.159">  1  3  2 -1</clus>
</clustering>
</event>
<event>
 6    0  0.2036847E+002  0.1457416E+03  0.7546771E-02  0.1205805E+00
         21   -1    0    0  505  501  0.00000000000E+00  0.00000000000E+00  0.18645512377E+04  0.18645512377E+04  0.00000000000E+00 0. -1.
         21   -1    0    0  501  502 -0.00000000000E+00 -0.00000000000E+00 -0.39249237237E+02  0.39249237237E+02  0.00000000000E+00 0.  1.
         21    1    1    2  503  506  0.92141212434E+02  0.85927476801E+02  0.12129270947E+03  0.17488697970E+03  0.00000000000E+00 0.  1.
         21    1    1    2  504  503 -0.34274467584E+02 -0.32324241612E+02  0.35486703297E+03  0.35798073525E+03  0.00000000000E+00 0.  1.
         21    1    1    2  505  504 -0.46172577694E+02 -0.81835204384E+02  0.13331232236E+04  0.13364304833E+04  0.00000000000E+00 0. -1.
         21    1    1    2  506  502 -0.11694167156E+02  0.28231969195E+02  0.16019034511E+02  0.34502276690E+02  0.00000000000E+00 0.  1.
<scales pt_clust_3="137.93643" pt_clust_4="33.31074" pt_clust_5="33.31074" pt_clust_6="30.55810"></scales>
<clustering>
<clus scale="   30.558">  2  6  1 -1</clus>
<clus scale="   33.311">  4  5 -1 -1</clus>
<clus scale="  137.936">  2  3  1 -1</clus>
<clus scale="  145.742">  1  3  2 -1</clus>
</clustering>
</event>
<event>
 6    0  0.2036847E+002  0.1021580E+03  0.7546771E-02  0.1275822E+00
         21   -1    0    0  505  501  0.00000000000E+00  0.00000000000E+00  0.80852855112E+03  0.80852855112E+03  0.00000000000E+00 0.  1.
         21   -1    0    0  506  502 -0.00000000000E+00 -0.00000000000E+00 -0.19908694970E+03  0.19908694970E+03  0.00000000000E+00 0.  1.
         21    1    1    2  503  501  0.49911535974E+02  0.37395117665E+02  0.17664066243E+03  0.18732720003E+03  0.00000000000E+00 0.  1.
         21    1    1    2  504  502 -0.96712668744E+02 -0.54843616319E+02 -0.10792496953E+03  0.15494825457E+03  0.00000000000E+00 0.  1.
         21    1    1    2  505  504  0.99847003258E+01  0.56982140468E+02  0.58963562907E+03  0.59246673632E+03  0.00000000000E+00 0.  1.
         21    1    1    2  506  503  0.36816432444E+02 -0.39533641814E+02 -0.48909720538E+02  0.72873309902E+02  0.00000000000E+00 0.  1.
<scales pt_clust_3="102.15796" pt_clust_4="14000.00000" pt_clust_5="57.51822" pt_clust_6="54.02183"></scales>
<clustering>
<clus scale="   54.022">  2  6  1 -1</clus>
<clus scale="   57.518">  1  5  2 -1</clus>
<clus scale="  102.158">  1  3  2 -1</clus>
<clus scale="   57.518">  1  3  2 -1</clus>
</clustering>
</event>
<event>
 6    0  0.2036847E+002  0.1026600E+03  0.7546771E-02  0.1274800E+00
         21   -1    0    0  503  501  0.00000000000E+00  0.00000000000E+00  0.11712335165E+03  0.11712335165E+03  0.00000000000E+00 0.  1.
         21   -1    0    0  506  502 -0.00000000000E+00 -0.00000000000E+00 -0.38265017700E+03  0.38265017700E+03  0.00000000000E+00 0.  1.
         21    1    1    2  503  504 -0.10269103959E+03 -0.38333614775E+02  0.40214907856E+02  0.11675681756E+03  0.00000000000E+00 0.  1.
         21    1    1    2  504  502 -0.37934150065E+02 -0.19527135600E+02 -0.43976955543E+02  0.61272190958E+02  0.00000000000E+00 0.  1.
         21    1    1    2  505  501  0.65978346524E+02  0.63736335515E+02 -0.68522125145E+02  0.11450215854E+03  0.00000000000E+00 0.  1.
         21    1    1    2  506  505  0.74646843127E+02 -0.58755851398E+01 -0.19324265252E+03  0.20724236160E+03  0.00000000000E+00 0.  1.
<scales pt_clust_3="102.65997" pt_clust_4="42.66508" pt_clust_5="14000.00000" pt_clust_6="54.58774"></scales>
<clustering>
<clus scale="   42.665">  2  4  1 -1</clus>
<clus scale="   54.588">  2  6  1 -1</clus>
<clus scale="  102.660">  1  3  2 -1</clus>
<clus scale="  102.660">  1  3  2 -1</clus>
</clustering>
</event>
<event>
 6    0  0.2036847E+002  0.9312271E+02  0.7546771E-02  0.1295461E+00
         21   -1    0    0  503  501  0.00000000000E+00  0.00000000000E+00  0.68099023174E+03  0.68099023174E+03  0.00000000000E+00 0. -1.
         21   -1    0    0  504  502 -0.00000000000E+00 -0.00000000000E+00 -0.41835959632E+02  0.41835959632E+02  0.00000000000E+00 0. -1.
         21    1    1    2  503  506 -0.41642438397E+02 -0.14946421529E+02  0.27351410294E+03  0.27706940051E+03  0.00000000000E+00 0. -1.
         21    1    1    2  504  501  0.12052517102E+03 -0.40259841827E+02  0.23952593411E+03  0.27114543113E+03  0.00000000000E+00 0. -1.
         21    1    1    2  505  502 -0.46851784578E+02  0.61068554910E+02  0.49895276327E+02  0.91727840467E+02  0.00000000000E+00 0. -1.
         21    1    1    2  506  505 -0.32030948047E+02 -0.58622915543E+01  0.76218958731E+02  0.82883519261E+02  0.00000000000E+00 0. -1.
<scales pt_clust_3="32.00926" pt_clust_4="85.32128" pt_clust_5="76.97050" pt_clust_6="32.00926"></scales>
<clustering>
<clus scale="   32.009">  3  6 -1 -1</clus>
<clus scale="   76.971">  2  5  1 -1</clus>
<clus scale="   85.321">  2  4  1 -1</clus>
<clus scale="   93.123">  1  3  2 -1</clus>
</clustering>
</event>
<event>
 6    0  0.2036847E+002  0.9659722E+02  0.7546771E-02  0.1287619E+00
         21   -1    0    0  504  501  0.00000000000E+00  0.00000000000E+00  0.54261928329E+02  0.54261928329E+02  0.00000000000E+00 0.  1.
         21   -1    0    0  503  502 -0.00000000000E+00 -0.00000000000E+00 -0.43658574969E+03  0.43658574969E+03  0.00000000000E+00 0.  1.
         21    1    1    2  503  506 -0.21682146384E+02 -0.25780525642E+02 -0.13660248701E+03  0.14069467094E+03  0.00000000000E+00 0.  1.
         21    1    1    2  504  505 -0.88482126291E+02 -0.76495035762E+01 -0.73715917046E+02  0.11541940047E+03  0.00000000000E+00 0.  1.
         21    1    1    2  505  502  0.95556376166E+02  0.69499016984E+02 -0.14647491482E+03  0.18819148508E+03  0.00000000000E+00 0.  1.
         21    1    1    2  506  501  0.14607896509E+02 -0.36068987766E+02 -0.25530502487E+02  0.46542121526E+02  0.00000000000E+00 0.  1.
<scales pt_clust_3="33.68606" pt_clust_4="96.59722" pt_clust_5="14000.00000" pt_clust_6="40.97910"></scales>
<clustering>
<clus scale="   33.686">  2  3  1 -1</clus>
<clus scale="   40.979">  1  6  2 -1</clus>
<clus scale="   96.597">  1  4  2 -1</clus>
<clus scale="   40.979">  1  3  2 -1</clus>
</clustering>
</event>
<event>
 6    0  0.2036847E+002  0.1893987E+03  0.7546771E-02  0.1159005E+00
         21   -1    0    0  503  501  0.00000000000E+00  0.00000000000E+00  0.10181336415E+04  0.10181336415E+04  0.00000000000E+00 0.  1.
         21   -1    0    0  501  502 -0.00000000000E+00 -0.00000000000E+00 -0.16861529161E+03  0.16861529161E+03  0.00000000000E+00 0. -1.
         21    1    1    2  503  506  0.93006125536E+02  0.29720188639E+02  0.58699083847E+03  0.59505602547E+03  0.00000000000E+00 0.  1.
         21    1    1    2  504  502 -0.76775757400E+02 -0.90040362392E+02 -0.85081359490E+02  0.14574162589E+03  0.00000000000E+00 0. -1.
         21    1    1    2  505  504 -0.66343200431E+02 -0.12546743084E+02 -0.17936067014E+02  0.69860886807E+02  0.00000000000E+00 0. -1.
         21    1    1    2  506  505  0.50112832295E+02  0.72866916837E+02  0.36554493796E+03  0.37609039499E+03  0.00000000000E+00 0.  1.
<scales pt_clust_3="189.21143" pt_clust_4="52.68609" pt_clust_5="52.68609" pt_clust_6="65.89345"></scales>
<clustering>
<clus scale="   52.686">  4  5 -1 -1</clus>
<clus scale="   65.893">  3  6 -1 -1</clus>
<clus scale="  189.211">  1  3  2 -1</clus>
<clus scale="  189.211">  1  3  2 -1</clus>
</clustering>
</event>
<event>
 6    0  0.2036847E+002  0.6460997E+02  0.7546771E-02  0.1379445E+00
         21   -1    0    0  503  501  0.00000000000E+00  0.00000000000E+00  0.40089230873E+03  0.40089230873E+03  0.00000000000E+00 0. -1.
         21   -1    0    0  504  502 -0.00000000000E+00 -0.00000000000E+00 -0.46619770994E+03  0.46619770994E+03  0.00000000000E+00 0. -1.
         21    1    1    2  503  505 -0.37869652595E+02 -0.85680996412E+00  0.73812728579E+01  0.38591811308E+02  0.00000000000E+00 0.  1.
         21    1    1    2  504  506 -0.38780227739E+02 -0.46949388228E+02 -0.14711021704E+03  0.15921547373E+03  0.00000000000E+00 0. -1.
         21    1    1    2  505  502  0.12168368730E+02  0.10339868492E+03 -0.28316533392E+03  0.30169846466E+03  0.00000000000E+00 0. -1.
         21    1    1    2  506  501  0.64481511605E+02 -0.55592486728E+02  0.35758887690E+03  0.36758426898E+03  0.00000000000E+00 0. -1.
<scales pt_clust_3="37.87934" pt_clust_4="61.29315" pt_clust_5="14000.00000" pt_clust_6="64.60997"></scales>
<clustering>
<clus scale="   37.879">  1  3  2 -1</clus>
<clus scale="   61.293">  2  4  1 -1</clus>
<clus scale="   64.610">  1  6  2 -1</clus>
<clus scale="   37.879">  1  3  2 -1</clus>
</clustering>
</event>
<event>
 6    0  0.2036847E+002  0.1611862E+03  0.7546771E-02  0.1187364E+00
         21   -1    0    0  503  501  0.00000000000E+00  0.00000000000E+00  0.42746146584E+03  0.42746146584E+03  0.00000000000E+00 0. -1.
         21   -1    0    0  504  502 -0.00000000000E+00 -0.00000000000E+00 -0.76745345961E+03  0.76745345961E+03  0.00000000000E+00 0.  1.
         21    1    1    2  503  502 -0.17753934670E+02  0.60604906087E+02 -0.22826510268E+03  0.23683984871E+03  0.00000000000E+00 0.  1.
         21    1    1    2  504  505 -0.33552232996E+02 -0.28570021550E+02 -0.29110319373E+02  0.52814857421E+02  0.00000000000E+00 0.  1.
         21    1    1    2  505  506 -0.10662699841E+03 -0.70638645147E+02 -0.46896635126E+03  0.48609523099E+03  0.00000000000E+00 0.  1.
         21    1    1    2  506  501  0.15793316607E+03  0.38603760610E+02  0.38634977955E+03  0.41916498832E+03  0.00000000000E+00 0. -1.
<scales pt_clust_3="58.82176" pt_clust_4="44.06811" pt_clust_5="161.18624" pt_clust_6="14000.00000"></scales>
<clustering>
<clus scale="   44.068">  2  4  1 -1</clus>
<clus scale="   58.822">  2  3  1 -1</clus>
<clus scale="  161.186">  2  5  1 -1</clus>
<clus scale="  161.186">  1  3  2 -1</clus>
</clustering>
</event>
<event>
 6    0  0.2036847E+002  0.2108825E+03  0.7546771E-02  0.1140869E+00
         21   -1    0    0  505  501  0.00000000000E+00  0.00000000000E+00  0.28260583509E+03  0.28260583509E+03  0.00000000000E+00 0. -1.
         21   -1    0    0  506  502 -0.00000000000E+00 -0.00000000000E+00 -0.58859081261E+03  0.58859081261E+03  0.00000000000E+00 0. -1.
         21    1    1    2  503  502 -0.16512944048E+03 -0.54142551394E+02 -0.50529664418E+03  0.53434431466E+03  0.00000000000E+00 0. -1.
         21    1    1    2  504  503  0.88456215548E+02  0.77377996921E+02  0.11672282743E+03  0.16563838601E+03  0.00000000000E+00 0.  1.
         21    1    1    2  505  504  0.95250932828E+02  0.57254132121E+00  0.98548149381E+02  0.13705767310E+03  0.00000000000E+00 0. -1.
         21    1    1    2  506  501 -0.18577707895E+02 -0.23807986849E+02 -0.15959310151E+02  0.34156273932E+02  0.00000000000E+00 0. -1.
<scales pt_clust_3="197.51637" pt_clust_4="66.65861" pt_clust_5="66.65861" pt_clust_6="30.19853"></scales>
<clustering>
<clus scale="   30.199">  2  6  1 -1</clus>
<clus scale="   66.659">  4  5 -1 -1</clus>
<clus scale="  197.516">  2  3  1 -1</clus>
<clus scale="  210.882">  1  3  2 -1</clus>
</clustering>
</event>
<event>
 6    0  0.2036847E+002  0.5950342E+02  0.7546771E-02  0.1399928E+00
         21   -1    0    0  503  501  0.00000000000E+00  0.00000000000E+00  0.18777211964E+04  0.18777211964E+04  0.00000000000E+00 0. -1.
         21   -1    0    0  506  502 -0.00000000000E+00 -0.00000000000E+00 -0.27965337512E+02  0.27965337512E+02  0.00000000000E+00 0.  1.
         21    1    1    2  503  504 -0.23029317606E+02 -0.54275261946E+02  0.11356591257E+04  0.11371885522E+04  0.00000000000E+00 0. -1.
         21    1    1    2  504  502  0.73517216253E+02 -0.49917425399E+02  0.11990325832E+03  0.14924249328E+03  0.00000000000E+00 0. -1.
         21    1    1    2  505  501 -0.23022850049E+02  0.71145296510E+02  0.55824471872E+03  0.56323074385E+03  0.00000000000E+00 0.  1.
         21    1    1    2  506  505 -0.27465048598E+02  0.33047390835E+02  0.35948756182E+02  0.56024744591E+02  0.00000000000E+00 0.  1.
<scales pt_clust_3="14000.00000" pt_clust_4="55.93457" pt_clust_5="59.50342" pt_clust_6="42.97044"></scales>
<clustering>
<clus scale="   42.970">  2  6  1 -1</clus>
<clus scale="   55.935">  2  4  1 -1</clus>
<clus scale="   59.503">  2  5  1 -1</clus>
<clus scale="   59.503">  1  3  2 -1</clus>
</clustering>
</event>
<event>
 6    0  0.2036847E+002  0.1168602E+03  0.7546771E-02  0.1248369E+00
         21   -1    0    0  504  501  0.00000000000E+00  0.00000000000E+00  0.49594316044E+03  0.49594316044E+03  0.00000000000E+00 0.  1.
         21   -1    0    0  506  502 -0.00000000000E+00 -0.00000000000E+00 -0.44494958877E+03  0.44494958877E+03  0.00000000000E+00 0.  1.
         21    1    1    2  503  502 -0.52862461247E+02  0.28253952883E+02 -0.94530245059E+02  0.11193164384E+03  0.00000000000E+00 0.  1.
         21    1    1    2  504  503  0.94799805754E+02  0.30413024753E+02  0.35902503838E+03  0.37257339334E+03  0.00000000000E+00 0.  1.
         21    1    1    2  505  501 -0.12333124266E+02  0.55785699240E+02  0.10341074189E+03  0.11814369104E+03  0.00000000000E+00 0.  1.
         21    1    1    2  506  505 -0.29604220240E+02 -0.11445267688E+03 -0.31691196353E+03  0.33824402098E+03  0.00000000000E+00 0.  1.
<scales pt_clust_3="60.78697" pt_clust_4="14000.00000" pt_clust_5="57.13274" pt_clust_6="116.86015"></scales>
<clustering>
<clus scale="   57.133">  1  5  2 -1</clus>
<clus scale="   60.787">  2  3  1 -1</clus>
<clus scale="  116.860">  2  6  1 -1</clus>
<clus scale="   57.133">  1  3  2 -1</clus>
</clustering>
</event>
<event>
 6    0  0.2036847E+002  0.1832662E+03  0.7546771E-02  0.1164679E+00
         21   -1    0    0  502  501  0.00000000000E+00  0.00000000000E+00  0.12302493978E+04  0.12302493978E+04  0.00000000000E+00 0. -1.
         21   -1    0    0  505  502 -0.00000000000E+00 -0.00000000000E+00 -0.90380343828E+02  0.90380343828E+02  0.00000000000E+00 0. -1.
         21    1    1    2  503  504 -0.12472442902E+03  0.18120220673E+02  0.39850045801E+01  0.12609681144E+03  0.00000000000E+00 0. -1.
         21    1    1    2  504  506  0.18279919870E+03  0.33683205505E+02  0.66057809420E+03  0.68623139240E+03  0.00000000000E+00 0. -1.
         21    1    1    2  505  503 -0.80648920020E+02  0.85798458955E+01  0.10630022190E+03  0.13370713979E+03  0.00000000000E+00 0. -1.
         21    1    1    2  506  501  0.22574150348E+02 -0.60383272074E+02  0.36900573334E+03  0.37459439805E+03  0.00000000000E+00 0.  1.
<scales pt_clust_3="183.26620" pt_clust_4="14000.00000" pt_clust_5="77.49338" pt_clust_6="64.46497"></scales>
<clustering>
<clus scale="   64.465">  1  6  2 -1</clus>
<clus scale="   77.493">  2  5  1 -1</clus>
<clus scale="  183.266">  2  3  1 -1</clus>
<clus scale="   64.465">  1  3  2 -1</clus>
</clustering>
</event>
<event>
 6    0  0.2146646E+002  0.1307255E+03  0.7546771E-02  0.1226383E+00
         21   -1    0    0  503  501  0.00000000000E+00  0.00000000000E+00  0.64991112855E+03  0.64991112855E+03  0.00000000000E+00 0. -1.
         21   -1    0    0  505  502 -0.00000000000E+00 -0.00000000000E+00 -0.32546383872E+03  0.32546383872E+03  0.00000000000E+00 0.  1.
         21    1    1    2  503  504  0.97713106753E+01 -0.28750612914E+02  0.84113117324E+02  0.89426465665E+02  0.00000000000E+00 0. -1.
         21    1    1    2  504  502 -0.26642894863E+02  0.33124150032E+02 -0.50309055906E+01  0.42806111399E+02  0.00000000000E+00 0.  1.
         21    1    1    2  505  506 -0.89422153528E+02  0.32217417018E+02 -0.28529198138E+03  0.30070882618E+03  0.00000000000E+00 0.  1.
         21    1    1    2  506  501  0.10629373772E+03 -0.36590954136E+02  0.53065705949E+03  0.54243356403E+03  0.00000000000E+00 0. -1.
<scales pt_clust_3="30.36571" pt_clust_4="41.55412" pt_clust_5="130.72548" pt_clust_6="14000.00000"></scales>
<clustering>
<clus scale="   30.366">  1  3  2 -1</clus>
<clus scale="   41.554">  2  4  1 -1</clus>
<clus scale="  130.725">  2  5  1 -1</clus>
<clus scale="   30.366">  1  3  2 -1</clus>
</clustering>
</event>
<event>
 6    0  0.2036847E+002  0.1217505E+03  0.7546771E-02  0.1240237E+00
         21   -1    0    0  503  501  0.00000000000E+00  0.00000000000E+00  0.12569678105E+03  0.12569678105E+03  0.00000000000E+00 0. -1.
         21   -1    0    0  506  502 -0.00000000000E+00 -0.00000000000E+00 -0.90255227922E+03  0.90255227922E+03  0.00000000000E+00 0.  1.
         21    1    1    2  503  504  0.46145998839E+02  0.90013622845E+01 -0.11511261013E+01  0.47029807815E+02  0.00000000000E+00 0.  1.
         21    1    1    2  504  502 -0.15090444963E+02 -0.47123736840E+02 -0.27729382687E+02  0.56721131575E+02  0.00000000000E+00 0. -1.
         21    1    1    2  505  501  0.62156337930E+02 -0.44176261633E+02  0.66139483832E+02  0.10094247747E+03  0.00000000000E+00 0. -1.
         21    1    1    2  506  505 -0.93211891806E+02  0.82298636189E+02 -0.81411447322E+03  0.82355564341E+03  0.00000000000E+00 0.  1.
<scales pt_clust_3="47.01572" pt_clust_4="46.64987" pt_clust_5="121.75052" pt_clust_6="14000.00000"></scales>
<clustering>
<clus scale="   47.016">  1  3  2 -1</clus>
<clus scale="   46.650">  1  4  2 -1</clus>
<clus scale="  121.751">  1  5  2 -1</clus>
<clus scale="   47.016">  1  3  2 -1</clus>
</clustering>
</event>
<event>
 6    0  0.2036847E+002  0.2761846E+03  0.7546771E-02  0.1097791E+00
         21   -1    0    0  503  501  0.00000000000E+00  0.00000000000E+00  0.58203944880E+03  0.58203944880E+03  0.00000000000E+00 0. -1.
         21   -1    0    0  506  502 -0.00000000000E+00 -0.00000000000E+00 -0.41832877054E+03  0.41832877054E+03  0.00000000000E+00 0.  1.
         21    1    1    2  503  504 -0.13667473553E+02 -0.22405661159E+03  0.42413038854E+03  0.47986951509E+03  0.00000000000E+00 0. -1.
         21    1    1    2  504  505 -0.39652284903E+02 -0.24371007322E+02  0.53345700376E+02  0.70795575035E+02  0.00000000000E+00 0.  1.
         21    1    1    2  505  502 -0.41752547790E+02 -0.12050627125E+02 -0.29044335080E+02  0.52269171232E+02  0.00000000000E+00 0. -1.
         21    1    1    2  506  501  0.95072306245E+02  0.26047824604E+03 -0.28472107558E+03  0.39743395798E+03  0.00000000000E+00 0.  1.
<scales pt_clust_3="47.44983" pt_clust_4="47.44983" pt_clust_5="43.45679" pt_clust_6="256.10268"></scales>
<clustering>
<clus scale="   43.457">  2  5  1 -1</clus>
<clus scale="   47.450">  3  4 -1 -1</clus>
<clus scale="  256.103">  2  6  1 -1</clus>
<clus scale="  276.185">  1  3  2 -1</clus>
</clustering>
</event>
<event>
 6    0  0.2036847E+002  0.1386251E+03  0.7546771E-02  0.1215191E+00
         21   -1    0    0  503  501  0.00000000000E+00  0.00000000000E+00  0.12752209258E+03  0.12752209258E+03  0.00000000000E+00 0. -1.
         21   -1    0    0  505  502 -0.00000000000E+00 -0.00000000000E+00 -0.33689913687E+03  0.33689913687E+03  0.00000000000E+00 0. -1.
         21    1    1    2  503  502  0.96216315975E+02 -0.12631466365E+03 -0.21266812942E+03  0.26540668226E+03  0.00000000000E+00 0. -1.
         21    1    1    2  504  506 -0.33612145231E+02  0.59084427644E+02 -0.13317708267E+02  0.69268371213E+02  0.00000000000E+00 0. -1.
         21    1    1    2  505  504  0.10722563633E+02  0.35961647953E+02 -0.19435585819E+02  0.42260566614E+02  0.00000000000E+00 0. -1.
         21    1    1    2  506  501 -0.73326734378E+02  0.31268588055E+02  0.36044379222E+02  0.87485609371E+02  0.00000000000E+00 0. -1.
<scales pt_clust_3="131.94195" pt_clust_4="31.59488" pt_clust_5="31.59488" pt_clust_6="79.71533"></scales>
<clustering>
<clus scale="   31.595">  4  5 -1 -1</clus>
<clus scale="   79.715">  1  6  2 -1</clus>
<clus scale="  131.942">  2  3  1 -1</clus>
<clus scale="   79.715">  1  3  2 -1</clus>
</clustering>
</event>
<event>
 6    0  0.2036847E+002  0.2249245E+03  0.7546771E-02  0.1130264E+00
         21   -1    0    0  502  501  0.00000000000E+00  0.00000000000E+00  0.25274078512E+03  0.25274078512E+03  0.00000000000E+00 0.  1.
         21   -1    0    0  504  502 -0.00000000000E+00 -0.00000000000E+00 -0.89044012560E+03  0.89044012560E+03  0.00000000000E+00 0.  1.
         21    1    1    2  503  505 -0.49663487524E+02  0.35047377318E+02 -0.18689365255E+03  0.19652994177E+03  0.00000000000E+00 0.  1.
         21    1    1    2  504  503 -0.52589291025E+02  0.15582006592E+03 -0.61369811106E+03  0.63535100377E+03  0.00000000000E+00 0.  1.
         21    1    1    2  505  506  0.14254451847E+03 -0.15152222984E+03  0.13855174006E+03  0.24994901592E+03  0.00000000000E+00 0.  1.
         21    1    1    2  506  501 -0.40291739925E+02 -0.39345213390E+02  0.24340683060E+02  0.61350949257E+02  0.00000000000E+00 0. -1.
<scales pt_clust_3="39.36601" pt_clust_4="39.36601" pt_clust_5="215.40268" pt_clust_6="56.31581"></scales>
<clustering>
<clus scale="   39.366">  3  4 -1 -1</clus>
<clus scale="   56.316">  1  6  2 -1</clus>
<clus scale="  215.403">  1  5  2 -1</clus>
<clus scale="   56.316">  1  3  2 -1</clus>
</clustering>
</event>
<event>
 6    0  0.2036847E+002  0.8090641E+02  0.7546771E-02  0.1326499E+00
         21   -1    0    0  504  501  0.00000000000E+00  0.00000000000E+00  0.69321937348E+02  0.69321937348E+02  0.00000000000E+00 0.  1.
         21   -1    0    0  506  502 -0.00000000000E+00 -0.00000000000E+00 -0.15669631651E+04  0.15669631651E+04  0.00000000000E+00 0. -1.
         21    1    1    2  503  501  0.34632506494E+02 -0.95341677916E+02 -0.10628915969E+04  0.10677209339E+04  0.00000000000E+00 0. -1.
         21    1    1    2  504  505  0.22989378088E+02  0.77541112809E+02  0.36924463200E+02  0.88907545592E+02  0.00000000000E+00 0.  1.
         21    1    1    2  505  502 -0.62115437363E+01  0.31207031719E+02 -0.12775398004E+03  0.13165690837E+03  0.00000000000E+00 0. -1.
         21    1    1    2  506  503 -0.51410340846E+02 -0.13406466613E+02 -0.34392011406E+03  0.34799971458E+03  0.00000000000E+00 0. -1.
<scales pt_clust_3="80.90641" pt_clust_4="14000.00000" pt_clust_5="31.81921" pt_clust_6="53.23289"></scales>
<clustering>
<clus scale="   31.819">  2  5  1 -1</clus>
<clus scale="   53.233">  2  6  1 -1</clus>
<clus scale="   80.906">  2  3  1 -1</clus>
<clus scale="   80.906">  1  3  2 -1</clus>
</clustering>
</event>
<event>
 6    0  0.2036847E+002  0.7825259E+02  0.7546771E-02  0.1334085E+00
         21   -1    0    0  503  501  0.00000000000E+00  0.00000000000E+00  0.32186705925E+02  0.32186705925E+02  0.00000000000E+00 0. -1.
         21   -1    0    0  506  502 -0.00000000000E+00 -0.00000000000E+00 -0.11103050025E+04  0.11103050025E+04  0.00000000000E+00 0. -1.
         21    1    1    2  503  504 -0.56062009490E+02 -0.19044149925E+02 -0.14962897937E+03  0.16091755660E+03  0.00000000000E+00 0.  1.
         21    1    1    2  504  502  0.56937691109E+02  0.72603438759E+02 -0.70556938755E+03  0.71157664425E+03  0.00000000000E+00 0. -1.
         21    1    1    2  505  501 -0.44474244042E+02 -0.24822754077E+02 -0.11486755304E+02  0.52211809493E+02  0.00000000000E+00 0. -1.
         21    1    1    2  506  505  0.43598562424E+02 -0.28736534757E+02 -0.21143317436E+03  0.21778569810E+03  0.00000000000E+00 0. -1.
<scales pt_clust_3="78.25259" pt_clust_4="14000.00000" pt_clust_5="50.93258" pt_clust_6="47.49011"></scales>
<clustering>
<clus scale="   50.933">  1  5  2 -1</clus>
<clus scale="   47.490">  1  6  2 -1</clus>
<clus scale="   78.253">  1  3  2 -1</clus>
<clus scale="   50.933">  1  3  2 -1</clus>
</clustering>
</event>
<event>
 6    0  0.2036847E+002  0.7131933E+02  0.7546771E-02  0.1355663E+00
         21   -1    0    0  505  501  0.00000000000E+00  0.00000000000E+00  0.12335977162E+03  0.12335977162E+03  0.00000000000E+00 0.  1.
         21   -1    0    0  504  502 -0.00000000000E+00 -0.00000000000E+00 -0.63550532396E+03  0.63550532396E+03  0.00000000000E+00 0.  1.
         21    1    1    2  503  502 -0.47197581825E+02 -0.46281609134E+02 -0.21208494716E+03  0.22214775237E+03  0.00000000000E+00 0.  1.
         21    1    1    2  504  506  0.93854222942E+02  0.25194888925E+02 -0.29451335309E+03  0.31013144430E+03  0.00000000000E+00 0.  1.
         21    1    1    2  505  503 -0.93722475363E+02 -0.64183369968E+01 -0.87353793548E+02  0.12828009466E+03  0.00000000000E+00 0.  1.
         21    1    1    2  506  501  0.47065834246E+02  0.27505057206E+02  0.81806541454E+02  0.98305804253E+02  0.00000000000E+00 0.  1.
<scales pt_clust_3="58.15143" pt_clust_4="71.31933" pt_clust_5="14000.00000" pt_clust_6="54.51349"></scales>
<clustering>
<clus scale="   54.513">  1  6  2 -1</clus>
<clus scale="   58.151">  2  3  1 -1</clus>
<clus scale="   71.319">  2  4  1 -1</clus>
<clus scale="   54.513">  1  3  2 -1</clus>
</clustering>
</event>
<event>
 6    0  0.2036847E+002  0.2002291E+03  0.7546771E-02  0.1149546E+00
         21   -1    0    0  502  501  0.00000000000E+00  0.00000000000E+00  0.24396991369E+03  0.24396991369E+03  0.00000000000E+00 0.  1.
         21   -1    0    0  503  502 -0.00000000000E+00 -0.00000000000E+00 -0.99731727419E+03  0.99731727419E+03  0.00000000000E+00 0. -1.
         21    1    1    2  503  504  0.62644125555E+02  0.51321285742E+02 -0.32565472138E+03  0.33557288090E+03  0.00000000000E+00 0.  1.
         21    1    1    2  504  505  0.31927168123E+02  0.10465979132E+03 -0.61911189465E+03  0.62870704950E+03  0.00000000000E+00 0. -1.
         21    1    1    2  505  506 -0.51161848640E+02 -0.10370615684E+03  0.62920411176E+02  0.13164907848E+03  0.00000000000E+00 0.  1.
         21    1    1    2  506  501 -0.43409445038E+02 -0.52274920224E+02  0.12849884436E+03  0.14535817901E+03  0.00000000000E+00 0.  1.
<scales pt_clust_3="54.25965" pt_clust_4="193.00732" pt_clust_5="63.29393" pt_clust_6="63.29393"></scales>
<clustering>
<clus scale="   54.260">  3  4 -1 -1</clus>
<clus scale="   63.294">  5  6 -1 -1</clus>
<clus scale="  193.007">  2  3  1 -1</clus>
<clus scale="  200.229">  1  3  2 -1</clus>
</clustering>
</event>
<event>
 6    0  0.2036847E+002  0.1085421E+03  0.7546771E-02  0.1263294E+00
         21   -1    0    0  506  501  0.00000000000E+00  0.00000000000E+00  0.35653654855E+03  0.35653654855E+03  0.00000000000E+00 0.  1.
         21   -1    0    0  503  502 -0.00000000000E+00 -0.00000000000E+00 -0.56133238131E+03  0.56133238131E+03  0.00000000000E+00 0. -1.
         21    1    1    2  503  505 -0.47148552390E+02  0.13168591841E+02 -0.30266339470E+03  0.30659668670E+03  0.00000000000E+00 0. -1.
         21    1    1    2  504  501  0.12730979368E+03  0.48250076737E+02  0.29703849256E+03  0.32675330073E+03  0.00000000000E+00 0.  1.
         21    1    1    2  505  504 -0.47939807069E+02 -0.68955195476E+02 -0.22652108377E+03  0.24158817330E+03  0.00000000000E+00 0. -1.
         21    1    1    2  506  502 -0.32221434222E+02  0.75365268975E+01  0.27350153153E+02  0.42930769134E+02  0.00000000000E+00 0. -1.
<scales pt_clust_3="49.15532" pt_clust_4="108.54208" pt_clust_5="14000.00000" pt_clust_6="33.09109"></scales>
<clustering>
<clus scale="   33.091">  1  6  2 -1</clus>
<clus scale="   49.155">  2  3  1 -1</clus>
<clus scale="  108.542">  1  4  2 -1</clus>
<clus scale="   33.091">  1  3  2 -1</clus>
</clustering>
</event>
<event>
 6    0  0.2036847E+002  0.2201950E+03  0.7546771E-02  0.1133738E+00
         21   -1    0    0  503  501  0.00000000000E+00  0.00000000000E+00  0.28539716863E+03  0.28539716863E+03  0.00000000000E+00 0.  1.
         21   -1    0    0  506  502 -0.00000000000E+00 -0.00000000000E+00 -0.19917463627E+03  0.19917463627E+03  0.00000000000E+00 0.  1.
         21    1    1    2  503  505 -0.92400338100E+01 -0.40834081370E+02  0.64764337441E+02  0.77118219834E+02  0.00000000000E+00 0. -1.
         21    1    1    2  504  502 -0.45116288894E+01 -0.76781755837E+02  0.22129719164E+02  0.80034475665E+02  0.00000000000E+00 0.  1.
         21    1    1    2  505  504  0.29330954653E+02 -0.84016717903E+02  0.69969811655E+02  0.11320286362E+03  0.00000000000E+00 0.  1.
         21    1    1    2  506  501 -0.15579291953E+02  0.20163255511E+03 -0.70641335897E+02  0.21421624578E+03  0.00000000000E+00 0.  1.
<scales pt_clust_3="31.26295" pt_clust_4="52.55837" pt_clust_5="52.55837" pt_clust_6="202.23353"></scales>
<clustering>
<clus scale="   31.263">  3  5 -1 -1</clus>
<clus scale="   52.558">  3  4 -1 -1</clus>
<clus scale="  202.234">  2  6  1 -1</clus>
<clus scale="  220.195">  1  3  2 -1</clus>
</clustering>
</event>
<event>
 6    0  0.2036847E+002  0.1086110E+03  0.7546771E-02  0.1263164E+00
         21   -1    0    0  506  501  0.00000000000E+00  0.00000000000E+00  0.30713837205E+03  0.30713837205E+03  0.00000000000E+00 0.  1.
         21   -1    0    0  503  502 -0.00000000000E+00 -0.00000000000E+00 -0.65267971723E+03  0.65267971723E+03  0.00000000000E+00 0.  1.
         21    1    1    2  503  505 -0.78054584779E+02 -0.60455607781E+02 -0.52264033505E+03  0.53188374532E+03  0.00000000000E+00 0.  1.
         21    1    1    2  504  502  0.36687074141E+02  0.56158622661E+02 -0.47695349245E+02  0.82307828594E+02  0.00000000000E+00 0.  1.
         21    1    1    2  505  501 -0.66725447210E+02  0.78447226794E+02  0.17948972528E+03  0.20693673956E+03  0.00000000000E+00 0.  1.
         21    1    1    2  506  504  0.10809295785E+03 -0.74150241674E+02  0.45304613829E+02  0.13868977580E+03  0.00000000000E+00 0.  1.
<scales pt_clust_3="46.24880" pt_clust_4="67.08004" pt_clust_5="108.61101" pt_clust_6="14000.00000"></scales>
<clustering>
<clus scale="   67.080">  2  4  1 -1</clus>
<clus scale="   46.249">  2  3  1 -1</clus>
<clus scale="  108.611">  1  5  2 -1</clus>
<clus scale="  108.611">  1  3  2 -1</clus>
</clustering>
</event>
<event>
 6    0  0.2036847E+002  0.2114251E+03  0.7546771E-02  0.1140442E+00
         21   -1    0    0  502  501  0.00000000000E+00  0.00000000000E+00  0.49018902736E+03  0.49018902736E+03  0.00000000000E+00 0. -1.
         21   -1    0    0  506  502 -0.00000000000E+00 -0.00000000000E+00 -0.14077718157E+03  0.14077718157E+03  0.00000000000E+00 0.  1.
         21    1    1    2  503  501 -0.12036876199E+02 -0.27953243365E+02  0.43946805406E+02  0.53456448709E+02  0.00000000000E+00 0.  1.
         21    1    1    2  504  503 -0.17887980898E+03 -0.10235221542E+02  0.31491385262E+03  0.36231682322E+03  0.00000000000E+00 0. -1.
         21    1    1    2  505  504  0.11855244396E+03 -0.20635461455E+02  0.68182496349E+01  0.12052797504E+03  0.00000000000E+00 0. -1.
         21    1    1    2  506  505  0.72364241219E+02  0.58823926362E+02 -0.16267061871E+02  0.94664961955E+02  0.00000000000E+00 0.  1.
<scales pt_clust_3="30.43469" pt_clust_4="190.76008" pt_clust_5="79.53436" pt_clust_6="79.53436"></scales>
<clustering>
<clus scale="   30.435">  1  3  2 -1</clus>
<clus scale="   79.534">  5  6 -1 -1</clus>
<clus scale="  190.760">  1  4  2 -1</clus>
<clus scale="   30.435">  1  3  2 -1</clus>
</clustering>
</event>
<event>
 6    0  0.2036847E+002  0.1151622E+03  0.7546771E-02  0.1251298E+00
         21   -1    0    0  505  501  0.00000000000E+00  0.00000000000E+00  0.35707753741E+02  0.35707753741E+02  0.00000000000E+00 0. -1.
         21   -1    0    0  504  502 -0.00000000000E+00 -0.00000000000E+00 -0.21944140983E+04  0.21944140983E+04  0.00000000000E+00 0.  1.
         21    1    1    2  503  501  0.30196573968E+02 -0.80179568141E+02 -0.33967790380E+02  0.92165107335E+02  0.00000000000E+00 0. -1.
         21    1    1    2  504  506 -0.31027768541E+02  0.94036873897E+01 -0.29735599602E+03  0.29911827113E+03  0.00000000000E+00 0. -1.
         21    1    1    2  505  502  0.13638530615E+02 -0.31074454790E+02 -0.63739326518E+02  0.72210338615E+02  0.00000000000E+00 0. -1.
         21    1    1    2  506  503 -0.12807336042E+02  0.10185033554E+03 -0.17636432316E+04  0.17666281349E+04  0.00000000000E+00 0.  1.
<scales pt_clust_3="14000.00000" pt_clust_4="32.42147" pt_clust_5="33.19173" pt_clust_6="115.16224"></scales>
<clustering>
<clus scale="   32.421">  2  4  1 -1</clus>
<clus scale="   33.192">  1  5  2 -1</clus>
<clus scale="  115.162">  2  6  1 -1</clus>
<clus scale="   33.192">  1  3  2 -1</clus>
</clustering>
</event>
<event>
 6    0  0.2036847E+002  0.1208735E+03  0.7546771E-02  0.1241663E+00
         21   -1    0    0  505  501  0.00000000000E+00  0.00000000000E+00  0.28885340444E+04  0.28885340444E+04  0.00000000000E+00 0. -1.
         21   -1    0    0  506  502 -0.00000000000E+00 -0.00000000000E+00 -0.54935709996E+03  0.54935709996E+03  0.00000000000E+00 0. -1.
         21    1    1    2  503  504 -0.68475852881E+02 -0.33073664420E+02  0.15397854274E+04  0.15416620810E+04  0.00000000000E+00 0. -1.
         21    1    1    2  504  501 -0.37994328356E+02  0.18333834995E+02  0.13388866343E+04  0.13395510882E+04  0.00000000000E+00 0. -1.
         21    1    1    2  505  502  0.22573983521E+02  0.39255105843E+02 -0.25738336005E+03  0.26133645382E+03  0.00000000000E+00 0.  1.
         21    1    1    2  506  503  0.83896197716E+02 -0.24515276419E+02 -0.28211175708E+03  0.29534152138E+03  0.00000000000E+00 0. -1.
<scales pt_clust_3="41.35820" pt_clust_4="41.35820" pt_clust_5="45.28298" pt_clust_6="107.36420"></scales>
<clustering>
<clus scale="   41.358">  3  4 -1 -1</clus>
<clus scale="   45.283">  2  5  1 -1</clus>
<clus scale="  107.364">  2  6  1 -1</clus>
<clus scale="  120.873">  1  3  2 -1</clus>
</clustering>
</event>
<event>
 6    0  0.2036847E+002  0.1634528E+03  0.7546771E-02  0.1184853E+00
         21   -1    0    0  504  501  0.00000000000E+00  0.00000000000E+00  0.78719854031E+03  0.78719854031E+03  0.00000000000E+00 0.  1.
         21   -1    0    0  505  502 -0.00000000000E+00 -0.00000000000E+00 -0.23349097989E+03  0.23349097989E+03  0.00000000000E+00 0.  1.
         21    1    1    2  503  501  0.63876780412E+02  0.67892074495E+02  0.71696218785E+02  0.11760070001E+03  0.00000000000E+00 0.  1.
         21    1    1    2  504  502 -0.11972406386E+03  0.93628997224E+02  0.64042898447E+03  0.65821692833E+03  0.00000000000E+00 0.  1.
         21    1    1    2  505  506 -0.15794353324E+01 -0.33840825771E+02 -0.56809036581E+00  0.33882426588E+02  0.00000000000E+00 0.  1.
         21    1    1    2  506  503  0.57426718779E+02 -0.12768024595E+03 -0.15784955248E+03  0.21098946526E+03  0.00000000000E+00 0.  1.
<scales pt_clust_3="90.51750" pt_clust_4="14000.00000" pt_clust_5="33.87766" pt_clust_6="163.45276"></scales>
<clustering>
<clus scale="   33.878">  2  5  1 -1</clus>
<clus scale="   90.517">  1  3  2 -1</clus>
<clus scale="  163.453">  2  6  1 -1</clus>
<clus scale="   90.517">  1  3  2 -1</clus>
</clustering>
</event>
<event>
 6    0  0.2036847E+002  0.7712801E+02  0.7546771E-02  0.1337405E+00
         21   -1    0    0  506  501  0.00000000000E+00  0.00000000000E+00  0.13983070468E+04  0.13983070468E+04  0.00000000000E+00 0. -1.
         21   -1    0    0  501  502 -0.00000000000E+00 -0.00000000000E+00 -0.26919690924E+02  0.26919690924E+02  0.00000000000E+00 0. -1.
         21    1    1    2  503  505  0.29691144755E+02 -0.31136112618E+02  0.10128183161E+03  0.11004104235E+03  0.00000000000E+00 0. -1.
         21    1    1    2  504  503 -0.52191620623E+02  0.99310357952E+02  0.84899117493E+03  0.85637172277E+03  0.00000000000E+00 0.  1.
         21    1    1    2  505  502  0.36960560488E+02 -0.67830757274E+01  0.49558489341E+01  0.37903213406E+02  0.00000000000E+00 0. -1.
         21    1    1    2  506  504 -0.14460084619E+02 -0.61391169607E+02  0.41615850039E+03  0.42091075918E+03  0.00000000000E+00 0. -1.
<scales pt_clust_3="56.53786" pt_clust_4="77.12801" pt_clust_5="37.57783" pt_clust_6="14000.00000"></scales>
<clustering>
<clus scale="   37.578">  2  5  1 -1</clus>
<clus scale="   56.538">  2  3  1 -1</clus>
<clus scale="   77.128">  2  4  1 -1</clus>
<clus scale="   77.128">  1  3  2 -1</clus>
</clustering>
</event>
<event>
 6    0  0.2036847E+002  0.1428477E+03  0.7546771E-02  0.1209548E+00
         21   -1    0    0  504  501  0.00000000000E+00  0.00000000000E+00  0.39491280134E+03  0.39491280134E+03  0.00000000000E+00 0. -1.
         21   -1    0    0  505  502 -0.00000000000E+00 -0.00000000000E+00 -0.18240912353E+03  0.18240912353E+03  0.00000000000E+00 0. -1.
         21    1    1    2  503  506  0.18502913876E+03 -0.35754288573E+02  0.53102970594E+02  0.19579090078E+03  0.00000000000E+00 0. -1.
         21    1    1    2  504  503 -0.12392667604E+03 -0.70065102745E+02  0.97881553729E+02  0.17276497972E+03  0.00000000000E+00 0. -1.
         21    1    1    2  505  501  0.48010475892E+02  0.56431486638E+02  0.47895020346E+02  0.88223871223E+02  0.00000000000E+00 0. -1.
         21    1    1    2  506  502 -0.10911293862E+03  0.49387904680E+02  0.13624133146E+02  0.12054217314E+03  0.00000000000E+00 0. -1.
<scales pt_clust_3="14000.00000" pt_clust_4="114.04961" pt_clust_5="74.09128" pt_clust_6="142.84769"></scales>
<clustering>
<clus scale="   74.091">  1  5  2 -1</clus>
<clus scale="  114.050">  1  4  2 -1</clus>
<clus scale="  142.848">  2  6  1 -1</clus>
<clus scale="   74.091">  1  3  2 -1</clus>
</clustering>
</event>
<event>
 6    0  0.2036847E+002  0.1614064E+03  0.7546771E-02  0.1187118E+00
         21   -1    0    0  506  501  0.00000000000E+00  0.00000000000E+00  0.14452174791E+04  0.14452174791E+04  0.00000000000E+00 0.  1.
         21   -1    0    0  505  502 -0.00000000000E+00 -0.00000000000E+00 -0.41521753265E+02  0.41521753265E+02  0.00000000000E+00 0.  1.
         21    1    1    2  503  501 -0.39255382304E+02 -0.31448770192E+02  0.55653064645E+03  0.55879904315E+03  0.00000000000E+00 0.  1.
         21    1    1    2  504  503 -0.10776411378E+03 -0.29996367041E+02  0.64932245152E+03  0.65888734416E+03  0.00000000000E+00 0.  1.
         21    1    1    2  505  504  0.57144652282E+02 -0.62119563232E+01  0.11752434063E+03  0.13082840031E+03  0.00000000000E+00 0.  1.
         21    1    1    2  506  502  0.89874843804E+02  0.67657093557E+02  0.80318287208E+02  0.13822444472E+03  0.00000000000E+00 0.  1.
<scales pt_clust_3="38.45216" pt_clust_4="38.45216" pt_clust_5="57.48130" pt_clust_6="150.87686"></scales>
<clustering>
<clus scale="   38.452">  3  4 -1 -1</clus>
<clus scale="   57.481">  2  5  1 -1</clus>
<clus scale="  150.877">  2  6  1 -1</clus>
<clus scale="  161.406">  1  3  2 -1</clus>
</clustering>
</event>
<event>
 6    0  0.2036847E+002  0.1307373E+03  0.7546771E-02  0.1226366E+00
         21   -1    0    0  506  501  0.00000000000E+00  0.00000000000E+00  0.10039764718E+03  0.10039764718E+03  0.00000000000E+00 0.  1.
         21   -1    0    0  501  502 -0.00000000000E+00 -0.00000000000E+00 -0.70263841722E+03  0.70263841722E+03  0.00000000000E+00 0.  1.
         21    1    1    2  503  504  0.29510437337E+02  0.34108674670E+02 -0.15399971125E+03  0.16046862206E+03  0.00000000000E+00 0.  1.
         21    1    1    2  504  502  0.70857912625E+02  0.38768079926E+02 -0.49829822705E+03  0.50480187290E+03  0.00000000000E+00 0.  1.
         21    1    1    2  505  503 -0.62074953646E+02 -0.27207631395E+02  0.35067071908E+02  0.76310252315E+02  0.00000000000E+00 0.  1.
         21    1    1    2  506  505 -0.38293396317E+02 -0.45669123201E+02  0.14990096352E+02  0.61455317134E+02  0.00000000000E+00 0.  1.
<scales pt_clust_3="30.87770" pt_clust_4="30.87770" pt_clust_5="128.34965" pt_clust_6="30.94266"></scales>
<clustering>
<clus scale="   30.878">  3  4 -1 -1</clus>
<clus scale="   30.943">  5  6 -1 -1</clus>
<clus scale="  128.350">  1  5  2 -1</clus>
<clus scale="  128.350">  1  3  2 -1</clus>
</clustering>
</event>
<event>
 6    0  0.2036847E+002  0.1629671E+03  0.7546771E-02  0.1185387E+00
         21   -1    0    0  506  501  0.00000000000E+00  0.00000000000E+00  0.18834156864E+04  0.18834156864E+04  0.00000000000E+00 0. -1.
         21   -1    0    0  503  502 -0.00000000000E+00 -0.00000000000E+00 -0.39220918715E+03  0.39220918715E+03  0.00000000000E+00 0.  1.
         21    1    1    2  503  501 -0.43168133450E+02 -0.44455793839E+02 -0.20758975300E+03  0.21664097235E+03  0.00000000000E+00 0.  1.
         21    1    1    2  504  502  0.13947647960E+03 -0.68085105078E+02 -0.78662953041E+02  0.17400324731E+03  0.00000000000E+00 0.  1.
         21    1    1    2  505  504 -0.17961665122E+03  0.21414172712E+03  0.33383706172E+03  0.43539178273E+03  0.00000000000E+00 0. -1.
         21    1    1    2  506  505  0.83308305073E+02 -0.10160082820E+03  0.14436221436E+04  0.14495888712E+04  0.00000000000E+00 0. -1.
<scales pt_clust_3="61.96616" pt_clust_4="14000.00000" pt_clust_5="162.96711" pt_clust_6="131.50875"></scales>
<clustering>
<clus scale="   61.966">  2  3  1 -1</clus>
<clus scale="  131.509">  1  6  2 -1</clus>
<clus scale="  162.967">  1  5  2 -1</clus>
<clus scale="  131.509">  1  3  2 -1</clus>
</clustering>
</event>
<event>
 6    0  0.2036847E+002  0.1990925E+03  0.7546771E-02  0.1150507E+00
         21   -1    0    0  502  501  0.00000000000E+00  0.00000000000E+00  0.90134679410E+02  0.90134679410E+02  0.00000000000E+00 0.  1.
         21   -1    0    0  503  502 -0.00000000000E+00 -0.00000000000E+00 -0.49478284691E+03  0.49478284691E+03  0.00000000000E+00 0.  1.
         21    1    1    2  503  505  0.90375810583E+02  0.45098619274E+02 -0.13459508549E+03  0.16827807236E+03  0.00000000000E+00 0.  1.
         21    1    1    2  504  506 -0.94377065059E+02 -0.56465704958E+02 -0.67274756809E+02  0.12892361750E+03  0.00000000000E+00 0.  1.
         21    1    1    2  505  504  0.62295680460E+02  0.73960307615E+02 -0.17103959845E+03  0.19648262810E+03  0.00000000000E+00 0.  1.
         21    1    1    2  506  501 -0.58294425984E+02 -0.62593221931E+02 -0.31738726754E+02  0.91233208364E+02  0.00000000000E+00 0.  1.
<scales pt_clust_3="45.41381" pt_clust_4="196.63509" pt_clust_5="45.41381" pt_clust_6="30.31640"></scales>
<clustering>
<clus scale="   30.316">  4  6 -1 -1</clus>
<clus scale="   45.414">  3  5 -1 -1</clus>
<clus scale="  196.635">  1  4  2 -1</clus>
<clus scale="  196.635">  1  3  2 -1</clus>
</clustering>
</event>
<event>
 6    0  0.2036847E+002  0.1261917E+03  0.7546771E-02  0.1233219E+00
         21   -1    0    0  505  501  0.00000000000E+00  0.00000000000E+00  0.41085730476E+02  0.41085730476E+02  0.00000000000E+00 0. -1.
         21   -1    0    0  504  502 -0.00000000000E+00 -0.00000000000E+00 -0.13134435192E+04  0.13134435192E+04  0.00000000000E+00 0.  1.
         21    1    1    2  503  506  0.18121034856E+02 -0.48419722528E+02 -0.33063432577E+03  0.33465190693E+03  0.00000000000E+00 0.  1.
         21    1    1    2  504  501  0.34119912246E+02  0.30087528635E+02 -0.14964608134E+03  0.15640772823E+03  0.00000000000E+00 0. -1.
         21    1    1    2  505  503 -0.10639654362E+03  0.38255612354E+02 -0.57900032739E+02  0.12702806840E+03  0.00000000000E+00 0. -1.
         21    1    1    2  506  502  0.54155596516E+02 -0.19923418461E+02 -0.73417734887E+03  0.73644154611E+03  0.00000000000E+00 0.  1.
<scales pt_clust_3="47.53106" pt_clust_4="45.49096" pt_clust_5="111.36318" pt_clust_6="47.53106"></scales>
<clustering>
<clus scale="   45.491">  2  4  1 -1</clus>
<clus scale="   47.531">  3  6 -1 -1</clus>
<clus scale="  111.363">  1  5  2 -1</clus>
<clus scale="  111.363">  1  3  2 -1</clus>
</clustering>
</event>
<event>
 6    0  0.2036847E+002  0.1357044E+03  0.7546771E-02  0.1219229E+00
         21   -1    0    0  503  501  0.00000000000E+00  0.00000000000E+00  0.76349767099E+03  0.76349767099E+03  0.00000000000E+00 0. -1.
         21   -1    0    0  505  502 -0.00000000000E+00 -0.00000000000E+00 -0.82538338793E+02  0.82538338793E+02  0.00000000000E+00 0. -1.
         21    1    1    2  503  504  0.17627101765E+02  0.29209170597E+02  0.64149440925E+02  0.72657010223E+02  0.00000000000E+00 0.  1.
         21    1    1    2  504  502  0.21043446034E+02  0.15074690623E+03  0.34056162096E+02  0.15597204408E+03  0.00000000000E+00 0. -1.
         21    1    1    2  505  506 -0.24751993664E+02 -0.24565637289E+02  0.41964021167E+02  0.54562906798E+02  0.00000000000E+00 0. -1.
         21    1    1    2  506  501 -0.13918554135E+02 -0.15539043953E+03  0.54078970801E+03  0.56284404868E+03  0.00000000000E+00 0. -1.
<scales pt_clust_3="34.11584" pt_clust_4="14000.00000" pt_clust_5="32.58082" pt_clust_6="135.70440"></scales>
<clustering>
<clus scale="   34.116">  1  3  2 -1</clus>
<clus scale="   32.581">  2  5  1 -1</clus>
<clus scale="  135.704">  1  6  2 -1</clus>
<clus scale="   34.116">  1  3  2 -1</clus>
</clustering>
</event>
<event>
 6    0  0.2036847E+002  0.1568228E+03  0.7546771E-02  0.1192331E+00
         21   -1    0    0  506  501  0.00000000000E+00  0.00000000000E+00  0.59418722713E+03  0.59418722713E+03  0.00000000000E+00 0.  1.
         21   -1    0    0  504  502 -0.00000000000E+00 -0.00000000000E+00 -0.31363301537E+03  0.31363301537E+03  0.00000000000E+00 0. -1.
         21    1    1    2  503  502 -0.10883987681E+03  0.26559677728E+02 -0.22386836052E+03  0.25033692917E+03  0.00000000000E+00 0. -1.
         21    1    1    2  504  501 -0.64804950585E+01 -0.47440615425E+02  0.21375003749E+03  0.21904722627E+03  0.00000000000E+00 0.  1.
         21    1    1    2  505  503 -0.16504407988E+02  0.39853395731E+02 -0.53891187585E+02  0.69028608081E+02  0.00000000000E+00 0. -1.
         21    1    1    2  506  505  0.13182477986E+03 -0.18972458034E+02  0.34456372237E+03  0.36940747898E+03  0.00000000000E+00 0.  1.
<scales pt_clust_3="42.63944" pt_clust_4="47.88119" pt_clust_5="42.63944" pt_clust_6="140.96564"></scales>
<clustering>
<clus scale="   42.639">  3  5 -1 -1</clus>
<clus scale="   47.881">  1  4  2 -1</clus>
<clus scale="  140.966">  1  6  2 -1</clus>
<clus scale="   47.881">  1  3  2 -1</clus>
</clustering>
</event>
<event>
 6    0  0.2036847E+002  0.2165297E+03  0.7546771E-02  0.1136497E+00
         21   -1    0    0  505  501  0.00000000000E+00  0.00000000000E+00  0.25782791839E+03  0.25782791839E+03  0.00000000000E+00 0.  1.
         21   -1    0    0  503  502 -0.00000000000E+00 -0.00000000000E+00 -0.71074761932E+03  0.71074761932E+03  0.00000000000E+00 0.  1.
         21    1    1    2  503  506  0.93552664392E+02  0.76701748277E+02 -0.44999260141E+03  0.46597060049E+03  0.00000000000E+00 0.  1.
         21    1    1    2  504  501 -0.56674558406E+02 -0.17932579515E+03  0.15545416163E+03  0.24399947284E+03  0.00000000000E+00 0.  1.
         21    1    1    2  505  502 -0.13906620736E+01  0.11712778625E+03 -0.17987611352E+03  0.21465383404E+03  0.00000000000E+00 0.  1.
         21    1    1    2  506  504 -0.35487443912E+02 -0.14503739371E+02  0.21494852366E+02  0.43951630338E+02  0.00000000000E+00 0.  1.
<scales pt_clust_3="203.33211" pt_clust_4="33.60863" pt_clust_5="117.13604" pt_clust_6="33.60863"></scales>
<clustering>
<clus scale="   33.609">  4  6 -1 -1</clus>
<clus scale="  117.136">  2  5  1 -1</clus>
<clus scale="  203.332">  2  3  1 -1</clus>
<clus scale="  216.530">  1  3  2 -1</clus>
</clustering>
</event>
<event>
 6    0  0.2036847E+002  0.2664615E+03  0.7546771E-02  0.1103322E+00
         21   -1    0    0  505  501  0.00000000000E+00  0.00000000000E+00  0.31206134022E+03  0.31206134022E+03  0.00000000000E+00 0. -1.
         21   -1    0    0  506  502 -0.00000000000E+00 -0.00000000000E+00 -0.58174564923E+03  0.58174564923E+03  0.00000000000E+00 0.  1.
         21    1    1    2  503  501 -0.10791049375E+03  0.18873051304E+02  0.13829952754E+02  0.11041799817E+03  0.00000000000E+00 0.  1.
         21    1    1    2  504  503  0.22475956239E+02 -0.26965239993E+03  0.99467506606E+02  0.28829042695E+03  0.00000000000E+00 0. -1.
         21    1    1    2  505  502  0.64859575001E+02  0.27289997579E+03 -0.36352918204E+03  0.45916731967E+03  0.00000000000E+00 0.  1.
         21    1    1    2  506  504  0.20574962504E+02 -0.22120627166E+02 -0.19452586329E+02  0.35931244665E+02  0.00000000000E+00 0. -1.
<scales pt_clust_3="107.46146" pt_clust_4="266.46147" pt_clust_5="14000.00000" pt_clust_6="30.21012"></scales>
<clustering>
<clus scale="   30.210">  2  6  1 -1</clus>
<clus scale="  107.461">  1  3  2 -1</clus>
<clus scale="  266.461">  1  4  2 -1</clus>
<clus scale="  107.461">  1  3  2 -1</clus>
</clustering>
</event>
<event>
 6    0  0.2036847E+002  0.1537406E+03  0.7546771E-02  0.1195950E+00
         21   -1    0    0  505  501  0.00000000000E+00  0.00000000000E+00  0.10927486246E+04  0.10927486246E+04  0.00000000000E+00 0.  1.
         21   -1    0    0  503  502 -0.00000000000E+00 -0.00000000000E+00 -0.28775163818E+03  0.28775163818E+03  0.00000000000E+00 0.  1.
         21    1    1    2  503  506  0.12480141141E+03 -0.87077242583E+02 -0.12389970311E+03  0.19623703752E+03  0.00000000000E+00 0. -1.
         21    1    1    2  504  501 -0.78804670710E+02 -0.93219576602E+02  0.85195669827E+03  0.86065688942E+03  0.00000000000E+00 0.  1.
         21    1    1    2  505  502 -0.54481371419E+02  0.36037232282E-01  0.12542454557E+03  0.13674625319E+03  0.00000000000E+00 0. -1.
         21    1    1    2  506  504  0.84846307222E+01  0.18026078195E+03 -0.48484554328E+02  0.18686008262E+03  0.00000000000E+00 0.  1.
<scales pt_clust_3="150.50032" pt_clust_4="153.74060" pt_clust_5="54.48138" pt_clust_6="14000.00000"></scales>
<clustering>
<clus scale="   54.481">  1  5  2 -1</clus>
<clus scale="  150.500">  2  3  1 -1</clus>
<clus scale="  153.741">  1  4  2 -1</clus>
<clus scale="   54.481">  1  3  2 -1</clus>
</clustering>
</event>
<event>
 6    0  0.2036847E+002  0.1339129E+03  0.7546771E-02  0.1221762E+00
         21   -1    0    0  504  501  0.00000000000E+00  0.00000000000E+00  0.94081725811E+02  0.94081725811E+02  0.00000000000E+00 0. -1.
         21   -1    0    0  505  502 -0.00000000000E+00 -0.00000000000E+00 -0.64339872912E+03  0.64339872912E+03  0.00000000000E+00 0.  1.
         21    1    1    2  503  506 -0.14747834454E+02 -0.67970417018E+02 -0.74289909550E+01  0.69947595508E+02  0.00000000000E+00 0. -1.
         21    1    1    2  504  503  0.29923849312E+02 -0.51235293882E+02  0.33518355657E+02  0.68146696639E+02  0.00000000000E+00 0. -1.
         21    1    1    2  505  501  0.39418032701E+02  0.24860960065E+02 -0.84255783993E+02  0.96285439053E+02  0.00000000000E+00 0. -1.
         21    1    1    2  506  502 -0.54594047559E+02  0.94344750835E+02 -0.49115058402E+03  0.50310072373E+03  0.00000000000E+00 0.  1.
<scales pt_clust_3="58.98583" pt_clust_4="58.98583" pt_clust_5="46.60310" pt_clust_6="118.25230"></scales>
<clustering>
<clus scale="   46.603">  2  5  1 -1</clus>
<clus scale="   58.986">  3  4 -1 -1</clus>
<clus scale="  118.252">  2  6  1 -1</clus>
<clus scale="  133.913">  1  3  2 -1</clus>
</clustering>
</event>
<event>
 6    0  0.2172368E+002  0.1254434E+03  0.7546771E-02  0.1234378E+00
         21   -1    0    0  505  501  0.00000000000E+00  0.00000000000E+00  0.22281674973E+03  0.22281674973E+03  0.00000000000E+00 0. -1.
         21   -1    0    0  504  502 -0.00000000000E+00 -0.00000000000E+00 -0.23378065570E+04  0.23378065570E+04  0.00000000000E+00 0. -1.
         21    1    1    2  503  502  0.38245489750E+02  0.84889736358E+02 -0.20860325760E+04  0.20881094064E+04  0.00000000000E+00 0. -1.
         21    1    1    2  504  506  0.45690223034E+01  0.35176924260E+02 -0.15232197310E+03  0.15639781154E+03  0.00000000000E+00 0. -1.
         21    1    1    2  505  503 -0.65572163444E+02 -0.59470685300E+01 -0.66402617871E+02  0.93511410549E+02  0.00000000000E+00 0.  1.
         21    1    1    2  506  501  0.22757651390E+02 -0.11411959209E+03  0.18976735968E+03  0.22260467829E+03  0.00000000000E+00 0. -1.
<scales pt_clust_3="14000.00000" pt_clust_4="35.47241" pt_clust_5="65.57057" pt_clust_6="125.44337"></scales>
<clustering>
<clus scale="   35.472">  2  4  1 -1</clus>
<clus scale="   65.571">  1  5  2 -1</clus>
<clus scale="  125.443">  1  6  2 -1</clus>
<clus scale="   65.571">  1  3  2 -1</clus>
</clustering>
</event>
<event>
 6    0  0.2036847E+002  0.4326092E+03  0.7546771E-02  0.1033039E+00
         21   -1    0    0  506  501  0.00000000000E+00  0.00000000000E+00  0.46223788905E+03  0.46223788905E+03  0.00000000000E+00 0.  1.
         21   -1    0    0  503  502 -0.00000000000E+00 -0.00000000000E+00 -0.38695323183E+03  0.38695323183E+03  0.00000000000E+00 0.  1.
         21    1    1    2  503  501 -0.40922286007E+03  0.86870733403E+01 -0.42205804683E+01  0.40933681455E+03  0.00000000000E+00 0.  1.
         21    1    1    2  504  505  0.29033172591E+03  0.16825126645E+02  0.92818512884E+02  0.30527180068E+03  0.00000000000E+00 0.  1.
         21    1    1    2  505  502  0.51653043757E+02 -0.33249037350E+02  0.11498757591E+02  0.62496054597E+02  0.00000000000E+00 0. -1.
         21    1    1    2  506  504  0.67238090407E+02  0.77368373649E+01 -0.24812032784E+02  0.72086451049E+02  0.00000000000E+00 0.  1.
<scales pt_clust_3="409.31506" pt_clust_4="46.55100" pt_clust_5="38.85628" pt_clust_6="46.55100"></scales>
<clustering>
<clus scale="   38.856">  4  5 -1 -1</clus>
<clus scale="   46.551">  4  6 -1 -1</clus>
<clus scale="  409.315">  2  3  1 -1</clus>
<clus scale="  432.609">  1  3  2 -1</clus>
</clustering>
</event>
<event>
 6    0  0.2036847E+002  0.1780419E+03  0.7546771E-02  0.1169712E+00
         21   -1    0    0  504  501  0.00000000000E+00  0.00000000000E+00  0.41574389262E+03  0.41574389262E+03  0.00000000000E+00 0.  1.
         21   -1    0    0  506  502 -0.00000000000E+00 -0.00000000000E+00 -0.17930528356E+04  0.17930528356E+04  0.00000000000E+00 0. -1.
         21    1    1    2  503  501  0.75896852539E+02  0.22982116056E+03  0.27987031056E+03  0.37000741723E+03  0.00000000000E+00 0.  1.
         21    1    1    2  504  505 -0.48727345908E+02 -0.11595894611E+03 -0.16623739748E+02  0.12687466313E+03  0.00000000000E+00 0.  1.
         21    1    1    2  505  502 -0.61413921960E+02 -0.14157185385E+03 -0.16575359351E+04  0.16647040685E+04  0.00000000000E+00 0. -1.
         21    1    1    2  506  503  0.34244415329E+02  0.27709639394E+02  0.16980421279E+02  0.47210579359E+02  0.00000000000E+00 0.  1.
<scales pt_clust_3="36.94000" pt_clust_4="125.78089" pt_clust_5="155.56871" pt_clust_6="36.94000"></scales>
<clustering>
<clus scale="   36.940">  3  6 -1 -1</clus>
<clus scale="  125.781">  1  4  2 -1</clus>
<clus scale="  155.569">  2  5  1 -1</clus>
<clus scale="  125.781">  1  3  2 -1</clus>
</clustering>
</event>
<event>
 6    0  0.2036847E+002  0.1523392E+03  0.7546771E-02  0.1197628E+00
         21   -1    0    0  505  501  0.00000000000E+00  0.00000000000E+00  0.10960692164E+04  0.10960692164E+04  0.00000000000E+00 0.  1.
         21   -1    0    0  506  502 -0.00000000000E+00 -0.00000000000E+00 -0.20621898665E+03  0.20621898665E+03  0.00000000000E+00 0.  1.
         21    1    1    2  503  501 -0.30518439457E+02 -0.12260153435E+02  0.12972857959E+03  0.13383269732E+03  0.00000000000E+00 0. -1.
         21    1    1    2  504  502  0.18297040810E+02 -0.46766415709E+02 -0.23648868027E+02  0.55508092200E+02  0.00000000000E+00 0.  1.
         21    1    1    2  505  504  0.26186670548E+02 -0.88089812108E+02 -0.14544959492E+03  0.17204982236E+03  0.00000000000E+00 0.  1.
         21    1    1    2  506  503 -0.13965271902E+02  0.14711638125E+03  0.92922011308E+03  0.94089759114E+03  0.00000000000E+00 0.  1.
<scales pt_clust_3="32.88900" pt_clust_4="40.63940" pt_clust_5="40.63940" pt_clust_6="142.07015"></scales>
<clustering>
<clus scale="   32.889">  1  3  2 -1</clus>
<clus scale="   40.639">  4  5 -1 -1</clus>
<clus scale="  142.070">  1  6  2 -1</clus>
<clus scale="   32.889">  1  3  2 -1</clus>
</clustering>
</event>
<event>
 6    0  0.2036847E+002  0.2001436E+03  0.7546771E-02  0.1149618E+00
         21   -1    0    0  506  501  0.00000000000E+00  0.00000000000E+00  0.13228543051E+04  0.13228543051E+04  0.00000000000E+00 0.  1.
         21   -1    0    0  505  502 -0.00000000000E+00 -0.00000000000E+00 -0.25228349141E+03  0.25228349141E+03  0.00000000000E+00 0.  1.
         21    1    1    2  503  501 -0.29829109090E+02  0.19841324770E+02  0.56963822911E+02  0.67292875093E+02  0.00000000000E+00 0. -1.
         21    1    1    2  504  503  0.55160019891E+02 -0.15999017285E+03 -0.99275860689E+02  0.19620188511E+03  0.00000000000E+00 0.  1.
         21    1    1    2  505  504 -0.49784545841E+01 -0.38034313128E+02 -0.88758302137E+02  0.96692451533E+02  0.00000000000E+00 0.  1.
         21    1    1    2  506  502 -0.20352456218E+02  0.17818316121E+03  0.12016411536E+04  0.12149505848E+04  0.00000000000E+00 0.  1.
<scales pt_clust_3="35.82533" pt_clust_4="200.14362" pt_clust_5="38.30916" pt_clust_6="14000.00000"></scales>
<clustering>
<clus scale="   35.825">  1  3  2 -1</clus>
<clus scale="   38.309">  2  5  1 -1</clus>
<clus scale="  200.144">  2  4  1 -1</clus>
<clus scale="   35.825">  1  3  2 -1</clus>
</clustering>
</event>
<event>
 6    0  0.2036847E+002  0.1755395E+03  0.7546771E-02  0.1172191E+00
         21   -1    0    0  502  501  0.00000000000E+00  0.00000000000E+00  0.18716018800E+04  0.18716018800E+04  0.00000000000E+00 0.  1.
         21   -1    0    0  505  502 -0.00000000000E+00 -0.00000000000E+00 -0.43492614285E+02  0.43492614285E+02  0.00000000000E+00 0.  1.
         21    1    1    2  503  506  0.29871036719E+02 -0.11115455342E+03  0.62389810586E+03  0.63442608716E+03  0.00000000000E+00 0.  1.
         21    1    1    2  504  503 -0.34993410972E+02  0.12222870769E+03  0.39723881822E+03  0.41708880888E+03  0.00000000000E+00 0.  1.
         21    1    1    2  505  504 -0.29749252863E+01  0.59326274088E+02  0.62512654189E+01  0.59728848114E+02  0.00000000000E+00 0.  1.
         21    1    1    2  506  501  0.80972995400E+01 -0.70400428357E+02  0.80072107620E+03  0.80385075011E+03  0.00000000000E+00 0.  1.
<scales pt_clust_3="53.77418" pt_clust_4="161.60900" pt_clust_5="59.40082" pt_clust_6="53.77418"></scales>
<clustering>
<clus scale="   53.774">  3  6 -1 -1</clus>
<clus scale="   59.401">  2  5  1 -1</clus>
<clus scale="  161.609">  2  4  1 -1</clus>
<clus scale="  175.539">  1  3  2 -1</clus>
</clustering>
</event>
<event>
 6    0  0.2036847E+002  0.1589320E+03  0.7546771E-02  0.1189908E+00
         21   -1    0    0  503  501  0.00000000000E+00  0.00000000000E+00  0.17039084899E+04  0.17039084899E+04  0.00000000000E+00 0.  1.
         21   -1    0    0  505  502 -0.00000000000E+00 -0.00000000000E+00 -0.17102689118E+03  0.17102689118E+03  0.00000000000E+00 0. -1.
         21    1    1    2  503  506  0.71587001254E+02  0.82027197489E+01  0.20312528281E+03  0.21552694466E+03  0.00000000000E+00 0. -1.
         21    1    1    2  504  502 -0.30174402998E+02  0.11770246449E+02 -0.48982630435E+02  0.58722494685E+02  0.00000000000E+00 0.  1.
         21    1    1    2  505  501  0.85633380561E+02  0.37362777540E+02  0.14438315292E+04  0.14468512493E+04  0.00000000000E+00 0.  1.
         21    1    1    2  506  504 -0.12704597882E+03 -0.57335743738E+02 -0.65092582839E+02  0.15383469240E+03  0.00000000000E+00 0. -1.
<scales pt_clust_3="70.54443" pt_clust_4="32.38878" pt_clust_5="158.93196" pt_clust_6="14000.00000"></scales>
<clustering>
<clus scale="   32.389">  2  4  1 -1</clus>
<clus scale="   70.544">  1  3  2 -1</clus>
<clus scale="  158.932">  1  5  2 -1</clus>
<clus scale="   70.544">  1  3  2 -1</clus>
</clustering>
</event>
<event>
 6    0  0.2036847E+002  0.1435331E+03  0.7546771E-02  0.1208652E+00
         21   -1    0    0  503  501  0.00000000000E+00  0.00000000000E+00  0.24115606574E+03  0.24115606574E+03  0.00000000000E+00 0. -1.
         21   -1    0    0  504  502 -0.00000000000E+00 -0.00000000000E+00 -0.10260756025E+04  0.10260756025E+04  0.00000000000E+00 0. -1.
         21    1    1    2  503  505  0.34889478425E+02  0.51368344207E+02  0.14423296160E+03  0.15703225689E+03  0.00000000000E+00 0. -1.
         21    1    1    2  504  501 -0.22746571643E+02 -0.63532972868E+02 -0.17570795272E+03  0.18822096007E+03  0.00000000000E+00 0. -1.
         21    1    1    2  505  506  0.23302536545E+02  0.92703560315E+02  0.53978058881E+02  0.10977517545E+03  0.00000000000E+00 0. -1.
         21    1    1    2  506  502 -0.35445443326E+02 -0.80538931654E+02 -0.80742260450E+03  0.81220327580E+03  0.00000000000E+00 0. -1.
<scales pt_clust_3="62.09656" pt_clust_4="63.33593" pt_clust_5="143.53309" pt_clust_6="14000.00000"></scales>
<clustering>
<clus scale="   62.097">  1  3  2 -1</clus>
<clus scale="   63.336">  2  4  1 -1</clus>
<clus scale="  143.533">  1  5  2 -1</clus>
<clus scale="   62.097">  1  3  2 -1</clus>
</clustering>
</event>
<event>
 6    0  0.2036847E+002  0.1367724E+03  0.7546771E-02  0.1217739E+00
         21   -1    0    0  506  501  0.00000000000E+00  0.00000000000E+00  0.19594693288E+03  0.19594693288E+03  0.00000000000E+00 0. -1.
         21   -1    0    0  503  502 -0.00000000000E+00 -0.00000000000E+00 -0.49274596398E+03  0.49274596398E+03  0.00000000000E+00 0. -1.
         21    1    1    2  503  505  0.22939540274E+02 -0.40625302353E+02 -0.33524028028E+02  0.57449962179E+02  0.00000000000E+00 0. -1.
         21    1    1    2  504  502  0.93841624181E+02 -0.52850818572E+02 -0.39625270523E+03  0.41062837926E+03  0.00000000000E+00 0. -1.
         21    1    1    2  505  501 -0.10218142367E+02  0.56630478892E+02  0.72833935360E+02  0.92823508406E+02  0.00000000000E+00 0. -1.
         21    1    1    2  506  504 -0.10656302209E+03  0.36845642033E+02  0.60143766789E+02  0.12779104701E+03  0.00000000000E+00 0. -1.
<scales pt_clust_3="46.65445" pt_clust_4="136.77243" pt_clust_5="56.56155" pt_clust_6="14000.00000"></scales>
<clustering>
<clus scale="   46.654">  2  3  1 -1</clus>
<clus scale="   56.562">  1  5  2 -1</clus>
<clus scale="  136.772">  2  4  1 -1</clus>
<clus scale="   56.562">  1  3  2 -1</clus>
</clustering>
</event>
<event>
 6    0  0.2036847E+002  0.1242888E+03  0.7546771E-02  0.1236185E+00
         21   -1    0    0  506  501  0.00000000000E+00  0.00000000000E+00  0.98461297713E+03  0.98461297713E+03  0.00000000000E+00 0. -1.
         21   -1    0    0  505  502 -0.00000000000E+00 -0.00000000000E+00 -0.17823197693E+03  0.17823197693E+03  0.00000000000E+00 0. -1.
         21    1    1    2  503  501 -0.83855965483E+00  0.34200195111E+02  0.11257572340E+03  0.11765904142E+03  0.00000000000E+00 0. -1.
         21    1    1    2  504  502  0.61620249169E+02  0.83591406056E+02 -0.11479128756E+03  0.15479540682E+03  0.00000000000E+00 0. -1.
         21    1    1    2  505  503  0.43231669602E+02 -0.15575312405E+02 -0.19232752221E+02  0.49814318937E+02  0.00000000000E+00 0. -1.
         21    1    1    2  506  504 -0.10401335912E+03 -0.10221628876E+03  0.82782931657E+03  0.84057618687E+03  0.00000000000E+00 0. -1.
<scales pt_clust_3="34.21047" pt_clust_4="14000.00000" pt_clust_5="45.73750" pt_clust_6="124.28877"></scales>
<clustering>
<clus scale="   34.210">  1  3  2 -1</clus>
<clus scale="   45.738">  2  5  1 -1</clus>
<clus scale="  124.289">  1  6  2 -1</clus>
<clus scale="   34.210">  1  3  2 -1</clus>
</clustering>
</event>
<event>
 6    0  0.2036847E+002  0.2352281E+03  0.7546771E-02  0.1123013E+00
         21   -1    0    0  502  501  0.00000000000E+00  0.00000000000E+00  0.16763570546E+03  0.16763570546E+03  0.00000000000E+00 0. -1.
         21   -1    0    0  506  502 -0.00000000000E+00 -0.00000000000E+00 -0.57430868967E+03  0.57430868967E+03  0.00000000000E+00 0. -1.
         21    1    1    2  503  501  0.69590729780E+02 -0.94013391824E+01  0.28981538461E+02  0.75968311956E+02  0.00000000000E+00 0. -1.
         21    1    1    2  504  505 -0.68870676847E+02  0.11843625855E+02 -0.97027640562E+02  0.11957342780E+03  0.00000000000E+00 0. -1.
         21    1    1    2  505  503  0.14838237857E+03 -0.65311341267E+02  0.96120600221E+01  0.16240472058E+03  0.00000000000E+00 0. -1.
         21    1    1    2  506  504 -0.14910243151E+03  0.62869054594E+02 -0.34823894213E+03  0.38399793479E+03  0.00000000000E+00 0. -1.
<scales pt_clust_3="31.13499" pt_clust_4="31.01586" pt_clust_5="31.13499" pt_clust_6="235.20584"></scales>
<clustering>
<clus scale="   31.016">  4  6 -1 -1</clus>
<clus scale="   31.135">  3  5 -1 -1</clus>
<clus scale="  235.206">  2  4  1 -1</clus>
<clus scale="  235.228">  1  3  2 -1</clus>
</clustering>
</event>
<event>
 6    0  0.2036847E+002  0.7898365E+02  0.7546771E-02  0.1331961E+00
         21   -1    0    0  506  501  0.00000000000E+00  0.00000000000E+00  0.10468926423E+03  0.10468926423E+03  0.00000000000E+00 0. -1.
         21   -1    0    0  504  502 -0.00000000000E+00 -0.00000000000E+00 -0.25805963615E+03  0.25805963615E+03  0.00000000000E+00 0. -1.
         21    1    1    2  503  502 -0.33200897159E+02  0.83029351117E+01 -0.12465067884E+03  0.12926341339E+03  0.00000000000E+00 0. -1.
         21    1    1    2  504  501  0.38579223940E+02 -0.53825298261E+02  0.71727982023E+00  0.66227137512E+02  0.00000000000E+00 0. -1.
         21    1    1    2  505  503 -0.72738406697E+02  0.40496204720E+02 -0.49422625713E+02  0.96816394985E+02  0.00000000000E+00 0. -1.
         21    1    1    2  506  505  0.67360079916E+02  0.50261584294E+01  0.19985652818E+02  0.70441954498E+02  0.00000000000E+00 0. -1.
<scales pt_clust_3="34.22336" pt_clust_4="59.96073" pt_clust_5="78.98365" pt_clust_6="14000.00000"></scales>
<clustering>
<clus scale="   34.223">  2  3  1 -1</clus>
<clus scale="   59.961">  1  4  2 -1</clus>
<clus scale="   78.984">  2  5  1 -1</clus>
<clus scale="   59.961">  1  3  2 -1</clus>
</clustering>
</event>
<event>
 6    0  0.2036847E+002  0.1304037E+03  0.7546771E-02  0.1226858E+00
         21   -1    0    0  505  501  0.00000000000E+00  0.00000000000E+00  0.53566477254E+03  0.53566477254E+03  0.00000000000E+00 0.  1.
         21   -1    0    0  504  502 -0.00000000000E+00 -0.00000000000E+00 -0.31279337217E+03  0.31279337217E+03  0.00000000000E+00 0. -1.
         21    1    1    2  503  506  0.60818485903E+02  0.62986679431E+02  0.20321887884E+03  0.22127838288E+03  0.00000000000E+00 0.  1.
         21    1    1    2  504  501 -0.63938526177E+02 -0.82068020953E+02 -0.25478530673E+03  0.27520691801E+03  0.00000000000E+00 0. -1.
         21    1    1    2  505  503  0.61554698662E+01  0.58005633855E+02  0.29979598332E+03  0.30541803317E+03  0.00000000000E+00 0.  1.
         21    1    1    2  506  502 -0.30354295920E+01 -0.38924292332E+02 -0.25358155069E+02  0.46554810652E+02  0.00000000000E+00 0. -1.
<scales pt_clust_3="14000.00000" pt_clust_4="130.40366" pt_clust_5="57.93504" pt_clust_6="39.04247"></scales>
<clustering>
<clus scale="   39.042">  2  6  1 -1</clus>
<clus scale="   57.935">  1  5  2 -1</clus>
<clus scale="  130.404">  2  4  1 -1</clus>
<clus scale="   57.935">  1  3  2 -1</clus>
</clustering>
</event>
<event>
 6    0  0.2036847E+002  0.1323931E+03  0.7546771E-02  0.1223947E+00
         21   -1    0    0  506  501  0.00000000000E+00  0.00000000000E+00  0.13924635519E+03  0.13924635519E+03  0.00000000000E+00 0.  1.
         21   -1    0    0  503  502 -0.00000000000E+00 -0.00000000000E+00 -0.74577626506E+03  0.74577626506E+03  0.00000000000E+00 0.  1.
         21    1    1    2  503  501  0.19499663506E+03  0.38471481251E+02 -0.45697940746E+03  0.49833113630E+03  0.00000000000E+00 0.  1.
         21    1    1    2  504  502 -0.62366499939E+02 -0.64862285699E+02 -0.20322692939E+03  0.22225634130E+03  0.00000000000E+00 0.  1.
         21    1    1    2  505  504 -0.10393985441E+03 -0.50885794200E+01  0.11844991588E+02  0.10473629171E+03  0.00000000000E+00 0.  1.
         21    1    1    2  506  505 -0.28690280709E+02  0.31479383867E+02  0.41831435396E+02  0.59698850936E+02  0.00000000000E+00 0.  1.
<scales pt_clust_3="132.39305" pt_clust_4="89.79625" pt_clust_5="14000.00000" pt_clust_6="42.59206"></scales>
<clustering>
<clus scale="   42.592">  1  6  2 -1</clus>
<clus scale="   89.796">  2  4  1 -1</clus>
<clus scale="  132.393">  2  3  1 -1</clus>
<clus scale="   42.592">  1  3  2 -1</clus>
</clustering>
</event>
<event>
 6    0  0.2036847E+002  0.1006356E+03  0.7546771E-02  0.1278965E+00
         21   -1    0    0  504  501  0.00000000000E+00  0.00000000000E+00  0.30336355959E+03  0.30336355959E+03  0.00000000000E+00 0.  1.
         21   -1    0    0  506  502 -0.00000000000E+00 -0.00000000000E+00 -0.71268159691E+03  0.71268159691E+03  0.00000000000E+00 0. -1.
         21    1    1    2  503  502 -0.33064058901E+02  0.10158139943E+03 -0.42878495702E+03  0.44189201404E+03  0.00000000000E+00 0. -1.
         21    1    1    2  504  503  0.72776359759E+01 -0.60679331428E+02  0.23372277231E+03  0.24158079300E+03  0.00000000000E+00 0.  1.
         21    1    1    2  505  501 -0.15114774782E+02 -0.41170248073E+02  0.49229201243E+02  0.65931479569E+02  0.00000000000E+00 0.  1.
         21    1    1    2  506  505  0.40901197707E+02  0.26818006871E+00 -0.26348505385E+03  0.26664086989E+03  0.00000000000E+00 0. -1.
<scales pt_clust_3="100.63562" pt_clust_4="14000.00000" pt_clust_5="43.59528" pt_clust_6="40.90208"></scales>
<clustering>
<clus scale="   40.902">  2  6  1 -1</clus>
<clus scale="   43.595">  1  5  2 -1</clus>
<clus scale="  100.636">  2  3  1 -1</clus>
<clus scale="   43.595">  1  3  2 -1</clus>
</clustering>
</event>
<event>
 6    0  0.2036847E+002  0.8618448E+02  0.7546771E-02  0.1312364E+00
         21   -1    0    0  506  501  0.00000000000E+00  0.00000000000E+00  0.49725994653E+03  0.49725994653E+03  0.00000000000E+00 0. -1.
         21   -1    0    0  505  502 -0.00000000000E+00 -0.00000000000E+00 -0.95667179984E+02  0.95667179984E+02  0.00000000000E+00 0. -1.
         21    1    1    2  503  502 -0.39616720396E+02  0.29211310056E+02 -0.90779384122E+01  0.50051914408E+02  0.00000000000E+00 0. -1.
         21    1    1    2  504  501 -0.24358439268E+02  0.30355911853E+02  0.18473489521E+03  0.18879035054E+03  0.00000000000E+00 0. -1.
         21    1    1    2  505  504 -0.61437019992E+02 -0.96655416367E+01  0.20899258765E+03  0.21805006722E+03  0.00000000000E+00 0. -1.
         21    1    1    2  506  503  0.12541217966E+03 -0.49901680272E+02  0.16943222102E+02  0.13603479435E+03  0.00000000000E+00 0. -1.
<scales pt_clust_3="51.70822" pt_clust_4="38.92062" pt_clust_5="14000.00000" pt_clust_6="86.18448"></scales>
<clustering>
<clus scale="   38.921">  1  4  2 -1</clus>
<clus scale="   51.708">  2  3  1 -1</clus>
<clus scale="   86.184">  2  6  1 -1</clus>
<clus scale="   38.921">  1  3  2 -1</clus>
</clustering>
</event>
<event>
 6    0  0.2036847E+002  0.7527646E+02  0.7546771E-02  0.1343017E+00
         21   -1    0    0  504  501  0.00000000000E+00  0.00000000000E+00  0.20206098103E+03  0.20206098103E+03  0.00000000000E+00 0. -1.
         21   -1    0    0  505  502 -0.00000000000E+00 -0.00000000000E+00 -0.17687704576E+03  0.17687704576E+03  0.00000000000E+00 0. -1.
         21    1    1    2  503  502 -0.34399836916E+02 -0.38225853156E+02 -0.31071573375E+02  0.60083336303E+02  0.00000000000E+00 0. -1.
         21    1    1    2  504  506 -0.33593498638E+02  0.15602885349E+02  0.51652619220E+02  0.63560728868E+02  0.00000000000E+00 0. -1.
         21    1    1    2  505  501 -0.21869640006E+02  0.77727823764E+02 -0.84785578428E+02  0.11708326119E+03  0.00000000000E+00 0. -1.
         21    1    1    2  506  503  0.89862975560E+02 -0.55104855957E+02  0.89388467859E+02  0.13821070043E+03  0.00000000000E+00 0. -1.
<scales pt_clust_3="52.63747" pt_clust_4="37.04016" pt_clust_5="14000.00000" pt_clust_6="75.27646"></scales>
<clustering>
<clus scale="   37.040">  1  4  2 -1</clus>
<clus scale="   52.637">  2  3  1 -1</clus>
<clus scale="   75.276">  1  6  2 -1</clus>
<clus scale="   37.040">  1  3  2 -1</clus>
</clustering>
</event>
<event>
 6    0  0.2036847E+002  0.1697612E+03  0.7546771E-02  0.1178097E+00
         21   -1    0    0  506  501  0.00000000000E+00  0.00000000000E+00  0.33538108698E+03  0.33538108698E+03  0.00000000000E+00 0. -1.
         21   -1    0    0  504  502 -0.00000000000E+00 -0.00000000000E+00 -0.35547376118E+03  0.35547376118E+03  0.00000000000E+00 0.  1.
         21    1    1    2  503  501 -0.14547178109E+02  0.15395065624E+03  0.14276865033E+03  0.21046451592E+03  0.00000000000E+00 0. -1.
         21    1    1    2  504  505 -0.17557534245E+02 -0.68918139461E+02 -0.24369685658E+02  0.75178843663E+02  0.00000000000E+00 0.  1.
         21    1    1    2  505  503 -0.81672530830E+02 -0.10457510513E+03 -0.22482228317E+03  0.26105825770E+03  0.00000000000E+00 0.  1.
         21    1    1    2  506  502  0.11377724318E+03  0.19542588351E+02  0.86330644305E+02  0.14415323088E+03  0.00000000000E+00 0.  1.
<scales pt_clust_3="169.76117" pt_clust_4="71.11946" pt_clust_5="14000.00000" pt_clust_6="112.87076"></scales>
<clustering>
<clus scale="   71.119">  2  4  1 -1</clus>
<clus scale="  112.871">  1  6  2 -1</clus>
<clus scale="  169.761">  1  3  2 -1</clus>
<clus scale="  112.871">  1  3  2 -1</clus>
</clustering>
</event>
<event>
 6    0  0.2036847E+002  0.8072698E+02  0.7546771E-02  0.1327001E+00
         21   -1    0    0  503  501  0.00000000000E+00  0.00000000000E+00  0.27461197466E+03  0.27461197466E+03  0.00000000000E+00 0. -1.
         21   -1    0    0  506  502 -0.00000000000E+00 -0.00000000000E+00 -0.11735025752E+03  0.11735025752E+03  0.00000000000E+00 0. -1.
         21    1    1    2  503  504 -0.47941093083E+02 -0.56285781042E+02  0.60391236566E+02  0.95464857447E+02  0.00000000000E+00 0. -1.
         21    1    1    2  504  502 -0.45423288422E+02  0.24231044732E+02 -0.55085824352E+02  0.75398055044E+02  0.00000000000E+00 0. -1.
         21    1    1    2  505  501  0.99377039751E+02  0.16034051165E+01  0.16061076444E+03  0.18887610911E+03  0.00000000000E+00 0. -1.
         21    1    1    2  506  505 -0.60126582462E+01  0.30451331193E+02 -0.86544595104E+01  0.32223210579E+02  0.00000000000E+00 0. -1.
<scales pt_clust_3="14000.00000" pt_clust_4="66.69537" pt_clust_5="80.72698" pt_clust_6="31.03926"></scales>
<clustering>
<clus scale="   31.039">  2  6  1 -1</clus>
<clus scale="   66.695">  2  4  1 -1</clus>
<clus scale="   80.727">  1  5  2 -1</clus>
<clus scale="   80.727">  1  3  2 -1</clus>
</clustering>
</event>
<event>
 6    0  0.2036847E+002  0.1226907E+03  0.7546771E-02  0.1238723E+00
         21   -1    0    0  504  501  0.00000000000E+00  0.00000000000E+00  0.63085453540E+02  0.63085453540E+02  0.00000000000E+00 0.  1.
         21   -1    0    0  506  502 -0.00000000000E+00 -0.00000000000E+00 -0.19432583568E+04  0.19432583568E+04  0.00000000000E+00 0.  1.
         21    1    1    2  503  505 -0.47180655936E+02 -0.83890540506E+01 -0.13248258869E+02  0.49718275165E+02  0.00000000000E+00 0. -1.
         21    1    1    2  504  502  0.10034212907E+03  0.58955415838E+00 -0.39147725883E+03  0.40413281805E+03  0.00000000000E+00 0.  1.
         21    1    1    2  505  501 -0.65584203195E+02  0.39137083256E+02  0.28575616759E+00  0.76374607371E+02  0.00000000000E+00 0.  1.
         21    1    1    2  506  503  0.12422730057E+02 -0.31337583364E+02 -0.14757331418E+04  0.14761181098E+04  0.00000000000E+00 0.  1.
<scales pt_clust_3="36.40553" pt_clust_4="113.94285" pt_clust_5="36.40553" pt_clust_6="33.71006"></scales>
<clustering>
<clus scale="   33.710">  2  6  1 -1</clus>
<clus scale="   36.406">  3  5 -1 -1</clus>
<clus scale="  113.943">  2  4  1 -1</clus>
<clus scale="  122.691">  1  3  2 -1</clus>
</clustering>
</event>
<event>
 6    0  0.2036847E+002  0.1992704E+03  0.7546771E-02  0.1150356E+00
         21   -1    0    0  505  501  0.00000000000E+00  0.00000000000E+00  0.10261402262E+03  0.10261402262E+03  0.00000000000E+00 0. -1.
         21   -1    0    0  503  502 -0.00000000000E+00 -0.00000000000E+00 -0.14734772901E+04  0.14734772901E+04  0.00000000000E+00 0. -1.
         21    1    1    2  503  506 -0.25121607104E+02  0.21617823362E+03 -0.93060192767E+02  0.23669457812E+03  0.00000000000E+00 0. -1.
         21    1    1    2  504  502  0.46898170927E+02 -0.12119161162E+03 -0.10407410281E+04  0.10488225459E+04  0.00000000000E+00 0. -1.
         21    1    1    2  505  504  0.18678323754E+02 -0.54025244232E+02 -0.22448048875E+03  0.23164433216E+03  0.00000000000E+00 0. -1.
         21    1    1    2  506  501 -0.40454887578E+02 -0.40961377765E+02 -0.12581557883E+02  0.58929856576E+02  0.00000000000E+00 0.  1.
<scales pt_clust_3="189.47293" pt_clust_4="40.93168" pt_clust_5="40.93168" pt_clust_6="57.57111"></scales>
<clustering>
<clus scale="   40.932">  4  5 -1 -1</clus>
<clus scale="   57.571">  1  6  2 -1</clus>
<clus scale="  189.473">  1  3  2 -1</clus>
<clus scale="   57.571">  1  3  2 -1</clus>
</clustering>
</event>
<event>
 6    0  0.2036847E+002  0.1473752E+03  0.7546771E-02  0.1203736E+00
         21   -1    0    0  504  501  0.00000000000E+00  0.00000000000E+00  0.14154609679E+03  0.14154609679E+03  0.00000000000E+00 0.  1.
         21   -1    0    0  506  502 -0.00000000000E+00 -0.00000000000E+00 -0.52512526370E+03  0.52512526370E+03  0.00000000000E+00 0. -1.
         21    1    1    2  503  505 -0.92046745472E+02 -0.40984067121E+02 -0.23560730047E+03  0.25624811637E+03  0.00000000000E+00 0. -1.
         21    1    1    2  504  503  0.64019279530E+02  0.61082839215E+02  0.82910422560E+02  0.12125889480E+03  0.00000000000E+00 0.  1.
         21    1    1    2  505  502 -0.40475004248E+02 -0.23397195180E+02 -0.21330173688E+03  0.21836502849E+03  0.00000000000E+00 0. -1.
         21    1    1    2  506  501  0.68502470190E+02  0.32984230862E+01 -0.17580552120E+02  0.70799320829E+02  0.00000000000E+00 0.  1.
<scales pt_clust_3="30.70061" pt_clust_4="140.31424" pt_clust_5="30.70061" pt_clust_6="68.58183"></scales>
<clustering>
<clus scale="   30.701">  3  5 -1 -1</clus>
<clus scale="   68.582">  1  6  2 -1</clus>
<clus scale="  140.314">  1  4  2 -1</clus>
<clus scale="   68.582">  1  3  2 -1</clus>
</clustering>
</event>
<event>
 6    0  0.2036847E+002  0.1118248E+03  0.7546771E-02  0.1257227E+00
         21   -1    0    0  504  501  0.00000000000E+00  0.00000000000E+00  0.20079019224E+04  0.20079019224E+04  0.00000000000E+00 0. -1.
         21   -1    0    0  503  502 -0.00000000000E+00 -0.00000000000E+00 -0.11024855429E+03  0.11024855429E+03  0.00000000000E+00 0. -1.
         21    1    1    2  503  501  0.17557708278E+02 -0.65108204103E+02  0.89322853610E+03  0.89577037742E+03  0.00000000000E+00 0. -1.
         21    1    1    2  504  506  0.95103201352E+02  0.42975327587E+02  0.10722916843E+04  0.10773583220E+04  0.00000000000E+00 0. -1.
         21    1    1    2  505  502 -0.36393550987E+02  0.58302570009E+01  0.63050402511E+01  0.37392993765E+02  0.00000000000E+00 0.  1.
         21    1    1    2  506  505 -0.76267358643E+02  0.16302619515E+02 -0.74171892551E+02  0.10762878352E+03  0.00000000000E+00 0. -1.
<scales pt_clust_3="67.23286" pt_clust_4="14000.00000" pt_clust_5="36.85760" pt_clust_6="111.82483"></scales>
<clustering>
<clus scale="   36.858">  2  5  1 -1</clus>
<clus scale="   67.233">  1  3  2 -1</clus>
<clus scale="  111.825">  2  6  1 -1</clus>
<clus scale="   67.233">  1  3  2 -1</clus>
</clustering>
</event>
<event>
 6    0  0.2036847E+002  0.1590766E+03  0.7546771E-02  0.1189743E+00
         21   -1    0    0  505  501  0.00000000000E+00  0.00000000000E+00  0.32530229328E+03  0.32530229328E+03  0.00000000000E+00 0.  1.
         21   -1    0    0  506  502 -0.00000000000E+00 -0.00000000000E+00 -0.16354625361E+03  0.16354625361E+03  0.00000000000E+00 0.  1.
         21    1    1    2  503  502  0.14679942551E+02  0.13040167670E+03 -0.37109309504E+02  0.13637154708E+03  0.00000000000E+00 0.  1.
         21    1    1    2  504  501 -0.51309038586E+02 -0.13199468964E+03  0.21371004627E+03  0.25637316437E+03  0.00000000000E+00 0.  1.
         21    1    1    2  505  503  0.41507413435E+02  0.36906026547E+02 -0.22007086170E+02  0.59743049866E+02  0.00000000000E+00 0.  1.
         21    1    1    2  506  504 -0.48783173999E+01 -0.35313013612E+02  0.71623890726E+01  0.36360785583E+02  0.00000000000E+00 0. -1.
<scales pt_clust_3="40.94588" pt_clust_4="146.58809" pt_clust_5="40.94588" pt_clust_6="35.64838"></scales>
<clustering>
<clus scale="   35.648">  2  6  1 -1</clus>
<clus scale="   40.946">  3  5 -1 -1</clus>
<clus scale="  146.588">  1  4  2 -1</clus>
<clus scale="  146.588">  1  3  2 -1</clus>
</clustering>
</event>
<event>
 6    0  0.2036847E+002  0.2134814E+03  0.7546771E-02  0.1138838E+00
         21   -1    0    0  503  501  0.00000000000E+00  0.00000000000E+00  0.53756521575E+03  0.53756521575E+03  0.00000000000E+00 0. -1.
         21   -1    0    0  505  502 -0.00000000000E+00 -0.00000000000E+00 -0.31728851430E+03  0.31728851430E+03  0.00000000000E+00 0. -1.
         21    1    1    2  503  506  0.10758120871E+03 -0.39615748873E+02  0.27841515147E+02  0.11797573476E+03  0.00000000000E+00 0.  1.
         21    1    1    2  504  501 -0.22003771446E+03 -0.49438904999E+02  0.39936768529E+03  0.45864512334E+03  0.00000000000E+00 0. -1.
         21    1    1    2  505  504  0.11460489061E+03  0.50959266792E+02 -0.20462752112E+03  0.24000739619E+03  0.00000000000E+00 0. -1.
         21    1    1    2  506  502 -0.21483848621E+01  0.38095387079E+02 -0.23049778708E+01  0.38225475762E+02  0.00000000000E+00 0. -1.
<scales pt_clust_3="112.46569" pt_clust_4="213.48136" pt_clust_5="14000.00000" pt_clust_6="38.15592"></scales>
<clustering>
<clus scale="   38.156">  2  6  1 -1</clus>
<clus scale="  112.466">  2  3  1 -1</clus>
<clus scale="  213.481">  1  4  2 -1</clus>
<clus scale="  213.481">  1  3  2 -1</clus>
</clustering>
</event>
<event>
 6    0  0.2036847E+002  0.2097157E+03  0.7546771E-02  0.1141791E+00
         21   -1    0    0  503  501  0.00000000000E+00  0.00000000000E+00  0.52590692410E+03  0.52590692410E+03  0.00000000000E+00 0.  1.
         21   -1    0    0  504  502 -0.00000000000E+00 -0.00000000000E+00 -0.15334611398E+04  0.15334611398E+04  0.00000000000E+00 0.  1.
         21    1    1    2  503  502 -0.24250243683E+03  0.78717295474E+02 -0.84276374865E+02  0.26852625911E+03  0.00000000000E+00 0.  1.
         21    1    1    2  504  505  0.90049665241E+02 -0.19232461975E+03 -0.13129310218E+04  0.13299945751E+04  0.00000000000E+00 0.  1.
         21    1    1    2  505  506  0.10035606359E+03  0.14951473659E+03  0.25617635354E+03  0.31313307087E+03  0.00000000000E+00 0.  1.
         21    1    1    2  506  501  0.52096707997E+02 -0.35907412314E+02  0.13347682749E+03  0.14771415884E+03  0.00000000000E+00 0.  1.
<scales pt_clust_3="14000.00000" pt_clust_4="209.71574" pt_clust_5="185.48156" pt_clust_6="63.27250"></scales>
<clustering>
<clus scale="   63.272">  1  6  2 -1</clus>
<clus scale="  185.482">  1  5  2 -1</clus>
<clus scale="  209.716">  2  4  1 -1</clus>
<clus scale="   63.272">  1  3  2 -1</clus>
</clustering>
</event>
<event>
 6    0  0.2036847E+002  0.1019633E+03  0.7546771E-02  0.1276221E+00
         21   -1    0    0  504  501  0.00000000000E+00  0.00000000000E+00  0.11620252730E+03  0.11620252730E+03  0.00000000000E+00 0.  1.
         21   -1    0    0  505  502 -0.00000000000E+00 -0.00000000000E+00 -0.19730881538E+03  0.19730881538E+03  0.00000000000E+00 0.  1.
         21    1    1    2  503  506 -0.44792266897E+02 -0.77824312686E+02 -0.65696919317E+02  0.11126120630E+03  0.00000000000E+00 0.  1.
         21    1    1    2  504  502 -0.81012541363E+01  0.68248201410E+02 -0.22231980580E+02  0.72233705947E+02  0.00000000000E+00 0.  1.
         21    1    1    2  505  503 -0.32194529095E+02 -0.13652890379E+00 -0.22741189444E+02  0.39416596012E+02  0.00000000000E+00 0.  1.
         21    1    1    2  506  501  0.85088050129E+02  0.97126401794E+01  0.29563801263E+02  0.90599834432E+02  0.00000000000E+00 0.  1.
<scales pt_clust_3="32.12089" pt_clust_4="68.72734" pt_clust_5="32.12089" pt_clust_6="86.71145"></scales>
<clustering>
<clus scale="   32.121">  3  5 -1 -1</clus>
<clus scale="   68.727">  2  4  1 -1</clus>
<clus scale="   86.711">  1  6  2 -1</clus>
<clus scale="   86.711">  1  3  2 -1</clus>
</clustering>
</event>
<event>
 6    0  0.2036847E+002  0.1364337E+03  0.7546771E-02  0.1218210E+00
         21   -1    0    0  503  501  0.00000000000E+00  0.00000000000E+00  0.65353944231E+03  0.65353944231E+03  0.00000000000E+00 0.  1.
         21   -1    0    0  506  502 -0.00000000000E+00 -0.00000000000E+00 -0.13820013178E+03  0.13820013178E+03  0.00000000000E+00 0.  1.
         21    1    1    2  503  505  0.59322664502E+02  0.17749947426E+01  0.30542527950E+03  0.31113812124E+03  0.00000000000E+00 0.  1.
         21    1    1    2  504  502 -0.80710773699E+02 -0.60129417351E+01 -0.21438309860E+02  0.83725656695E+02  0.00000000000E+00 0.  1.
         21    1    1    2  505  504 -0.59898290047E+02  0.87275090574E+02 -0.30700909531E+02  0.11021475596E+03  0.00000000000E+00 0. -1.
         21    1    1    2  506  501  0.81286399243E+02 -0.83037143581E+02  0.26205325042E+03  0.28666104021E+03  0.00000000000E+00 0. -1.
<scales pt_clust_3="59.34921" pt_clust_4="75.58656" pt_clust_5="14000.00000" pt_clust_6="136.43369"></scales>
<clustering>
<clus scale="   59.349">  1  3  2 -1</clus>
<clus scale="   75.587">  2  4  1 -1</clus>
<clus scale="  136.434">  1  6  2 -1</clus>
<clus scale="   59.349">  1  3  2 -1</clus>
</clustering>
</event>
<event>
 6    0  0.2036847E+002  0.1239384E+03  0.7546771E-02  0.1236738E+00
         21   -1    0    0  506  501  0.00000000000E+00  0.00000000000E+00  0.20749663427E+03  0.20749663427E+03  0.00000000000E+00 0.  1.
         21   -1    0    0  503  502 -0.00000000000E+00 -0.00000000000E+00 -0.23663175999E+03  0.23663175999E+03  0.00000000000E+00 0.  1.
         21    1    1    2  503  501  0.27962867123E+02  0.29953247076E+02  0.11377371129E+02  0.42527209195E+02  0.00000000000E+00 0. -1.
         21    1    1    2  504  502  0.13970388836E+01  0.75016159913E+02 -0.87963541239E+02  0.11561557228E+03  0.00000000000E+00 0.  1.
         21    1    1    2  505  504 -0.31692720970E+02  0.31242352134E+02 -0.85021493258E+02  0.95964407178E+02  0.00000000000E+00 0.  1.
         21    1    1    2  506  505  0.23328149629E+01 -0.13621175912E+03  0.13247253765E+03  0.19002120560E+03  0.00000000000E+00 0.  1.
<scales pt_clust_3="40.97705" pt_clust_4="39.52314" pt_clust_5="39.52314" pt_clust_6="112.81476"></scales>
<clustering>
<clus scale="   39.523">  4  5 -1 -1</clus>
<clus scale="   40.977">  1  3  2 -1</clus>
<clus scale="  112.815">  1  6  2 -1</clus>
<clus scale="   40.977">  1  3  2 -1</clus>
</clustering>
</event>
<event>
 6    0  0.2036847E+002  0.9166125E+02  0.7546771E-02  0.1298878E+00
         21   -1    0    0  506  501  0.00000000000E+00  0.00000000000E+00  0.10101564861E+04  0.10101564861E+04  0.00000000000E+00 0.  1.
         21   -1    0    0  503  502 -0.00000000000E+00 -0.00000000000E+00 -0.23823897453E+02  0.23823897453E+02  0.00000000000E+00 0. -1.
         21    1    1    2  503  504 -0.91477799031E+02 -0.20768496757E+02  0.15083686719E+03  0.17762679605E+03  0.00000000000E+00 0. -1.
         21    1    1    2  504  505  0.85327177400E+02  0.97676310457E+01  0.46827097898E+03  0.47608176144E+03  0.00000000000E+00 0.  1.
         21    1    1    2  505  501  0.29847171930E+02  0.45375117834E+02  0.16258637181E+03  0.17141786164E+03  0.00000000000E+00 0. -1.
         21    1    1    2  506  502 -0.23696550299E+02 -0.34374252122E+02  0.20463837068E+03  0.20885396443E+03  0.00000000000E+00 0.  1.
<scales pt_clust_3="14000.00000" pt_clust_4="91.66125" pt_clust_5="45.63552" pt_clust_6="41.75064"></scales>
<clustering>
<clus scale="   41.751">  1  6  2 -1</clus>
<clus scale="   45.636">  1  5  2 -1</clus>
<clus scale="   91.661">  1  4  2 -1</clus>
<clus scale="   41.751">  1  3  2 -1</clus>
</clustering>
</event>
<event>
 6    0  0.2036847E+002  0.8964495E+02  0.7546771E-02  0.1303714E+00
         21   -1    0    0  504  501  0.00000000000E+00  0.00000000000E+00  0.37057110118E+03  0.37057110118E+03  0.00000000000E+00 0. -1.
         21   -1    0    0  505  502 -0.00000000000E+00 -0.00000000000E+00 -0.15357255048E+03  0.15357255048E+03  0.00000000000E+00 0.  1.
         21    1    1    2  503  501 -0.37563481091E+02 -0.38721103602E+01  0.56461127419E+02  0.67925453695E+02  0.00000000000E+00 0. -1.
         21    1    1    2  504  506 -0.17832837411E+02 -0.41289438479E+02  0.23284419104E+03  0.23714815016E+03  0.00000000000E+00 0. -1.
         21    1    1    2  505  503  0.27893076104E+02 -0.75050357040E+02 -0.48085372384E+02  0.93395839434E+02  0.00000000000E+00 0.  1.
         21    1    1    2  506  502  0.27503242399E+02  0.12021190588E+03 -0.24221395377E+02  0.12567420838E+03  0.00000000000E+00 0.  1.
<scales pt_clust_3="37.76253" pt_clust_4="64.15223" pt_clust_5="89.64495" pt_clust_6="14000.00000"></scales>
<clustering>
<clus scale="   37.763">  1  3  2 -1</clus>
<clus scale="   64.152">  1  4  2 -1</clus>
<clus scale="   89.645">  2  5  1 -1</clus>
<clus scale="   37.763">  1  3  2 -1</clus>
</clustering>
</event>
<event>
 6    0  0.2036847E+002  0.2226008E+03  0.7546771E-02  0.1131959E+00
         21   -1    0    0  502  501  0.00000000000E+00  0.00000000000E+00  0.24958856726E+03  0.24958856726E+03  0.00000000000E+00 0. -1.
         21   -1    0    0  504  502 -0.00000000000E+00 -0.00000000000E+00 -0.21187136384E+03  0.21187136384E+03  0.00000000000E+00 0. -1.
         21    1    1    2  503  505  0.78353988260E+02  0.11287232786E+03  0.28891872156E+02  0.14040744336E+03  0.00000000000E+00 0. -1.
         21    1    1    2  504  506 -0.10029218257E+03 -0.10937413337E+03 -0.71350460745E+01  0.14856692707E+03  0.00000000000E+00 0. -1.
         21    1    1    2  505  501  0.67968249696E+02  0.44105985155E+02  0.52798881535E+02  0.96709579590E+02  0.00000000000E+00 0. -1.
         21    1    1    2  506  503 -0.46030055387E+02 -0.47604179642E+02 -0.36838504193E+02  0.75775981086E+02  0.00000000000E+00 0.  1.
<scales pt_clust_3="45.42194" pt_clust_4="219.99106" pt_clust_5="45.42194" pt_clust_6="32.33920"></scales>
<clustering>
<clus scale="   32.339">  4  6 -1 -1</clus>
<clus scale="   45.422">  3  5 -1 -1</clus>
<clus scale="  219.991">  2  4  1 -1</clus>
<clus scale="  222.601">  1  3  2 -1</clus>
</clustering>
</event>
<event>
 6    0  0.2036847E+002  0.1015877E+03  0.7546771E-02  0.1276992E+00
         21   -1    0    0  505  501  0.00000000000E+00  0.00000000000E+00  0.16180418729E+03  0.16180418729E+03  0.00000000000E+00 0. -1.
         21   -1    0    0  506  502 -0.00000000000E+00 -0.00000000000E+00 -0.19862424317E+03  0.19862424317E+03  0.00000000000E+00 0. -1.
         21    1    1    2  503  502 -0.59157099941E+02 -0.67034452646E+02 -0.12401216193E+03  0.15287968021E+03  0.00000000000E+00 0. -1.
         21    1    1    2  504  501 -0.13035793751E+01  0.31168870094E+02  0.13320470007E+02  0.33920977335E+02  0.00000000000E+00 0. -1.
         21    1    1    2  505  503  0.95086270601E+02  0.24470844576E+02  0.90528463100E+02  0.13355007945E+03  0.00000000000E+00 0. -1.
         21    1    1    2  506  504 -0.34625591284E+02  0.11394737976E+02 -0.16656827050E+02  0.40077693455E+02  0.00000000000E+00 0. -1.
<scales pt_clust_3="101.58772" pt_clust_4="31.19612" pt_clust_5="14000.00000" pt_clust_6="37.46476"></scales>
<clustering>
<clus scale="   31.196">  1  4  2 -1</clus>
<clus scale="   37.465">  2  6  1 -1</clus>
<clus scale="  101.588">  2  3  1 -1</clus>
<clus scale="   31.196">  1  3  2 -1</clus>
</clustering>
</event>
<event>
 6    0  0.2036847E+002  0.1731241E+03  0.7546771E-02  0.1174629E+00
         21   -1    0    0  503  501  0.00000000000E+00  0.00000000000E+00  0.62072699196E+03  0.62072699196E+03  0.00000000000E+00 0. -1.
         21   -1    0    0  504  502 -0.00000000000E+00 -0.00000000000E+00 -0.35428687115E+03  0.35428687115E+03  0.00000000000E+00 0.  1.
         21    1    1    2  503  502  0.29224976232E+02 -0.19677640997E+02  0.31866031342E+01  0.35376026211E+02  0.00000000000E+00 0. -1.
         21    1    1    2  504  506  0.24123199804E+02  0.17023778425E+03 -0.30257156254E+03  0.34801204349E+03  0.00000000000E+00 0.  1.
         21    1    1    2  505  501 -0.22416594911E+02 -0.13198069455E+03  0.48451625070E+03  0.50267027428E+03  0.00000000000E+00 0. -1.
         21    1    1    2  506  505 -0.30931581125E+02 -0.18579448703E+02  0.81308829526E+02  0.88955519131E+02  0.00000000000E+00 0. -1.
<scales pt_clust_3="35.23221" pt_clust_4="160.07270" pt_clust_5="34.23613" pt_clust_6="34.23613"></scales>
<clustering>
<clus scale="   34.236">  5  6 -1 -1</clus>
<clus scale="   35.232">  2  3  1 -1</clus>
<clus scale="  160.073">  2  4  1 -1</clus>
<clus scale="  173.124">  1  3  2 -1</clus>
</clustering>
</event>
<event>
 6    0  0.2036847E+002  0.1185378E+03  0.7546771E-02  0.1245529E+00
         21   -1    0    0  506  501  0.00000000000E+00  0.00000000000E+00  0.43356004357E+03  0.43356004357E+03  0.00000000000E+00 0.  1.
         21   -1    0    0  503  502 -0.00000000000E+00 -0.00000000000E+00 -0.10675413852E+04  0.10675413852E+04  0.00000000000E+00 0.  1.
         21    1    1    2  503  505  0.59327929868E+02 -0.19946762749E+02 -0.32841298305E+02  0.70683997347E+02  0.00000000000E+00 0.  1.
         21    1    1    2  504  502 -0.12966270541E+03  0.10923830282E+03 -0.96567724265E+03  0.98044783693E+03  0.00000000000E+00 0.  1.
         21    1    1    2  505  501  0.77205392075E+02 -0.14567277023E+03  0.35627640700E+03  0.39257369593E+03  0.00000000000E+00 0.  1.
         21    1    1    2  506  504 -0.68706165344E+01  0.56381230168E+02  0.82607922816E+01  0.57395898599E+02  0.00000000000E+00 0.  1.
<scales pt_clust_3="61.48311" pt_clust_4="118.53784" pt_clust_5="14000.00000" pt_clust_6="56.79831"></scales>
<clustering>
<clus scale="   56.798">  1  6  2 -1</clus>
<clus scale="   61.483">  2  3  1 -1</clus>
<clus scale="  118.538">  2  4  1 -1</clus>
<clus scale="   56.798">  1  3  2 -1</clus>
</clustering>
</event>
<event>
 6    0  0.2036847E+002  0.1555518E+03  0.7546771E-02  0.1193812E+00
         21   -1    0    0  503  501  0.00000000000E+00  0.00000000000E+00  0.79615099041E+03  0.79615099041E+03  0.00000000000E+00 0. -1.
         21   -1    0    0  504  502 -0.00000000000E+00 -0.00000000000E+00 -0.62517619369E+02  0.62517619369E+02  0.00000000000E+00 0. -1.
         21    1    1    2  503  506  0.15915280213E+03 -0.20014918910E+02  0.51156469941E+03  0.53612372927E+03  0.00000000000E+00 0. -1.
         21    1    1    2  504  505 -0.67013273145E+02 -0.10362043362E+01  0.10191711457E+03  0.12197930455E+03  0.00000000000E+00 0. -1.
         21    1    1    2  505  501 -0.58467630072E+02  0.42171928627E+02  0.13899483885E+03  0.15657745865E+03  0.00000000000E+00 0. -1.
         21    1    1    2  506  502 -0.33671898909E+02 -0.21120805381E+02 -0.18843281784E+02  0.43988117310E+02  0.00000000000E+00 0. -1.
<scales pt_clust_3="148.58893" pt_clust_4="45.65113" pt_clust_5="45.65113" pt_clust_6="39.74777"></scales>
<clustering>
<clus scale="   39.748">  2  6  1 -1</clus>
<clus scale="   45.651">  4  5 -1 -1</clus>
<clus scale="  148.589">  1  3  2 -1</clus>
<clus scale="  148.589">  1  3  2 -1</clus>
</clustering>
</event>
<event>
 6    0  0.2036847E+002  0.1488243E+03  0.7546771E-02  0.1201925E+00
         21   -1    0    0  505  501  0.00000000000E+00  0.00000000000E+00  0.10300162701E+04  0.10300162701E+04  0.00000000000E+00 0.  1.
         21   -1    0    0  504  502 -0.00000000000E+00 -0.00000000000E+00 -0.24862241599E+02  0.24862241599E+02  0.00000000000E+00 0.  1.
         21    1    1    2  503  501 -0.75171253354E+02  0.18070412878E+02  0.19299312141E+03  0.20790286690E+03  0.00000000000E+00 0.  1.
         21    1    1    2  504  503 -0.58637187356E+02 -0.33122086996E+02  0.97550654724E+02  0.11853911854E+03  0.00000000000E+00 0.  1.
         21    1    1    2  505  506  0.57204774361E+02 -0.24085353681E+00  0.40991459943E+03  0.41388696893E+03  0.00000000000E+00 0.  1.
         21    1    1    2  506  502  0.76603666349E+02  0.15292527655E+02  0.30469565290E+03  0.31454955730E+03  0.00000000000E+00 0.  1.
<scales pt_clust_3="59.15651" pt_clust_4="59.15651" pt_clust_5="36.51493" pt_clust_6="141.25141"></scales>
<clustering>
<clus scale="   36.515">  5  6 -1 -1</clus>
<clus scale="   59.157">  3  4 -1 -1</clus>
<clus scale="  141.251">  1  5  2 -1</clus>
<clus scale="  141.251">  1  3  2 -1</clus>
</clustering>
</event>
<event>
 6    0  0.2036847E+002  0.1549692E+03  0.7546771E-02  0.1194496E+00
         21   -1    0    0  503  501  0.00000000000E+00  0.00000000000E+00  0.74682882021E+03  0.74682882021E+03  0.00000000000E+00 0.  1.
         21   -1    0    0  501  502 -0.00000000000E+00 -0.00000000000E+00 -0.98304171492E+02  0.98304171492E+02  0.00000000000E+00 0.  1.
         21    1    1    2  503  506 -0.90916640699E+02 -0.91757953140E+02  0.44581340748E+03  0.46414970840E+03  0.00000000000E+00 0.  1.
         21    1    1    2  504  505  0.25065210654E+02  0.89024485892E+02  0.51018493242E+02  0.10562438415E+03  0.00000000000E+00 0. -1.
         21    1    1    2  505  502  0.73063719835E+02  0.53958503156E+02 -0.22561118652E+02  0.93588628015E+02  0.00000000000E+00 0.  1.
         21    1    1    2  506  504 -0.72122897907E+01 -0.51225035908E+02  0.17425386665E+03  0.18177027114E+03  0.00000000000E+00 0.  1.
<scales pt_clust_3="32.61249" pt_clust_4="146.14954" pt_clust_5="90.82856" pt_clust_6="32.61249"></scales>
<clustering>
<clus scale="   32.612">  3  6 -1 -1</clus>
<clus scale="   90.829">  2  5  1 -1</clus>
<clus scale="  146.150">  2  4  1 -1</clus>
<clus scale="  154.969">  1  3  2 -1</clus>
</clustering>
</event>
<event>
 6    0  0.2036847E+002  0.1810435E+03  0.7546771E-02  0.1166797E+00
         21   -1    0    0  505  501  0.00000000000E+00  0.00000000000E+00  0.50704100248E+03  0.50704100248E+03  0.00000000000E+00 0.  1.
         21   -1    0    0  506  502 -0.00000000000E+00 -0.00000000000E+00 -0.15247255644E+03  0.15247255644E+03  0.00000000000E+00 0.  1.
         21    1    1    2  503  502  0.14434873297E+03 -0.46368869698E+02  0.37585338229E+03  0.40528063582E+03  0.00000000000E+00 0.  1.
         21    1    1    2  504  501 -0.82848137657E+02 -0.88960471159E+01 -0.23239619880E+01  0.83356789567E+02  0.00000000000E+00 0.  1.
         21    1    1    2  505  503  0.25012254555E+02  0.25073531369E+02  0.46365105711E+02  0.58343961820E+02  0.00000000000E+00 0.  1.
         21    1    1    2  506  504 -0.86512849872E+02  0.30191385445E+02 -0.65326079967E+02  0.11253217172E+03  0.00000000000E+00 0.  1.
<scales pt_clust_3="167.68253" pt_clust_4="64.41140" pt_clust_5="35.41603" pt_clust_6="64.41140"></scales>
<clustering>
<clus scale="   35.416">  1  5  2 -1</clus>
<clus scale="   64.411">  4  6 -1 -1</clus>
<clus scale="  167.683">  1  3  2 -1</clus>
<clus scale="   35.416">  1  3  2 -1</clus>
</clustering>
</event>
<event>
 6    0  0.2036847E+002  0.1312214E+03  0.7546771E-02  0.1225655E+00
         21   -1    0    0  502  501  0.00000000000E+00  0.00000000000E+00  0.47373930683E+02  0.47373930683E+02  0.00000000000E+00 0. -1.
         21   -1    0    0  506  502 -0.00000000000E+00 -0.00000000000E+00 -0.69405433671E+03  0.69405433671E+03  0.00000000000E+00 0. -1.
         21    1    1    2  503  505 -0.36340500086E+02 -0.38183431823E+02 -0.48376651299E+02  0.71546535927E+02  0.00000000000E+00 0.  1.
         21    1    1    2  504  503  0.35023054152E+02  0.40035022555E+02 -0.30012855052E+03  0.30480578109E+03  0.00000000000E+00 0. -1.
         21    1    1    2  505  501  0.38796811409E+01 -0.73021283950E+02 -0.17070269963E+02  0.75090305313E+02  0.00000000000E+00 0. -1.
         21    1    1    2  506  504 -0.25622352069E+01  0.71169693218E+02 -0.28110493425E+03  0.28998564506E+03  0.00000000000E+00 0.  1.
<scales pt_clust_3="52.33030" pt_clust_4="43.42153" pt_clust_5="52.33030" pt_clust_6="126.27144"></scales>
<clustering>
<clus scale="   43.422">  4  6 -1 -1</clus>
<clus scale="   52.330">  3  5 -1 -1</clus>
<clus scale="  126.271">  2  4  1 -1</clus>
<clus scale="  131.221">  1  3  2 -1</clus>
</clustering>
</event>
<event>
 6    0  0.2036847E+002  0.3163817E+03  0.7546771E-02  0.1077327E+00
         21   -1    0    0  505  501  0.00000000000E+00  0.00000000000E+00  0.14788315139E+04  0.14788315139E+04  0.00000000000E+00 0.  1.
         21   -1    0    0  504  502 -0.00000000000E+00 -0.00000000000E+00 -0.20280785653E+03  0.20280785653E+03  0.00000000000E+00 0. -1.
         21    1    1    2  503  501 -0.80153950918E+02 -0.36527287712E+02  0.56363729284E+02  0.10457422519E+03  0.00000000000E+00 0.  1.
         21    1    1    2  504  503 -0.19544562397E+03 -0.92145647292E+02 -0.74480212571E+02  0.22855440120E+03  0.00000000000E+00 0. -1.
         21    1    1    2  505  506  0.14037264488E+03  0.29557084128E+02  0.22874877321E+03  0.27000759600E+03  0.00000000000E+00 0.  1.
         21    1    1    2  506  502  0.13522693001E+03  0.99115850875E+02  0.10653913675E+04  0.10785031480E+04  0.00000000000E+00 0.  1.
<scales pt_clust_3="85.98026" pt_clust_4="85.98026" pt_clust_5="143.45069" pt_clust_6="286.29143"></scales>
<clustering>
<clus scale="   85.980">  3  4 -1 -1</clus>
<clus scale="  143.451">  1  5  2 -1</clus>
<clus scale="  286.291">  1  6  2 -1</clus>
<clus scale="  143.451">  1  3  2 -1</clus>
</clustering>
</event>
<event>
 6    0  0.2036847E+002  0.1296590E+03  0.7546771E-02  0.1227963E+00
         21   -1    0    0  505  501  0.00000000000E+00  0.00000000000E+00  0.21899401650E+03  0.21899401650E+03  0.00000000000E+00 0. -1.
         21   -1    0    0  504  502 -0.00000000000E+00 -0.00000000000E+00 -0.19246150841E+04  0.19246150841E+04  0.00000000000E+00 0.  1.
         21    1    1    2  503  501 -0.14348455051E+02  0.31114033543E+02 -0.20416519593E+02  0.39884778023E+02  0.00000000000E+00 0.  1.
         21    1    1    2  504  503  0.14935124617E+03 -0.57385619874E+02 -0.16380843572E+04  0.16458794808E+04  0.00000000000E+00 0.  1.
         21    1    1    2  505  506 -0.79038726423E+02  0.59875128578E+02  0.18869479065E+03  0.21316161783E+03  0.00000000000E+00 0. -1.
         21    1    1    2  506  502 -0.55964064700E+02 -0.33603542247E+02 -0.23581498145E+03  0.24468322391E+03  0.00000000000E+00 0. -1.
<scales pt_clust_3="34.26312" pt_clust_4="14000.00000" pt_clust_5="129.65897" pt_clust_6="65.20294"></scales>
<clustering>
<clus scale="   34.263">  1  3  2 -1</clus>
<clus scale="   65.203">  2  6  1 -1</clus>
<clus scale="  129.659">  1  5  2 -1</clus>
<clus scale="   34.263">  1  3  2 -1</clus>
</clustering>
</event>
<event>
 6    0  0.2036847E+002  0.1112518E+03  0.7546771E-02  0.1258269E+00
         21   -1    0    0  503  501  0.00000000000E+00  0.00000000000E+00  0.92349587814E+03  0.92349587814E+03  0.00000000000E+00 0. -1.
         21   -1    0    0  504  502 -0.00000000000E+00 -0.00000000000E+00 -0.16286519897E+03  0.16286519897E+03  0.00000000000E+00 0.  1.
         21    1    1    2  503  505  0.21937431228E+02 -0.50448184916E+02  0.17801103712E+03  0.18631746989E+03  0.00000000000E+00 0. -1.
         21    1    1    2  504  506 -0.18684391983E+02  0.27716542141E+02 -0.29344669900E+02  0.44479465639E+02  0.00000000000E+00 0.  1.
         21    1    1    2  505  502  0.48594670872E+02  0.82643067781E+02 -0.10039154029E+03  0.13881563331E+03  0.00000000000E+00 0.  1.
         21    1    1    2  506  501 -0.51847710117E+02 -0.59911425006E+02  0.71235585224E+03  0.71674850827E+03  0.00000000000E+00 0. -1.
<scales pt_clust_3="53.92811" pt_clust_4="33.42624" pt_clust_5="14000.00000" pt_clust_6="111.25184"></scales>
<clustering>
<clus scale="   33.426">  2  4  1 -1</clus>
<clus scale="   53.928">  1  3  2 -1</clus>
<clus scale="  111.252">  1  6  2 -1</clus>
<clus scale="   53.928">  1  3  2 -1</clus>
</clustering>
</event>
<event>
 6    0  0.2036847E+002  0.1218046E+03  0.7546771E-02  0.1240149E+00
         21   -1    0    0  504  501  0.00000000000E+00  0.00000000000E+00  0.31186929969E+04  0.31186929969E+04  0.00000000000E+00 0. -1.
         21   -1    0    0  503  502 -0.00000000000E+00 -0.00000000000E+00 -0.79842992176E+02  0.79842992176E+02  0.00000000000E+00 0. -1.
         21    1    1    2  503  505  0.92276209981E+02  0.99854719233E+02  0.44408085874E+02  0.14303126222E+03  0.00000000000E+00 0. -1.
         21    1    1    2  504  502 -0.46281941459E+02  0.28758030948E+01  0.51014157895E+03  0.51224478418E+03  0.00000000000E+00 0.  1.
         21    1    1    2  505  506  0.16244905719E+02 -0.12877565383E+03  0.11623734923E+03  0.17423601044E+03  0.00000000000E+00 0. -1.
         21    1    1    2  506  501 -0.62239174240E+02  0.26045131497E+02  0.23680629907E+04  0.23690239322E+04  0.00000000000E+00 0. -1.
<scales pt_clust_3="14000.00000" pt_clust_4="46.37120" pt_clust_5="121.80465" pt_clust_6="108.14579"></scales>
<clustering>
<clus scale="   46.371">  1  4  2 -1</clus>
<clus scale="  108.146">  1  6  2 -1</clus>
<clus scale="  121.805">  1  5  2 -1</clus>
<clus scale="   46.371">  1  3  2 -1</clus>
</clustering>
</event>
<event>
 6    0  0.2036847E+002  0.1023627E+03  0.7546771E-02  0.1275405E+00
         21   -1    0    0  504  501  0.00000000000E+00  0.00000000000E+00  0.15045073816E+03  0.15045073816E+03  0.00000000000E+00 0. -1.
         21   -1    0    0  506  502 -0.00000000000E+00 -0.00000000000E+00 -0.38746504420E+03  0.38746504420E+03  0.00000000000E+00 0. -1.
         21    1    1    2  503  501 -0.12178242207E+03  0.51142894809E+02  0.88265118102E+02  0.15886247225E+03  0.00000000000E+00 0. -1.
         21    1    1    2  504  505  0.19812283501E+02 -0.25548706947E+02 -0.13120869695E+02  0.34891549489E+02  0.00000000000E+00 0.  1.
         21    1    1    2  505  502  0.15802520630E+02 -0.33051800035E+02 -0.19569953009E+03  0.19909908895E+03  0.00000000000E+00 0. -1.
         21    1    1    2  506  503  0.86167617938E+02  0.74576121729E+01 -0.11645902436E+03  0.14506267168E+03  0.00000000000E+00 0. -1.
<scales pt_clust_3="14000.00000" pt_clust_4="32.33053" pt_clust_5="37.02015" pt_clust_6="102.36266"></scales>
<clustering>
<clus scale="   32.331">  1  4  2 -1</clus>
<clus scale="   37.020">  2  5  1 -1</clus>
<clus scale="  102.363">  2  6  1 -1</clus>
<clus scale="   32.331">  1  3  2 -1</clus>
</clustering>
</event>
<event>
 6    0  0.2036847E+002  0.2188984E+03  0.7546771E-02  0.1134707E+00
         21   -1    0    0  503  501  0.00000000000E+00  0.00000000000E+00  0.80272832726E+03  0.80272832726E+03  0.00000000000E+00 0. -1.
         21   -1    0    0  506  502 -0.00000000000E+00 -0.00000000000E+00 -0.11491798088E+04  0.11491798088E+04  0.00000000000E+00 0.  1.
         21    1    1    2  503  502  0.17608392022E+03  0.62600917063E+02  0.72589813973E+03  0.74956822974E+03  0.00000000000E+00 0. -1.
         21    1    1    2  504  501  0.40928456353E+01  0.30621816766E+02  0.50013135060E+02  0.58785718724E+02  0.00000000000E+00 0. -1.
         21    1    1    2  505  504 -0.13566357625E+03 -0.97462249950E+02 -0.74190527670E+03  0.76047809678E+03  0.00000000000E+00 0.  1.
         21    1    1    2  506  505 -0.44513189611E+02  0.42395161219E+01 -0.38045747958E+03  0.38307609076E+03  0.00000000000E+00 0.  1.
<scales pt_clust_3="202.61445" pt_clust_4="30.89413" pt_clust_5="42.89700" pt_clust_6="42.89700"></scales>
<clustering>
<clus scale="   30.894">  1  4  2 -1</clus>
<clus scale="   42.897">  5  6 -1 -1</clus>
<clus scale="  202.614">  1  3  2 -1</clus>
<clus scale="   30.894">  1  3  2 -1</clus>
</clustering>
</event>
<event>
 6    0  0.2036847E+002  0.1406685E+03  0.7546771E-02  0.1212432E+00
         21   -1    0    0  505  501  0.00000000000E+00  0.00000000000E+00  0.15346024415E+03  0.15346024415E+03  0.00000000000E+00 0.  1.
         21   -1    0    0  504  502 -0.00000000000E+00 -0.00000000000E+00 -0.32721894966E+03  0.32721894966E+03  0.00000000000E+00 0.  1.
         21    1    1    2  503  501 -0.10646528915E+03  0.34052781924E+02  0.55515616888E+02  0.12480558268E+03  0.00000000000E+00 0.  1.
         21    1    1    2  504  506  0.95810339746E+02 -0.62707967523E+02 -0.20101298932E+03  0.23133986312E+03  0.00000000000E+00 0.  1.
         21    1    1    2  505  502  0.35645340522E+02  0.48516149764E+02 -0.56016783418E+02  0.82233126618E+02  0.00000000000E+00 0.  1.
         21    1    1    2  506  503 -0.24990391119E+02 -0.19860964164E+02  0.27755450339E+02  0.42300621383E+02  0.00000000000E+00 0.  1.
<scales pt_clust_3="31.65315" pt_clust_4="127.58998" pt_clust_5="60.20305" pt_clust_6="31.65315"></scales>
<clustering>
<clus scale="   31.653">  3  6 -1 -1</clus>
<clus scale="   60.203">  2  5  1 -1</clus>
<clus scale="  127.590">  2  4  1 -1</clus>
<clus scale="  140.668">  1  3  2 -1</clus>
</clustering>
</event>
<event>
 6    0  0.2036847E+002  0.1222016E+03  0.7546771E-02  0.1239509E+00
         21   -1    0    0  506  501  0.00000000000E+00  0.00000000000E+00  0.14875798058E+03  0.14875798058E+03  0.00000000000E+00 0.  1.
         21   -1    0    0  504  502 -0.00000000000E+00 -0.00000000000E+00 -0.23028422347E+03  0.23028422347E+03  0.00000000000E+00 0.  1.
         21    1    1    2  503  505 -0.18839262127E+02  0.28050043594E+02 -0.88009927246E+02  0.94273379260E+02  0.00000000000E+00 0.  1.
         21    1    1    2  504  501 -0.39814946726E+02 -0.12388222398E+02 -0.11226691541E+02  0.43182596494E+02  0.00000000000E+00 0.  1.
         21    1    1    2  505  502 -0.57060901465E+02  0.12437623255E+02 -0.71847562113E+02  0.92588947126E+02  0.00000000000E+00 0.  1.
         21    1    1    2  506  503  0.11571511032E+03 -0.28099444451E+02  0.89557938018E+02  0.14899728117E+03  0.00000000000E+00 0.  1.
<scales pt_clust_3="33.70111" pt_clust_4="41.69770" pt_clust_5="33.70111" pt_clust_6="113.88683"></scales>
<clustering>
<clus scale="   33.701">  3  5 -1 -1</clus>
<clus scale="   41.698">  2  4  1 -1</clus>
<clus scale="  113.887">  1  6  2 -1</clus>
<clus scale="  113.887">  1  3  2 -1</clus>
</clustering>
</event>
<event>
 6    0  0.2036847E+002  0.1291339E+03  0.7546771E-02  0.1228747E+00
         21   -1    0    0  505  501  0.00000000000E+00  0.00000000000E+00  0.18160308180E+03  0.18160308180E+03  0.00000000000E+00 0. -1.
         21   -1    0    0  501  502 -0.00000000000E+00 -0.00000000000E+00 -0.17190145920E+03  0.17190145920E+03  0.00000000000E+00 0. -1.
         21    1    1    2  503  502  0.32751707198E+02  0.53769291120E+02 -0.35457193631E+02  0.72256650713E+02  0.00000000000E+00 0. -1.
         21    1    1    2  504  506 -0.10706545837E+01 -0.54468547454E+02  0.51249741533E+02  0.74796423512E+02  0.00000000000E+00 0. -1.
         21    1    1    2  505  504 -0.45240588319E+02 -0.59311914263E+02  0.74255804036E+02  0.10525463618E+03  0.00000000000E+00 0. -1.
         21    1    1    2  506  503  0.13559535705E+02  0.60011170597E+02 -0.80346729338E+02  0.10119683058E+03  0.00000000000E+00 0. -1.
<scales pt_clust_3="39.35377" pt_clust_4="33.92631" pt_clust_5="129.09974" pt_clust_6="39.35377"></scales>
<clustering>
<clus scale="   33.926">  4  5 -1 -1</clus>
<clus scale="   39.354">  3  6 -1 -1</clus>
<clus scale="  129.100">  1  4  2 -1</clus>
<clus scale="  129.100">  1  3  2 -1</clus>
</clustering>
</event>
<event>
 6    0  0.2036847E+002  0.9776611E+02  0.7546771E-02  0.1285065E+00
         21   -1    0    0  504  501  0.00000000000E+00  0.00000000000E+00  0.78678206316E+02  0.78678206316E+02  0.00000000000E+00 0. -1.
         21   -1    0    0  506  502 -0.00000000000E+00 -0.00000000000E+00 -0.59939208226E+03  0.59939208226E+03  0.00000000000E+00 0. -1.
         21    1    1    2  503  502  0.35972211230E+02  0.27555941483E+02 -0.10209442358E+03  0.11169870732E+03  0.00000000000E+00 0.  1.
         21    1    1    2  504  505  0.10438687886E+02 -0.49721724340E+02  0.36498804585E+02  0.62557004502E+02  0.00000000000E+00 0. -1.
         21    1    1    2  505  503  0.13927115539E+02 -0.69970393377E+02 -0.58719316302E+02  0.92400100668E+02  0.00000000000E+00 0. -1.
         21    1    1    2  506  501 -0.60338014654E+02  0.92136176233E+02 -0.39639894065E+03  0.41141447608E+03  0.00000000000E+00 0. -1.
<scales pt_clust_3="45.31368" pt_clust_4="50.29937" pt_clust_5="14000.00000" pt_clust_6="97.76611"></scales>
<clustering>
<clus scale="   45.314">  2  3  1 -1</clus>
<clus scale="   50.299">  1  4  2 -1</clus>
<clus scale="   97.766">  2  6  1 -1</clus>
<clus scale="   50.299">  1  3  2 -1</clus>
</clustering>
</event>
<event>
 6    0  0.2036847E+002  0.1142898E+03  0.7546771E-02  0.1252826E+00
         21   -1    0    0  505  501  0.00000000000E+00  0.00000000000E+00  0.26339752532E+04  0.26339752532E+04  0.00000000000E+00 0. -1.
         21   -1    0    0  503  502 -0.00000000000E+00 -0.00000000000E+00 -0.11539406405E+03  0.11539406405E+03  0.00000000000E+00 0. -1.
         21    1    1    2  503  504 -0.46751322992E+02  0.49975077902E+02 -0.80501003530E+02  0.10565796791E+03  0.00000000000E+00 0. -1.
         21    1    1    2  504  506  0.95003280673E+02  0.58571046906E+01  0.13385010252E+04  0.13418811137E+04  0.00000000000E+00 0. -1.
         21    1    1    2  505  502 -0.45589868496E+02  0.24101129413E+02  0.15030096063E+02  0.53714098113E+02  0.00000000000E+00 0. -1.
         21    1    1    2  506  501 -0.26620891847E+01 -0.79933312005E+02  0.12455510714E+04  0.12481161375E+04  0.00000000000E+00 0. -1.
<scales pt_clust_3="14000.00000" pt_clust_4="114.28982" pt_clust_5="51.56841" pt_clust_6="79.67866"></scales>
<clustering>
<clus scale="   51.568">  2  5  1 -1</clus>
<clus scale="   79.679">  1  6  2 -1</clus>
<clus scale="  114.290">  1  4  2 -1</clus>
<clus scale="   79.679">  1  3  2 -1</clus>
</clustering>
</event>
<event>
 6    0  0.2036847E+002  0.1864219E+03  0.7546771E-02  0.1161729E+00
         21   -1    0    0  503  501  0.00000000000E+00  0.00000000000E+00  0.45365198573E+02  0.45365198573E+02  0.00000000000E+00 0. -1.
         21   -1    0    0  506  502 -0.00000000000E+00 -0.00000000000E+00 -0.27484383016E+04  0.27484383016E+04  0.00000000000E+00 0. -1.
         21    1    1    2  503  505  0.11644441155E+03 -0.92308866523E+02 -0.54364905170E+03  0.56359073736E+03  0.00000000000E+00 0. -1.
         21    1    1    2  504  501 -0.13238391378E+03  0.16907456286E+03 -0.35603208850E+03  0.41577705141E+03  0.00000000000E+00 0. -1.
         21    1    1    2  505  502  0.10242195460E+01 -0.13161708121E+03 -0.15000770367E+04  0.15058403704E+04  0.00000000000E+00 0. -1.
         21    1    1    2  506  504  0.14915282682E+02  0.54851384871E+02 -0.30331492608E+03  0.30859534096E+03  0.00000000000E+00 0. -1.
<scales pt_clust_3="186.42188" pt_clust_4="14000.00000" pt_clust_5="98.39515" pt_clust_6="56.84312"></scales>
<clustering>
<clus scale="   56.843">  2  6  1 -1</clus>
<clus scale="   98.395">  2  5  1 -1</clus>
<clus scale="  186.422">  2  3  1 -1</clus>
<clus scale="  186.422">  1  3  2 -1</clus>
</clustering>
</event>
<event>
 6    0  0.2036847E+002  0.1113866E+03  0.7546771E-02  0.1258024E+00
         21   -1    0    0  503  501  0.00000000000E+00  0.00000000000E+00  0.15133030067E+03  0.15133030067E+03  0.00000000000E+00 0.  1.
         21   -1    0    0  504  502 -0.00000000000E+00 -0.00000000000E+00 -0.11943342982E+04  0.11943342982E+04  0.00000000000E+00 0. -1.
         21    1    1    2  503  505  0.42237806719E+02 -0.54596066696E+02  0.82598097640E+02  0.10764389694E+03  0.00000000000E+00 0.  1.
         21    1    1    2  504  501 -0.31826189072E+02 -0.60580838931E+02  0.29934354426E+02  0.74692770275E+02  0.00000000000E+00 0.  1.
         21    1    1    2  505  506  0.18995527633E+02  0.93889054198E+02 -0.73256454184E+03  0.73880091535E+03  0.00000000000E+00 0. -1.
         21    1    1    2  506  502 -0.29407145281E+02  0.21287851429E+02 -0.42297190779E+03  0.42452701633E+03  0.00000000000E+00 0. -1.
<scales pt_clust_3="14000.00000" pt_clust_4="68.28990" pt_clust_5="111.38658" pt_clust_6="36.30362"></scales>
<clustering>
<clus scale="   36.304">  2  6  1 -1</clus>
<clus scale="   68.290">  1  4  2 -1</clus>
<clus scale="  111.387">  2  5  1 -1</clus>
<clus scale="   68.290">  1  3  2 -1</clus>
</clustering>
</event>
<event>
 6    0  0.2036847E+002  0.9400505E+02  0.7546771E-02  0.1293433E+00
         21   -1    0    0  504  501  0.00000000000E+00  0.00000000000E+00  0.39055591176E+03  0.39055591176E+03  0.00000000000E+00 0.  1.
         21   -1    0    0  505  502 -0.00000000000E+00 -0.00000000000E+00 -0.11830939941E+04  0.11830939941E+04  0.00000000000E+00 0.  1.
         21    1    1    2  503  501 -0.31242699406E+02  0.36077665922E+01  0.27635460359E+02  0.41866942989E+02  0.00000000000E+00 0. -1.
         21    1    1    2  504  506 -0.31388612942E+02 -0.41926550567E+02  0.34488004606E+03  0.34883423977E+03  0.00000000000E+00 0.  1.
         21    1    1    2  505  503  0.76060466842E+02 -0.63647915574E+02 -0.67234279184E+03  0.67961833518E+03  0.00000000000E+00 0.  1.
         21    1    1    2  506  502 -0.13429154494E+02  0.10196669955E+03 -0.49271079687E+03  0.50333038788E+03  0.00000000000E+00 0.  1.
<scales pt_clust_3="31.45031" pt_clust_4="72.80229" pt_clust_5="14000.00000" pt_clust_6="94.00505"></scales>
<clustering>
<clus scale="   31.450">  1  3  2 -1</clus>
<clus scale="   72.802">  1  4  2 -1</clus>
<clus scale="   94.005">  1  6  2 -1</clus>
<clus scale="   31.450">  1  3  2 -1</clus>
</clustering>
</event>
<event>
 6    0  0.2036847E+002  0.9184066E+02  0.7546771E-02  0.1298455E+00
         21   -1    0    0  505  501  0.00000000000E+00  0.00000000000E+00  0.27229843541E+03  0.27229843541E+03  0.00000000000E+00 0. -1.
         21   -1    0    0  506  502 -0.00000000000E+00 -0.00000000000E+00 -0.33484856548E+04  0.33484856548E+04  0.00000000000E+00 0.  1.
         21    1    1    2  503  502 -0.81763455014E+02  0.41870602825E+02 -0.21614845491E+04  0.21634356625E+04  0.00000000000E+00 0.  1.
         21    1    1    2  504  501  0.37803514479E+02  0.21266386594E+02  0.19689520693E+02  0.47634463688E+02  0.00000000000E+00 0. -1.
         21    1    1    2  505  503  0.51937570699E+02  0.83841482187E+00  0.23392318544E+03  0.23962109856E+03  0.00000000000E+00 0. -1.
         21    1    1    2  506  504 -0.79776301641E+01 -0.63975404241E+02 -0.11683153764E+04  0.11700928654E+04  0.00000000000E+00 0.  1.
<scales pt_clust_3="91.84066" pt_clust_4="43.37470" pt_clust_5="14000.00000" pt_clust_6="64.37500"></scales>
<clustering>
<clus scale="   43.375">  1  4  2 -1</clus>
<clus scale="   64.375">  2  6  1 -1</clus>
<clus scale="   91.841">  2  3  1 -1</clus>
<clus scale="   43.375">  1  3  2 -1</clus>
</clustering>
</event>
<event>
 6    0  0.2036847E+002  0.2590639E+03  0.7546771E-02  0.1107707E+00
         21   -1    0    0  504  501  0.00000000000E+00  0.00000000000E+00  0.16703217421E+03  0.16703217421E+03  0.00000000000E+00 0. -1.
         21   -1    0    0  503  502 -0.00000000000E+00 -0.00000000000E+00 -0.97311778144E+03  0.97311778144E+03  0.00000000000E+00 0. -1.
         21    1    1    2  503  501  0.32109718779E+02 -0.39853866715E+01 -0.96796511829E+02  0.10206116818E+03  0.00000000000E+00 0.  1.
         21    1    1    2  504  506 -0.41034605009E+02  0.48571232588E+02  0.29093895394E+02  0.69924660832E+02  0.00000000000E+00 0. -1.
         21    1    1    2  505  502  0.88411495463E+02 -0.22056976020E+03 -0.73773416001E+03  0.77506083792E+03  0.00000000000E+00 0. -1.
         21    1    1    2  506  505 -0.79486609233E+02  0.17598391429E+03 -0.64883079101E+00  0.19310328872E+03  0.00000000000E+00 0. -1.
<scales pt_clust_3="32.35610" pt_clust_4="33.59292" pt_clust_5="252.36858" pt_clust_6="33.59292"></scales>
<clustering>
<clus scale="   32.356">  2  3  1 -1</clus>
<clus scale="   33.593">  4  6 -1 -1</clus>
<clus scale="  252.369">  2  5  1 -1</clus>
<clus scale="  259.064">  1  3  2 -1</clus>
</clustering>
</event>
<event>
 6    0  0.2036847E+002  0.2152502E+03  0.7546771E-02  0.1137475E+00
         21   -1    0    0  505  501  0.00000000000E+00  0.00000000000E+00  0.84963899595E+02  0.84963899595E+02  0.00000000000E+00 0.  1.
         21   -1    0    0  504  502 -0.00000000000E+00 -0.00000000000E+00 -0.13843379715E+04  0.13843379715E+04  0.00000000000E+00 0. -1.
         21    1    1    2  503  501  0.51831680845E+02  0.92616554023E+01 -0.33837892228E+02  0.62588372326E+02  0.00000000000E+00 0. -1.
         21    1    1    2  504  503  0.15153365192E+03 -0.46012455919E+02 -0.41250635389E+02  0.16364965226E+03  0.00000000000E+00 0.  1.
         21    1    1    2  505  506 -0.55096921955E+02  0.18360558473E+02 -0.21193931473E+03  0.21975225606E+03  0.00000000000E+00 0. -1.
         21    1    1    2  506  502 -0.14826841081E+03  0.18390242044E+02 -0.10123462295E+04  0.10233115904E+04  0.00000000000E+00 0. -1.
<scales pt_clust_3="30.71361" pt_clust_4="213.41358" pt_clust_5="37.53551" pt_clust_6="37.53551"></scales>
<clustering>
<clus scale="   30.714">  3  4 -1 -1</clus>
<clus scale="   37.536">  5  6 -1 -1</clus>
<clus scale="  213.414">  1  3  2 -1</clus>
<clus scale="  213.414">  1  3  2 -1</clus>
</clustering>
</event>
<event>
 6    0  0.2036847E+002  0.1984714E+03  0.7546771E-02  0.1151035E+00
         21   -1    0    0  506  501  0.00000000000E+00  0.00000000000E+00  0.29319534344E+03  0.29319534344E+03  0.00000000000E+00 0.  1.
         21   -1    0    0  503  502 -0.00000000000E+00 -0.00000000000E+00 -0.50645009550E+03  0.50645009550E+03  0.00000000000E+00 0.  1.
         21    1    1    2  503  504 -0.13802934388E+03 -0.14415847008E+03 -0.38111438138E+03  0.43021150143E+03  0.00000000000E+00 0.  1.
         21    1    1    2  504  501  0.32277961694E+01 -0.32527813511E+02  0.70633717146E+01  0.33442017581E+02  0.00000000000E+00 0. -1.
         21    1    1    2  505  502  0.16652917530E+03  0.10594684237E+03  0.55120468052E+02  0.20492673235E+03  0.00000000000E+00 0.  1.
         21    1    1    2  506  505 -0.31727627592E+02  0.70739441226E+02  0.10567578956E+03  0.13106518758E+03  0.00000000000E+00 0.  1.
<scales pt_clust_3="14000.00000" pt_clust_4="32.68757" pt_clust_5="198.47140" pt_clust_6="64.24202"></scales>
<clustering>
<clus scale="   32.688">  1  4  2 -1</clus>
<clus scale="   64.242">  1  6  2 -1</clus>
<clus scale="  198.471">  1  5  2 -1</clus>
<clus scale="   32.688">  1  3  2 -1</clus>
</clustering>
</event>
<event>
 6    0  0.2036847E+002  0.2754740E+03  0.7546771E-02  0.1098187E+00
         21   -1    0    0  503  501  0.00000000000E+00  0.00000000000E+00  0.54970767617E+03  0.54970767617E+03  0.00000000000E+00 0.  1.
         21   -1    0    0  505  502 -0.00000000000E+00 -0.00000000000E+00 -0.13140618072E+03  0.13140618072E+03  0.00000000000E+00 0.  1.
         21    1    1    2  503  504  0.14486291181E+03  0.12591153375E+03  0.17778595539E+03  0.26162343833E+03  0.00000000000E+00 0.  1.
         21    1    1    2  504  502  0.81518262452E+02 -0.17989653227E+02  0.72257976508E+02  0.11040864960E+03  0.00000000000E+00 0.  1.
         21    1    1    2  505  506 -0.74475575734E+02 -0.39433783702E+01  0.39105300975E+02  0.84210368591E+02  0.00000000000E+00 0.  1.
         21    1    1    2  506  501 -0.15190559853E+03 -0.10397850215E+03  0.12915226258E+03  0.22487140037E+03  0.00000000000E+00 0.  1.
<scales pt_clust_3="75.16639" pt_clust_4="75.16639" pt_clust_5="41.86147" pt_clust_6="259.27000"></scales>
<clustering>
<clus scale="   41.861">  5  6 -1 -1</clus>
<clus scale="   75.166">  3  4 -1 -1</clus>
<clus scale="  259.270">  2  5  1 -1</clus>
<clus scale="  275.474">  1  3  2 -1</clus>
</clustering>
</event>
<event>
 6    0  0.2036847E+002  0.1095548E+03  0.7546771E-02  0.1261397E+00
         21   -1    0    0  505  501  0.00000000000E+00  0.00000000000E+00  0.62932419915E+02  0.62932419915E+02  0.00000000000E+00 0.  1.
         21   -1    0    0  504  502 -0.00000000000E+00 -0.00000000000E+00 -0.13360162333E+04  0.13360162333E+04  0.00000000000E+00 0.  1.
         21    1    1    2  503  506 -0.80352639831E+02 -0.50213921053E+02 -0.27060075953E+02  0.98540510988E+02  0.00000000000E+00 0.  1.
         21    1    1    2  504  501 -0.40761698247E+02  0.45939291127E+02 -0.66892093332E+03  0.67173443379E+03  0.00000000000E+00 0.  1.
         21    1    1    2  505  503 -0.27899693257E+02  0.42800794586E+02 -0.27696363119E+02  0.58115311502E+02  0.00000000000E+00 0.  1.
         21    1    1    2  506  502  0.14901403134E+03 -0.38526164660E+02 -0.54940644096E+03  0.57055839689E+03  0.00000000000E+00 0.  1.
<scales pt_clust_3="14000.00000" pt_clust_4="62.90602" pt_clust_5="51.09110" pt_clust_6="109.55482"></scales>
<clustering>
<clus scale="   51.091">  1  5  2 -1</clus>
<clus scale="   62.906">  2  4  1 -1</clus>
<clus scale="  109.555">  2  6  1 -1</clus>
<clus scale="   51.091">  1  3  2 -1</clus>
</clustering>
</event>
<event>
 6    0  0.2036847E+002  0.1006217E+03  0.7546771E-02  0.1278994E+00
         21   -1    0    0  506  501  0.00000000000E+00  0.00000000000E+00  0.32983863587E+03  0.32983863587E+03  0.00000000000E+00 0.  1.
         21   -1    0    0  504  502 -0.00000000000E+00 -0.00000000000E+00 -0.89880788931E+03  0.89880788931E+03  0.00000000000E+00 0. -1.
         21    1    1    2  503  501  0.48266185819E+02  0.45775889767E+02  0.12489892263E+03  0.14150900202E+03  0.00000000000E+00 0.  1.
         21    1    1    2  504  503 -0.68750809143E+02 -0.74528297553E+02 -0.85048206748E+03  0.85650504260E+03  0.00000000000E+00 0. -1.
         21    1    1    2  505  502 -0.74869089581E+01  0.54556493856E+02 -0.13182463201E+02  0.56623689068E+02  0.00000000000E+00 0. -1.
         21    1    1    2  506  505  0.27971532282E+02 -0.25804086071E+02  0.16979635461E+03  0.17400879149E+03  0.00000000000E+00 0.  1.
<scales pt_clust_3="100.62171" pt_clust_4="14000.00000" pt_clust_5="51.13743" pt_clust_6="38.05598"></scales>
<clustering>
<clus scale="   38.056">  1  6  2 -1</clus>
<clus scale="   51.137">  1  5  2 -1</clus>
<clus scale="  100.622">  1  3  2 -1</clus>
<clus scale="   38.056">  1  3  2 -1</clus>
</clustering>
</event>
<event>
 6    0  0.2036847E+002  0.1256186E+03  0.7546771E-02  0.1234106E+00
         21   -1    0    0  503  501  0.00000000000E+00  0.00000000000E+00  0.21264302622E+03  0.21264302622E+03  0.00000000000E+00 0.  1.
         21   -1    0    0  505  502 -0.00000000000E+00 -0.00000000000E+00 -0.28328542186E+03  0.28328542186E+03  0.00000000000E+00 0. -1.
         21    1    1    2  503  504  0.11581462105E+02  0.56635058842E+02 -0.82125905608E+02  0.10043069514E+03  0.00000000000E+00 0. -1.
         21    1    1    2  504  502 -0.21813355696E+02  0.59266971501E+02 -0.13840340119E+03  0.15213118635E+03  0.00000000000E+00 0. -1.
         21    1    1    2  505  506  0.14070506767E+01 -0.14893466384E+03  0.14665274515E+03  0.20902282542E+03  0.00000000000E+00 0.  1.
         21    1    1    2  506  501  0.88248429142E+01  0.33032633498E+02  0.32341660048E+01  0.34343741177E+02  0.00000000000E+00 0. -1.
<scales pt_clust_3="38.69375" pt_clust_4="38.69375" pt_clust_5="119.01119" pt_clust_6="34.19112"></scales>
<clustering>
<clus scale="   34.191">  1  6  2 -1</clus>
<clus scale="   38.694">  3  4 -1 -1</clus>
<clus scale="  119.011">  1  5  2 -1</clus>
<clus scale="   34.191">  1  3  2 -1</clus>
</clustering>
</event>
<event>
 6    0  0.2036847E+002  0.2132422E+03  0.7546771E-02  0.1139024E+00
         21   -1    0    0  504  501  0.00000000000E+00  0.00000000000E+00  0.20266811545E+03  0.20266811545E+03  0.00000000000E+00 0. -1.
         21   -1    0    0  505  502 -0.00000000000E+00 -0.00000000000E+00 -0.50896096376E+03  0.50896096376E+03  0.00000000000E+00 0. -1.
         21    1    1    2  503  501  0.59314056890E+02 -0.16405165633E+03 -0.32918862217E+03  0.37255369044E+03  0.00000000000E+00 0. -1.
         21    1    1    2  504  506 -0.22809587198E+02  0.15935284350E+03  0.12146398062E+03  0.20166086529E+03  0.00000000000E+00 0. -1.
         21    1    1    2  505  503 -0.22847273692E+02 -0.30421215097E+02 -0.91474175289E+02  0.99070545511E+02  0.00000000000E+00 0. -1.
         21    1    1    2  506  502 -0.13657196001E+02  0.35120027929E+02 -0.70940314737E+01  0.38343977974E+02  0.00000000000E+00 0. -1.
<scales pt_clust_3="37.13410" pt_clust_4="211.00199" pt_clust_5="37.13410" pt_clust_6="35.46222"></scales>
<clustering>
<clus scale="   35.462">  4  6 -1 -1</clus>
<clus scale="   37.134">  3  5 -1 -1</clus>
<clus scale="  211.002">  1  4  2 -1</clus>
<clus scale="  211.002">  1  3  2 -1</clus>
</clustering>
</event>
<event>
 6    0  0.2036847E+002  0.1036593E+03  0.7546771E-02  0.1272784E+00
         21   -1    0    0  503  501  0.00000000000E+00  0.00000000000E+00  0.95606258336E+03  0.95606258336E+03  0.00000000000E+00 0. -1.
         21   -1    0    0  505  502 -0.00000000000E+00 -0.00000000000E+00 -0.81783779715E+02  0.81783779715E+02  0.00000000000E+00 0.  1.
         21    1    1    2  503  502  0.15301880478E+02  0.50781806949E+02  0.15892782066E+03  0.16754399912E+03  0.00000000000E+00 0. -1.
         21    1    1    2  504  501  0.29806872105E+01  0.61743900525E+02  0.65945351908E+03  0.66234442519E+03  0.00000000000E+00 0. -1.
         21    1    1    2  505  506  0.62516170435E+02 -0.23341952585E+02 -0.14845433803E+02  0.68363039877E+02  0.00000000000E+00 0.  1.
         21    1    1    2  506  504 -0.80798738124E+02 -0.89183754889E+02  0.70742897707E+02  0.13959489888E+03  0.00000000000E+00 0.  1.
<scales pt_clust_3="53.03715" pt_clust_4="103.65932" pt_clust_5="66.63995" pt_clust_6="14000.00000"></scales>
<clustering>
<clus scale="   53.037">  1  3  2 -1</clus>
<clus scale="   66.640">  2  5  1 -1</clus>
<clus scale="  103.659">  1  4  2 -1</clus>
<clus scale="   53.037">  1  3  2 -1</clus>
</clustering>
</event>
<event>
 6    0  0.2036847E+002  0.7531349E+02  0.7546771E-02  0.1342903E+00
         21   -1    0    0  506  501  0.00000000000E+00  0.00000000000E+00  0.59771970705E+03  0.59771970705E+03  0.00000000000E+00 0.  1.
         21   -1    0    0  503  502 -0.00000000000E+00 -0.00000000000E+00 -0.12003100486E+04  0.12003100486E+04  0.00000000000E+00 0. -1.
         21    1    1    2  503  505 -0.21110618753E+02  0.39706481366E+02 -0.21425515992E+03  0.21892358584E+03  0.00000000000E+00 0.  1.
         21    1    1    2  504  502  0.30481723476E+02 -0.11356791958E+03 -0.96659216907E+03  0.97371824936E+03  0.00000000000E+00 0. -1.
         21    1    1    2  505  501 -0.21963870877E+01 -0.37277447077E+02  0.36200625975E+02  0.52008821346E+02  0.00000000000E+00 0.  1.
         21    1    1    2  506  504 -0.71747176354E+01  0.11113888529E+03  0.54205636143E+03  0.55337909913E+03  0.00000000000E+00 0.  1.
<scales pt_clust_3="44.83522" pt_clust_4="14000.00000" pt_clust_5="37.34210" pt_clust_6="75.31349"></scales>
<clustering>
<clus scale="   37.342">  1  5  2 -1</clus>
<clus scale="   44.835">  2  3  1 -1</clus>
<clus scale="   75.313">  1  6  2 -1</clus>
<clus scale="   37.342">  1  3  2 -1</clus>
</clustering>
</event>
<event>
 6    0  0.2036847E+002  0.3439395E+03  0.7546771E-02  0.1065130E+00
         21   -1    0    0  502  501  0.00000000000E+00  0.00000000000E+00  0.11992185233E+04  0.11992185233E+04  0.00000000000E+00 0.  1.
         21   -1    0    0  505  502 -0.00000000000E+00 -0.00000000000E+00 -0.62483889990E+03  0.62483889990E+03  0.00000000000E+00 0.  1.
         21    1    1    2  503  501 -0.12103348893E+03  0.92894522824E+02  0.46963265146E+03  0.49379482088E+03  0.00000000000E+00 0.  1.
         21    1    1    2  504  503 -0.12770244709E+03  0.12440419216E+03  0.65639640869E+03  0.68017686183E+03  0.00000000000E+00 0.  1.
         21    1    1    2  505  506  0.23622313275E+02 -0.41010312367E+02 -0.14832719955E+03  0.15569462911E+03  0.00000000000E+00 0. -1.
         21    1    1    2  506  504  0.22511362275E+03 -0.17628840262E+03 -0.40332223717E+03  0.49439111141E+03  0.00000000000E+00 0.  1.
<scales pt_clust_3="31.77490" pt_clust_4="332.06636" pt_clust_5="39.03601" pt_clust_6="39.03601"></scales>
<clustering>
<clus scale="   31.775">  3  4 -1 -1</clus>
<clus scale="   39.036">  5  6 -1 -1</clus>
<clus scale="  332.066">  1  3  2 -1</clus>
<clus scale="  332.066">  1  3  2 -1</clus>
</clustering>
</event>
<event>
 6    0  0.2036847E+002  0.1298935E+03  0.7546771E-02  0.1227614E+00
         21   -1    0    0  505  501  0.00000000000E+00  0.00000000000E+00  0.23634612034E+04  0.23634612034E+04  0.00000000000E+00 0.  1.
         21   -1    0    0  506  502 -0.00000000000E+00 -0.00000000000E+00 -0.10894976807E+04  0.10894976807E+04  0.00000000000E+00 0. -1.
         21    1    1    2  503  502 -0.99820934620E+02  0.47520266474E+02 -0.37537012671E+03  0.39131205801E+03  0.00000000000E+00 0. -1.
         21    1    1    2  504  501 -0.62831444583E+02 -0.32564706132E+01  0.18139304972E+04  0.18150212791E+04  0.00000000000E+00 0.  1.
         21    1    1    2  505  503 -0.38710355915E+02 -0.79995416673E+02  0.52236400978E+03  0.52986971706E+03  0.00000000000E+00 0.  1.
         21    1    1    2  506  504  0.20136273512E+03  0.35731620813E+02 -0.68696085757E+03  0.71675582987E+03  0.00000000000E+00 0. -1.
<scales pt_clust_3="111.35917" pt_clust_4="62.91578" pt_clust_5="129.89347" pt_clust_6="14000.00000"></scales>
<clustering>
<clus scale="   62.916">  1  4  2 -1</clus>
<clus scale="  111.359">  2  3  1 -1</clus>
<clus scale="  129.893">  1  5  2 -1</clus>
<clus scale="   62.916">  1  3  2 -1</clus>
</clustering>
</event>
<event>
 6    0  0.2036847E+002  0.8119344E+02  0.7546771E-02  0.1325698E+00
         21   -1    0    0  504  501  0.00000000000E+00  0.00000000000E+00  0.32465376137E+03  0.32465376137E+03  0.00000000000E+00 0. -1.
         21   -1    0    0  503  502 -0.00000000000E+00 -0.00000000000E+00 -0.58690697439E+02  0.58690697439E+02  0.00000000000E+00 0. -1.
         21    1    1    2  503  506  0.27607596440E+02 -0.17565773530E+02  0.74672503077E+01  0.33563307466E+02  0.00000000000E+00 0. -1.
         21    1    1    2  504  505  0.68522568170E+02 -0.39233218140E+02  0.15724149636E+03  0.17595305037E+03  0.00000000000E+00 0. -1.
         21    1    1    2  505  502 -0.43676894606E+02 -0.19681222907E+02  0.26754376959E+02  0.54870924395E+02  0.00000000000E+00 0. -1.
         21    1    1    2  506  501 -0.52453270004E+02  0.76480214577E+02  0.74499940301E+02  0.11895717658E+03  0.00000000000E+00 0. -1.
<scales pt_clust_3="32.72210" pt_clust_4="81.19344" pt_clust_5="43.20611" pt_clust_6="14000.00000"></scales>
<clustering>
<clus scale="   32.722">  2  3  1 -1</clus>
<clus scale="   43.206">  2  5  1 -1</clus>
<clus scale="   81.193">  1  4  2 -1</clus>
<clus scale="   81.193">  1  3  2 -1</clus>
</clustering>
</event>
<event>
 6    0  0.2036847E+002  0.6187473E+02  0.7546771E-02  0.1390129E+00
         21   -1    0    0  503  501  0.00000000000E+00  0.00000000000E+00  0.77260200990E+01  0.77260200990E+01  0.00000000000E+00 0.  1.
         21   -1    0    0  505  502 -0.00000000000E+00 -0.00000000000E+00 -0.22124044423E+04  0.22124044423E+04  0.00000000000E+00 0.  1.
         21    1    1    2  503  506  0.74137375969E+02 -0.29832500535E+02 -0.55620678853E+03  0.56191842843E+03  0.00000000000E+00 0.  1.
         21    1    1    2  504  501 -0.45067567943E+02  0.14178021093E+02 -0.39621329406E+03  0.39902014529E+03  0.00000000000E+00 0.  1.
         21    1    1    2  505  504 -0.52914662596E+02 -0.39561236898E+02 -0.83659812588E+03  0.83920288204E+03  0.00000000000E+00 0.  1.
         21    1    1    2  506  502  0.23844854570E+02  0.55215716339E+02 -0.41566021372E+03  0.41998900663E+03  0.00000000000E+00 0.  1.
<scales pt_clust_3="58.66255" pt_clust_4="47.24513" pt_clust_5="61.87473" pt_clust_6="14000.00000"></scales>
<clustering>
<clus scale="   47.245">  1  4  2 -1</clus>
<clus scale="   58.663">  1  3  2 -1</clus>
<clus scale="   61.875">  2  5  1 -1</clus>
<clus scale="   47.245">  1  3  2 -1</clus>
</clustering>
</event>
<event>
 6    0  0.2036847E+002  0.2052454E+03  0.7546771E-02  0.1145387E+00
         21   -1    0    0  505  501  0.00000000000E+00  0.00000000000E+00  0.23113321793E+03  0.23113321793E+03  0.00000000000E+00 0. -1.
         21   -1    0    0  506  502 -0.00000000000E+00 -0.00000000000E+00 -0.92534851296E+03  0.92534851296E+03  0.00000000000E+00 0.  1.
         21    1    1    2  503  501  0.99382763435E+02  0.41095764609E+02  0.55369016181E+02  0.12096083453E+03  0.00000000000E+00 0.  1.
         21    1    1    2  504  503  0.93624398295E+02 -0.40514718686E+01  0.11217877739E+03  0.14617120262E+03  0.00000000000E+00 0. -1.
         21    1    1    2  505  502 -0.47997500016E+02 -0.14714009508E+02 -0.83915510556E+02  0.97785862963E+02  0.00000000000E+00 0.  1.
         21    1    1    2  506  504 -0.14500966171E+03 -0.22330283232E+02 -0.77784757804E+03  0.79156383078E+03  0.00000000000E+00 0.  1.
<scales pt_clust_3="64.00379" pt_clust_4="64.00379" pt_clust_5="50.20221" pt_clust_6="193.55225"></scales>
<clustering>
<clus scale="   50.202">  2  5  1 -1</clus>
<clus scale="   64.004">  3  4 -1 -1</clus>
<clus scale="  193.552">  2  6  1 -1</clus>
<clus scale="  205.245">  1  3  2 -1</clus>
</clustering>
</event>
<event>
 6    0  0.2036847E+002  0.9640913E+02  0.7546771E-02  0.1288034E+00
         21   -1    0    0  505  501  0.00000000000E+00  0.00000000000E+00  0.53959202955E+03  0.53959202955E+03  0.00000000000E+00 0.  1.
         21   -1    0    0  504  502 -0.00000000000E+00 -0.00000000000E+00 -0.26580311199E+03  0.26580311199E+03  0.00000000000E+00 0.  1.
         21    1    1    2  503  502  0.61267119653E+02  0.25310555409E+00 -0.19553609563E+03  0.20490995268E+03  0.00000000000E+00 0.  1.
         21    1    1    2  504  501 -0.28693441735E+02  0.24681595360E+02  0.58821097970E+02  0.69945809843E+02  0.00000000000E+00 0.  1.
         21    1    1    2  505  506 -0.37265781137E+02 -0.10321500493E+03  0.43480558251E+03  0.44843948339E+03  0.00000000000E+00 0.  1.
         21    1    1    2  506  503  0.46921032193E+01  0.78280304016E+02 -0.24301667291E+02  0.82099895631E+02  0.00000000000E+00 0.  1.
<scales pt_clust_3="60.98614" pt_clust_4="37.84831" pt_clust_5="14000.00000" pt_clust_6="96.40913"></scales>
<clustering>
<clus scale="   37.848">  1  4  2 -1</clus>
<clus scale="   60.986">  2  3  1 -1</clus>
<clus scale="   96.409">  2  6  1 -1</clus>
<clus scale="   37.848">  1  3  2 -1</clus>
</clustering>
</event>
<event>
 6    0  0.2036847E+002  0.1412407E+03  0.7546771E-02  0.1211669E+00
         21   -1    0    0  505  501  0.00000000000E+00  0.00000000000E+00  0.11126604051E+03  0.11126604051E+03  0.00000000000E+00 0.  1.
         21   -1    0    0  503  502 -0.00000000000E+00 -0.00000000000E+00 -0.46043753381E+03  0.46043753381E+03  0.00000000000E+00 0.  1.
         21    1    1    2  503  501 -0.80698426551E+01 -0.32211499228E+02 -0.16295680823E+03  0.16630581587E+03  0.00000000000E+00 0.  1.
         21    1    1    2  504  502  0.36896031025E+02 -0.10605832669E+03 -0.22695332719E+03  0.25321433311E+03  0.00000000000E+00 0.  1.
         21    1    1    2  505  506 -0.36866223365E+02  0.84368825056E+02  0.23479902327E+02  0.95018539663E+02  0.00000000000E+00 0.  1.
         21    1    1    2  506  504  0.80400349950E+01  0.53901000863E+02  0.17258739790E+02  0.57164885689E+02  0.00000000000E+00 0.  1.
<scales pt_clust_3="33.20697" pt_clust_4="135.64022" pt_clust_5="30.29585" pt_clust_6="30.29585"></scales>
<clustering>
<clus scale="   30.296">  5  6 -1 -1</clus>
<clus scale="   33.207">  2  3  1 -1</clus>
<clus scale="  135.640">  2  4  1 -1</clus>
<clus scale="  141.241">  1  3  2 -1</clus>
</clustering>
</event>
<event>
 6    0  0.2036847E+002  0.1606157E+03  0.7546771E-02  0.1188003E+00
         21   -1    0    0  506  501  0.00000000000E+00  0.00000000000E+00  0.14403588868E+04  0.14403588868E+04  0.00000000000E+00 0. -1.
         21   -1    0    0  504  502 -0.00000000000E+00 -0.00000000000E+00 -0.18089488563E+03  0.18089488563E+03  0.00000000000E+00 0.  1.
         21    1    1    2  503  502  0.24862450555E+02 -0.65276514704E+02  0.11254086767E+02  0.70751814736E+02  0.00000000000E+00 0.  1.
         21    1    1    2  504  505 -0.32692359370E+02  0.43911575942E+02  0.66466851836E+03  0.66691922762E+03  0.00000000000E+00 0. -1.
         21    1    1    2  505  501 -0.69657564906E+02  0.75090224755E+02  0.71472585978E+03  0.72202754299E+03  0.00000000000E+00 0.  1.
         21    1    1    2  506  503  0.77487473720E+02 -0.53725285994E+02 -0.13118446375E+03  0.16155518707E+03  0.00000000000E+00 0.  1.
<scales pt_clust_3="69.85102" pt_clust_4="31.08076" pt_clust_5="31.08076" pt_clust_6="154.88721"></scales>
<clustering>
<clus scale="   31.081">  4  5 -1 -1</clus>
<clus scale="   69.851">  2  3  1 -1</clus>
<clus scale="  154.887">  2  6  1 -1</clus>
<clus scale="  160.616">  1  3  2 -1</clus>
</clustering>
</event>
<event>
 6    0  0.2438523E+002  0.1155999E+03  0.7546771E-02  0.1250538E+00
         21   -1    0    0  504  501  0.00000000000E+00  0.00000000000E+00  0.76150951750E+03  0.76150951750E+03  0.00000000000E+00 0.  1.
         21   -1    0    0  505  502 -0.00000000000E+00 -0.00000000000E+00 -0.18386357617E+03  0.18386357617E+03  0.00000000000E+00 0.  1.
         21    1    1    2  503  501 -0.22726109552E+02 -0.66487755125E+02 -0.60488110048E+02  0.92714125645E+02  0.00000000000E+00 0.  1.
         21    1    1    2  504  506  0.46869809257E+02  0.55283070432E+01  0.67325053269E+02  0.82219243466E+02  0.00000000000E+00 0.  1.
         21    1    1    2  505  503  0.69825877675E+00 -0.35947518329E+02 -0.92701535319E+02  0.99429805843E+02  0.00000000000E+00 0.  1.
         21    1    1    2  506  502 -0.24841958482E+02  0.96906966411E+02  0.66351053343E+03  0.67100991871E+03  0.00000000000E+00 0.  1.
<scales pt_clust_3="35.58020" pt_clust_4="47.19472" pt_clust_5="35.58020" pt_clust_6="104.35189"></scales>
<clustering>
<clus scale="   35.580">  3  5 -1 -1</clus>
<clus scale="   47.195">  1  4  2 -1</clus>
<clus scale="  104.352">  1  6  2 -1</clus>
<clus scale="   47.195">  1  3  2 -1</clus>
</clustering>
</event>
<event>
 6    0  0.2036847E+002  0.9632645E+02  0.7546771E-02  0.1288216E+00
         21   -1    0    0  504  501  0.00000000000E+00  0.00000000000E+00  0.12808835213E+04  0.12808835213E+04  0.00000000000E+00 0.  1.
         21   -1    0    0  503  502 -0.00000000000E+00 -0.00000000000E+00 -0.37867236658E+03  0.37867236658E+03  0.00000000000E+00 0.  1.
         21    1    1    2  503  505 -0.31410911465E+02 -0.12217541696E+02 -0.28631781610E+02  0.44223213387E+02  0.00000000000E+00 0. -1.
         21    1    1    2  504  506  0.13757414921E+03 -0.32952370957E+01  0.23580305726E+03  0.27302122066E+03  0.00000000000E+00 0.  1.
         21    1    1    2  505  501 -0.53142711207E+02 -0.42448855296E+02  0.10127514175E+04  0.10150327516E+04  0.00000000000E+00 0.  1.
         21    1    1    2  506  502 -0.53020526541E+02  0.57961634087E+02 -0.31771153848E+03  0.32727870224E+03  0.00000000000E+00 0.  1.
<scales pt_clust_3="33.70332" pt_clust_4="96.32645" pt_clust_5="68.12231" pt_clust_6="14000.00000"></scales>
<clustering>
<clus scale="   33.703">  2  3  1 -1</clus>
<clus scale="   68.122">  1  5  2 -1</clus>
<clus scale="   96.326">  1  4  2 -1</clus>
<clus scale="   68.122">  1  3  2 -1</clus>
</clustering>
</event>
<event>
 6    0  0.2036847E+002  0.2821233E+03  0.7546771E-02  0.1094535E+00
         21   -1    0    0  506  501  0.00000000000E+00  0.00000000000E+00  0.11753209677E+04  0.11753209677E+04  0.00000000000E+00 0.  1.
         21   -1    0    0  504  502 -0.00000000000E+00 -0.00000000000E+00 -0.11903891217E+03  0.11903891217E+03  0.00000000000E+00 0.  1.
         21    1    1    2  503  505 -0.62074885104E+02 -0.18391760451E+02  0.24179878130E+03  0.25031619774E+03  0.00000000000E+00 0.  1.
         21    1    1    2  504  503 -0.23551701621E+03  0.28623986311E+01  0.33401159902E+03  0.40870552545E+03  0.00000000000E+00 0.  1.
         21    1    1    2  505  501 -0.28266003127E+02  0.16423681608E+02  0.20805831095E+03  0.21061093278E+03  0.00000000000E+00 0.  1.
         21    1    1    2  506  502  0.32585790445E+03 -0.89431978822E+00  0.27241336425E+03  0.42472722390E+03  0.00000000000E+00 0.  1.
<scales pt_clust_3="100.41124" pt_clust_4="14000.00000" pt_clust_5="31.11282" pt_clust_6="282.12331"></scales>
<clustering>
<clus scale="   31.113">  3  5 -1 -1</clus>
<clus scale="  100.411">  1  3  2 -1</clus>
<clus scale="  282.123">  2  6  1 -1</clus>
<clus scale="  100.411">  1  3  2 -1</clus>
</clustering>
</event>
<event>
 6    0  0.2036847E+002  0.2276283E+03  0.7546771E-02  0.1128320E+00
         21   -1    0    0  506  501  0.00000000000E+00  0.00000000000E+00  0.10504996004E+03  0.10504996004E+03  0.00000000000E+00 0.  1.
         21   -1    0    0  504  502 -0.00000000000E+00 -0.00000000000E+00 -0.75433453360E+03  0.75433453360E+03  0.00000000000E+00 0.  1.
         21    1    1    2  503  501 -0.31554308421E+02 -0.67955828086E+02 -0.86175735259E+02  0.11419249668E+03  0.00000000000E+00 0. -1.
         21    1    1    2  504  503  0.11322855242E+03 -0.16212176707E+03 -0.37453632416E+03  0.42353468637E+03  0.00000000000E+00 0.  1.
         21    1    1    2  505  502 -0.38336847475E+02  0.66881528605E+02 -0.11269595388E+03  0.13654021666E+03  0.00000000000E+00 0.  1.
         21    1    1    2  506  505 -0.43337396521E+02  0.16319606655E+03 -0.75876560255E+02  0.18511709394E+03  0.00000000000E+00 0.  1.
<scales pt_clust_3="74.92442" pt_clust_4="208.60769" pt_clust_5="61.54852" pt_clust_6="61.54852"></scales>
<clustering>
<clus scale="   61.549">  5  6 -1 -1</clus>
<clus scale="   74.924">  1  3  2 -1</clus>
<clus scale="  208.608">  2  4  1 -1</clus>
<clus scale="   74.924">  1  3  2 -1</clus>
</clustering>
</event>
<event>
 6    0  0.2036847E+002  0.1908673E+03  0.7546771E-02  0.1157681E+00
         21   -1    0    0  504  501  0.00000000000E+00  0.00000000000E+00  0.14338038205E+03  0.14338038205E+03  0.00000000000E+00 0. -1.
         21   -1    0    0  501  502 -0.00000000000E+00 -0.00000000000E+00 -0.92972597138E+03  0.92972597138E+03  0.00000000000E+00 0.  1.
         21    1    1    2  503  505 -0.11934087015E+03 -0.96969718076E+02 -0.21828177805E+02  0.15531206926E+03  0.00000000000E+00 0. -1.
         21    1    1    2  504  503 -0.68622715801E+02  0.11820396427E+03 -0.10561494342E+02  0.13708683181E+03  0.00000000000E+00 0. -1.
         21    1    1    2  505  506  0.42900138535E+02 -0.35220932526E+02 -0.25092234167E+03  0.25698824394E+03  0.00000000000E+00 0.  1.
         21    1    1    2  506  502  0.14506344742E+03  0.13986686330E+02 -0.50303357551E+03  0.52371920841E+03  0.00000000000E+00 0.  1.
<scales pt_clust_3="176.51330" pt_clust_4="136.67939" pt_clust_5="44.81592" pt_clust_6="44.81592"></scales>
<clustering>
<clus scale="   44.816">  5  6 -1 -1</clus>
<clus scale="  136.679">  1  4  2 -1</clus>
<clus scale="  176.513">  1  3  2 -1</clus>
<clus scale="  136.679">  1  3  2 -1</clus>
</clustering>
</event>
<event>
 6    0  0.2036847E+002  0.1164346E+03  0.7546771E-02  0.1249097E+00
         21   -1    0    0  505  501  0.00000000000E+00  0.00000000000E+00  0.30186465818E+03  0.30186465818E+03  0.00000000000E+00 0.  1.
         21   -1    0    0  506  502 -0.00000000000E+00 -0.00000000000E+00 -0.35694136542E+03  0.35694136542E+03  0.00000000000E+00 0.  1.
         21    1    1    2  503  502 -0.52305300930E+02 -0.18107293826E+02 -0.11357253725E+03  0.12634254949E+03  0.00000000000E+00 0.  1.
         21    1    1    2  504  503 -0.33125267078E+02 -0.48610963185E+02 -0.20065819278E+03  0.20910289187E+03  0.00000000000E+00 0.  1.
         21    1    1    2  505  504  0.58793479408E+02 -0.34785668568E+02  0.37051835183E+02  0.77714570378E+02  0.00000000000E+00 0.  1.
         21    1    1    2  506  501  0.26637088600E+02  0.10150392558E+03  0.22210218761E+03  0.24564601185E+03  0.00000000000E+00 0.  1.
<scales pt_clust_3="43.73716" pt_clust_4="43.73716" pt_clust_5="68.31337" pt_clust_6="107.35006"></scales>
<clustering>
<clus scale="   43.737">  3  4 -1 -1</clus>
<clus scale="   68.313">  1  5  2 -1</clus>
<clus scale="  107.350">  1  6  2 -1</clus>
<clus scale="   68.313">  1  3  2 -1</clus>
</clustering>
</event>
<event>
 6    0  0.2036847E+002  0.1953088E+03  0.7546771E-02  0.1153758E+00
         21   -1    0    0  502  501  0.00000000000E+00  0.00000000000E+00  0.78088525736E+03  0.78088525736E+03  0.00000000000E+00 0.  1.
         21   -1    0    0  503  502 -0.00000000000E+00 -0.00000000000E+00 -0.88110133914E+02  0.88110133914E+02  0.00000000000E+00 0.  1.
         21    1    1    2  503  506 -0.17307792137E+02 -0.12167149327E+03  0.25878617097E+02  0.12559145977E+03  0.00000000000E+00 0.  1.
         21    1    1    2  504  501 -0.30463002156E+02  0.28606955094E+02  0.74821745785E+02  0.85700910278E+02  0.00000000000E+00 0. -1.
         21    1    1    2  505  504  0.60783983197E+02  0.16449742508E+03  0.54157268327E+03  0.56925834797E+03  0.00000000000E+00 0.  1.
         21    1    1    2  506  505 -0.13013188904E+02 -0.71432886906E+02  0.50502077296E+02  0.88444673262E+02  0.00000000000E+00 0.  1.
<scales pt_clust_3="32.32681" pt_clust_4="41.78938" pt_clust_5="190.72686" pt_clust_6="32.32681"></scales>
<clustering>
<clus scale="   32.327">  3  6 -1 -1</clus>
<clus scale="   41.789">  1  4  2 -1</clus>
<clus scale="  190.727">  1  5  2 -1</clus>
<clus scale="   41.789">  1  3  2 -1</clus>
</clustering>
</event>
<event>
 6    0  0.2036847E+002  0.1629868E+03  0.7546771E-02  0.1185365E+00
         21   -1    0    0  506  501  0.00000000000E+00  0.00000000000E+00  0.33661971782E+03  0.33661971782E+03  0.00000000000E+00 0. -1.
         21   -1    0    0  505  502 -0.00000000000E+00 -0.00000000000E+00 -0.10988250106E+04  0.10988250106E+04  0.00000000000E+00 0. -1.
         21    1    1    2  503  501  0.50593308086E+02  0.49868467595E+02 -0.44116132689E+02  0.83622844049E+02  0.00000000000E+00 0.  1.
         21    1    1    2  504  502  0.85699700105E+02 -0.38842904304E+02  0.23754025248E+03  0.25549673454E+03  0.00000000000E+00 0. -1.
         21    1    1    2  505  503 -0.16162717852E+03 -0.34905753461E+02 -0.10145234508E+04  0.10279103019E+04  0.00000000000E+00 0. -1.
         21    1    1    2  506  504  0.25334170333E+02  0.23880190170E+02  0.58894038287E+02  0.68414847911E+02  0.00000000000E+00 0. -1.
<scales pt_clust_3="73.55786" pt_clust_4="14000.00000" pt_clust_5="162.98679" pt_clust_6="34.81499"></scales>
<clustering>
<clus scale="   34.815">  1  6  2 -1</clus>
<clus scale="   73.558">  1  3  2 -1</clus>
<clus scale="  162.987">  2  5  1 -1</clus>
<clus scale="   34.815">  1  3  2 -1</clus>
</clustering>
</event>
<event>
 6    0  0.2036847E+002  0.5094128E+02  0.7546771E-02  0.1440330E+00
         21   -1    0    0  505  501  0.00000000000E+00  0.00000000000E+00  0.23083078319E+03  0.23083078319E+03  0.00000000000E+00 0. -1.
         21   -1    0    0  506  502 -0.00000000000E+00 -0.00000000000E+00 -0.96529054915E+03  0.96529054915E+03  0.00000000000E+00 0. -1.
         21    1    1    2  503  502 -0.65633960943E+02  0.59601272898E+02 -0.80251313341E+03  0.80739547798E+03  0.00000000000E+00 0. -1.
         21    1    1    2  504  501  0.27096413415E+02 -0.85870495774E+02  0.19826005167E+03  0.21774986969E+03  0.00000000000E+00 0. -1.
         21    1    1    2  505  503  0.47627151352E+01  0.50028320079E+02 -0.21445077828E+02  0.54638883850E+02  0.00000000000E+00 0. -1.
         21    1    1    2  506  504  0.33774832393E+02 -0.23759097203E+02 -0.10876160638E+03  0.11633710081E+03  0.00000000000E+00 0. -1.
<scales pt_clust_3="50.94128" pt_clust_4="14000.00000" pt_clust_5="49.36810" pt_clust_6="41.29448"></scales>
<clustering>
<clus scale="   41.294">  2  6  1 -1</clus>
<clus scale="   49.368">  1  5  2 -1</clus>
<clus scale="   50.941">  2  3  1 -1</clus>
<clus scale="   49.368">  1  3  2 -1</clus>
</clustering>
</event>
<event>
 6    0  0.2036847E+002  0.1121805E+03  0.7546771E-02  0.1256584E+00
         21   -1    0    0  504  501  0.00000000000E+00  0.00000000000E+00  0.38347403737E+03  0.38347403737E+03  0.00000000000E+00 0. -1.
         21   -1    0    0  505  502 -0.00000000000E+00 -0.00000000000E+00 -0.86478917889E+03  0.86478917889E+03  0.00000000000E+00 0.  1.
         21    1    1    2  503  506  0.73395111749E+02  0.30330275969E+02  0.59922197976E+02  0.99485867737E+02  0.00000000000E+00 0.  1.
         21    1    1    2  504  503 -0.14340014840E+03 -0.10363947033E+02  0.27574136221E+03  0.31097317053E+03  0.00000000000E+00 0. -1.
         21    1    1    2  505  501 -0.18209617215E+02  0.30051139775E+02 -0.36132363354E+02  0.50400484546E+02  0.00000000000E+00 0.  1.
         21    1    1    2  506  502  0.88214653863E+02 -0.50017468711E+02 -0.78084633835E+03  0.78740369344E+03  0.00000000000E+00 0.  1.
<scales pt_clust_3="14000.00000" pt_clust_4="112.18046" pt_clust_5="35.13775" pt_clust_6="73.97707"></scales>
<clustering>
<clus scale="   35.138">  2  5  1 -1</clus>
<clus scale="   73.977">  2  6  1 -1</clus>
<clus scale="  112.180">  1  4  2 -1</clus>
<clus scale="  112.180">  1  3  2 -1</clus>
</clustering>
</event>
<event>
 6    0  0.2036847E+002  0.1196805E+03  0.7546771E-02  0.1243625E+00
         21   -1    0    0  503  501  0.00000000000E+00  0.00000000000E+00  0.11404231540E+03  0.11404231540E+03  0.00000000000E+00 0.  1.
         21   -1    0    0  505  502 -0.00000000000E+00 -0.00000000000E+00 -0.39617249348E+03  0.39617249348E+03  0.00000000000E+00 0.  1.
         21    1    1    2  503  504 -0.52206776226E+02 -0.94048242810E+02 -0.41753357928E+02  0.11538614457E+03  0.00000000000E+00 0.  1.
         21    1    1    2  504  502 -0.51124168622E+02 -0.36443901111E+02 -0.16455799462E+03  0.17612828319E+03  0.00000000000E+00 0.  1.
         21    1    1    2  505  506  0.31077762630E+02  0.23007155414E+02 -0.80284248570E+02  0.89110701370E+02  0.00000000000E+00 0. -1.
         21    1    1    2  506  501  0.72253182218E+02  0.10748498851E+03  0.44654230342E+01  0.12958967975E+03  0.00000000000E+00 0.  1.
<scales pt_clust_3="119.68049" pt_clust_4="41.64241" pt_clust_5="38.66725" pt_clust_6="14000.00000"></scales>
<clustering>
<clus scale="   38.667">  2  5  1 -1</clus>
<clus scale="   41.642">  2  4  1 -1</clus>
<clus scale="  119.680">  2  3  1 -1</clus>
<clus scale="  119.680">  1  3  2 -1</clus>
</clustering>
</event>
<event>
 6    0  0.2067773E+002  0.1117613E+03  0.7546771E-02  0.1257343E+00
         21   -1    0    0  506  501  0.00000000000E+00  0.00000000000E+00  0.74228234013E+03  0.74228234013E+03  0.00000000000E+00 0.  1.
         21   -1    0    0  504  502 -0.00000000000E+00 -0.00000000000E+00 -0.59631389072E+03  0.59631389072E+03  0.00000000000E+00 0. -1.
         21    1    1    2  503  501  0.27898169417E+01  0.34968281611E+02  0.10141906277E+02  0.36516052091E+02  0.00000000000E+00 0.  1.
         21    1    1    2  504  503 -0.16873747102E+02 -0.15628789685E+03 -0.49912425484E+03  0.52329308405E+03  0.00000000000E+00 0. -1.
         21    1    1    2  505  502 -0.45246559162E+02  0.62799430280E+02 -0.47798360055E+02  0.90970889758E+02  0.00000000000E+00 0.  1.
         21    1    1    2  506  505  0.59330489323E+02  0.58520184960E+02  0.68274915803E+03  0.68781620495E+03  0.00000000000E+00 0.  1.
<scales pt_clust_3="35.07939" pt_clust_4="111.76129" pt_clust_5="78.20752" pt_clust_6="14000.00000"></scales>
<clustering>
<clus scale="   35.079">  1  3  2 -1</clus>
<clus scale="   78.208">  2  5  1 -1</clus>
<clus scale="  111.761">  2  4  1 -1</clus>
<clus scale="   35.079">  1  3  2 -1</clus>
</clustering>
</event>
<event>
 6    0  0.2036847E+002  0.1495512E+03  0.7546771E-02  0.1201026E+00
         21   -1    0    0  504  501  0.00000000000E+00  0.00000000000E+00  0.11722369549E+04  0.11722369549E+04  0.00000000000E+00 0.  1.
         21   -1    0    0  506  502 -0.00000000000E+00 -0.00000000000E+00 -0.10249760751E+03  0.10249760751E+03  0.00000000000E+00 0.  1.
         21    1    1    2  503  505 -0.23312664674E+02 -0.43627715209E+02  0.11018293680E+02  0.50678009670E+02  0.00000000000E+00 0.  1.
         21    1    1    2  504  502  0.60753456655E+02  0.16738352441E+03  0.96658902020E+03  0.98285429272E+03  0.00000000000E+00 0.  1.
         21    1    1    2  505  501 -0.35706471208E+02 -0.32750967097E+02  0.13290843090E+03  0.14146458545E+03  0.00000000000E+00 0.  1.
         21    1    1    2  506  503 -0.17343207740E+01 -0.91004842106E+02 -0.40776397354E+02  0.99737674610E+02  0.00000000000E+00 0.  1.
<scales pt_clust_3="40.28371" pt_clust_4="139.21032" pt_clust_5="48.45181" pt_clust_6="40.28371"></scales>
<clustering>
<clus scale="   40.284">  3  6 -1 -1</clus>
<clus scale="   48.452">  1  5  2 -1</clus>
<clus scale="  139.210">  1  4  2 -1</clus>
<clus scale="   48.452">  1  3  2 -1</clus>
</clustering>
</event>
<event>
 6    0  0.2036847E+002  0.1673380E+03  0.7546771E-02  0.1180653E+00
         21   -1    0    0  506  501  0.00000000000E+00  0.00000000000E+00  0.11436559293E+03  0.11436559293E+03  0.00000000000E+00 0.  1.
         21   -1    0    0  504  502 -0.00000000000E+00 -0.00000000000E+00 -0.43310293045E+03  0.43310293045E+03  0.00000000000E+00 0.  1.
         21    1    1    2  503  502 -0.92088068964E+02 -0.56532487332E+02 -0.16614734446E+03  0.19819453736E+03  0.00000000000E+00 0.  1.
         21    1    1    2  504  505  0.21434061824E+02  0.36080499864E+02  0.22194231996E+02  0.47474260506E+02  0.00000000000E+00 0.  1.
         21    1    1    2  505  501  0.11436977528E+03  0.40217545961E+02 -0.71193457468E+00  0.12123697188E+03  0.00000000000E+00 0.  1.
         21    1    1    2  506  503 -0.43715768136E+02 -0.19765558494E+02 -0.17407229048E+03  0.18056275363E+03  0.00000000000E+00 0.  1.
<scales pt_clust_3="166.45626" pt_clust_4="35.97117" pt_clust_5="35.97117" pt_clust_6="39.10179"></scales>
<clustering>
<clus scale="   35.971">  4  5 -1 -1</clus>
<clus scale="   39.102">  3  6 -1 -1</clus>
<clus scale="  166.456">  2  3  1 -1</clus>
<clus scale="  167.338">  1  3  2 -1</clus>
</clustering>
</event>
<event>
 6    0  0.2036847E+002  0.8625866E+02  0.7546771E-02  0.1312173E+00
         21   -1    0    0  505  501  0.00000000000E+00  0.00000000000E+00  0.33163761396E+03  0.33163761396E+03  0.00000000000E+00 0. -1.
         21   -1    0    0  504  502 -0.00000000000E+00 -0.00000000000E+00 -0.61361151498E+02  0.61361151498E+02  0.00000000000E+00 0.  1.
         21    1    1    2  503  501  0.23719434695E+02  0.82703275475E+02  0.56618591748E+02  0.10299567121E+03  0.00000000000E+00 0.  1.
         21    1    1    2  504  503  0.38266473703E+02  0.85325575505E+01  0.11907206450E+02  0.40974493449E+02  0.00000000000E+00 0.  1.
         21    1    1    2  505  506 -0.50614972109E+01 -0.86965951471E+02  0.14038631964E+03  0.16521808076E+03  0.00000000000E+00 0. -1.
         21    1    1    2  506  502 -0.56924411187E+02 -0.42698815544E+01  0.61364344630E+02  0.83810520040E+02  0.00000000000E+00 0.  1.
<scales pt_clust_3="86.25866" pt_clust_4="39.20622" pt_clust_5="14000.00000" pt_clust_6="47.80494"></scales>
<clustering>
<clus scale="   39.206">  2  4  1 -1</clus>
<clus scale="   47.805">  2  6  1 -1</clus>
<clus scale="   86.259">  2  3  1 -1</clus>
<clus scale="   86.259">  1  3  2 -1</clus>
</clustering>
</event>
<event>
 6    0  0.2036847E+002  0.1280677E+03  0.7546771E-02  0.1230351E+00
         21   -1    0    0  503  501  0.00000000000E+00  0.00000000000E+00  0.59638801257E+02  0.59638801257E+02  0.00000000000E+00 0.  1.
         21   -1    0    0  505  502 -0.00000000000E+00 -0.00000000000E+00 -0.20579491447E+04  0.20579491447E+04  0.00000000000E+00 0.  1.
         21    1    1    2  503  506 -0.73403949161E+02 -0.19343935035E+02  0.46722844024E+01  0.76053650909E+02  0.00000000000E+00 0.  1.
         21    1    1    2  504  501  0.92794886838E+02 -0.36437891226E+01 -0.13993083577E+04  0.14023865545E+04  0.00000000000E+00 0.  1.
         21    1    1    2  505  504  0.18023851218E+02  0.56581837060E+02 -0.58093406537E+03  0.58396125883E+03  0.00000000000E+00 0.  1.
         21    1    1    2  506  502 -0.37414788895E+02 -0.33594112902E+02 -0.22740204685E+02  0.55186481668E+02  0.00000000000E+00 0.  1.
<scales pt_clust_3="34.66706" pt_clust_4="120.77681" pt_clust_5="59.38319" pt_clust_6="34.66706"></scales>
<clustering>
<clus scale="   34.667">  3  6 -1 -1</clus>
<clus scale="   59.383">  2  5  1 -1</clus>
<clus scale="  120.777">  2  4  1 -1</clus>
<clus scale="  128.068">  1  3  2 -1</clus>
</clustering>
</event>
<event>
 6    0  0.2036847E+002  0.8507898E+02  0.7546771E-02  0.1315226E+00
         21   -1    0    0  506  501  0.00000000000E+00  0.00000000000E+00  0.51209510649E+03  0.51209510649E+03  0.00000000000E+00 0.  1.
         21   -1    0    0  505  502 -0.00000000000E+00 -0.00000000000E+00 -0.10311820636E+03  0.10311820636E+03  0.00000000000E+00 0.  1.
         21    1    1    2  503  504  0.85059389206E+01 -0.47377279669E+02 -0.19480180167E+02  0.51927209102E+02  0.00000000000E+00 0.  1.
         21    1    1    2  504  501  0.92383527486E+02  0.19056385133E+02  0.19705669391E+03  0.21847014116E+03  0.00000000000E+00 0.  1.
         21    1    1    2  505  503 -0.26007195309E+02 -0.22955451643E+02 -0.43317387405E+02  0.55495252225E+02  0.00000000000E+00 0.  1.
         21    1    1    2  506  502 -0.74882271098E+02  0.51276346179E+02  0.27471777379E+03  0.28932071035E+03  0.00000000000E+00 0.  1.
<scales pt_clust_3="63.24898" pt_clust_4="14000.00000" pt_clust_5="34.68900" pt_clust_6="85.07898"></scales>
<clustering>
<clus scale="   34.689">  2  5  1 -1</clus>
<clus scale="   63.249">  2  3  1 -1</clus>
<clus scale="   85.079">  1  6  2 -1</clus>
<clus scale="   85.079">  1  3  2 -1</clus>
</clustering>
</event>
<event>
 6    0  0.2036847E+002  0.9283751E+02  0.7546771E-02  0.1296122E+00
         21   -1    0    0  504  501  0.00000000000E+00  0.00000000000E+00  0.93387263414E+03  0.93387263414E+03  0.00000000000E+00 0.  1.
         21   -1    0    0  503  502 -0.00000000000E+00 -0.00000000000E+00 -0.65079763136E+02  0.65079763136E+02  0.00000000000E+00 0. -1.
         21    1    1    2  503  501 -0.14928284911E+02 -0.95915262547E+02  0.66644910027E+03  0.67348125032E+03  0.00000000000E+00 0.  1.
         21    1    1    2  504  505 -0.77720877740E+02  0.45128627498E+02  0.17085770370E+03  0.19305305688E+03  0.00000000000E+00 0.  1.
         21    1    1    2  505  506  0.76505202860E+02  0.21426822385E+01  0.26190180384E+02  0.80892290735E+02  0.00000000000E+00 0. -1.
         21    1    1    2  506  502  0.16143959791E+02  0.48643952810E+02  0.52958866514E+01  0.51525799345E+02  0.00000000000E+00 0.  1.
<scales pt_clust_3="92.83751" pt_clust_4="82.55251" pt_clust_5="14000.00000" pt_clust_6="51.25292"></scales>
<clustering>
<clus scale="   51.253">  2  6  1 -1</clus>
<clus scale="   92.838">  1  3  2 -1</clus>
<clus scale="   82.553">  1  4  2 -1</clus>
<clus scale="   92.838">  1  3  2 -1</clus>
</clustering>
</event>
<event>
 6    0  0.2036847E+002  0.2964996E+03  0.7546771E-02  0.1087004E+00
         21   -1    0    0  504  501  0.00000000000E+00  0.00000000000E+00  0.28840413111E+04  0.28840413111E+04  0.00000000000E+00 0.  1.
         21   -1    0    0  505  502 -0.00000000000E+00 -0.00000000000E+00 -0.13802516892E+03  0.13802516892E+03  0.00000000000E+00 0.  1.
         21    1    1    2  503  501 -0.10636971415E+03 -0.18516106359E+03  0.20315660066E+04  0.20427578355E+04  0.00000000000E+00 0.  1.
         21    1    1    2  504  506  0.16678678186E+03  0.83352124368E+02  0.37330618602E+02  0.19015515329E+03  0.00000000000E+00 0.  1.
         21    1    1    2  505  503 -0.44493897374E+02 -0.81348047841E+02  0.56767033948E+03  0.57519285993E+03  0.00000000000E+00 0.  1.
         21    1    1    2  506  502 -0.15923170337E+02  0.18315698707E+03  0.10944917750E+03  0.21396063124E+03  0.00000000000E+00 0.  1.
<scales pt_clust_3="40.88298" pt_clust_4="289.93566" pt_clust_5="40.88298" pt_clust_6="183.84784"></scales>
<clustering>
<clus scale="   40.883">  3  5 -1 -1</clus>
<clus scale="  183.848">  2  6  1 -1</clus>
<clus scale="  289.936">  2  4  1 -1</clus>
<clus scale="  296.500">  1  3  2 -1</clus>
</clustering>
</event>
<event>
 6    0  0.2036847E+002  0.1142112E+03  0.7546771E-02  0.1252964E+00
         21   -1    0    0  505  501  0.00000000000E+00  0.00000000000E+00  0.18145862696E+03  0.18145862696E+03  0.00000000000E+00 0. -1.
         21   -1    0    0  506  502 -0.00000000000E+00 -0.00000000000E+00 -0.53247872354E+03  0.53247872354E+03  0.00000000000E+00 0.  1.
         21    1    1    2  503  502  0.54199813389E+02  0.31361922761E+02 -0.14570611619E+03  0.15859212548E+03  0.00000000000E+00 0.  1.
         21    1    1    2  504  501 -0.29105307916E+02 -0.93674323905E+01  0.68754209190E+01  0.31339099401E+02  0.00000000000E+00 0.  1.
         21    1    1    2  505  503  0.13383690234E+01  0.75360403117E+02 -0.34730274348E+03  0.35538736221E+03  0.00000000000E+00 0.  1.
         21    1    1    2  506  504 -0.26432874496E+02 -0.97354893487E+02  0.13511334216E+03  0.16861876340E+03  0.00000000000E+00 0. -1.
<scales pt_clust_3="61.43400" pt_clust_4="30.57561" pt_clust_5="14000.00000" pt_clust_6="114.21124"></scales>
<clustering>
<clus scale="   30.576">  1  4  2 -1</clus>
<clus scale="   61.434">  2  3  1 -1</clus>
<clus scale="  114.211">  1  6  2 -1</clus>
<clus scale="   30.576">  1  3  2 -1</clus>
</clustering>
</event>
<event>
 6    0  0.2036847E+002  0.1876170E+03  0.7546771E-02  0.1160628E+00
         21   -1    0    0  505  501  0.00000000000E+00  0.00000000000E+00  0.23362128060E+03  0.23362128060E+03  0.00000000000E+00 0. -1.
         21   -1    0    0  501  502 -0.00000000000E+00 -0.00000000000E+00 -0.27390166469E+04  0.27390166469E+04  0.00000000000E+00 0. -1.
         21    1    1    2  503  506 -0.14089558963E+03 -0.27176588072E+02 -0.17152768840E+04  0.17212684052E+04  0.00000000000E+00 0. -1.
         21    1    1    2  504  503  0.14493695334E+03  0.22796846200E+02  0.19288227263E+03  0.24234270720E+03  0.00000000000E+00 0. -1.
         21    1    1    2  505  504  0.27010920081E+02  0.16514293019E+02 -0.69580713987E+01  0.32414910691E+02  0.00000000000E+00 0.  1.
         21    1    1    2  506  502 -0.31052283789E+02 -0.12134551147E+02 -0.97604268355E+03  0.97661190438E+03  0.00000000000E+00 0.  1.
<scales pt_clust_3="31.40777" pt_clust_4="175.93871" pt_clust_5="31.65931" pt_clust_6="31.40777"></scales>
<clustering>
<clus scale="   31.408">  3  6 -1 -1</clus>
<clus scale="   31.659">  1  5  2 -1</clus>
<clus scale="  175.939">  1  4  2 -1</clus>
<clus scale="   31.659">  1  3  2 -1</clus>
</clustering>
</event>
<event>
 6    0  0.2036847E+002  0.1986404E+03  0.7546771E-02  0.1150891E+00
         21   -1    0    0  506  501  0.00000000000E+00  0.00000000000E+00  0.57813667424E+03  0.57813667424E+03  0.00000000000E+00 0. -1.
         21   -1    0    0  503  502 -0.00000000000E+00 -0.00000000000E+00 -0.79732496563E+03  0.79732496563E+03  0.00000000000E+00 0. -1.
         21    1    1    2  503  505  0.10364613870E+03 -0.65104223373E+02 -0.58677125674E+03  0.59940102578E+03  0.00000000000E+00 0. -1.
         21    1    1    2  504  501 -0.22180250119E+02  0.33571566572E+02  0.24945268904E+02  0.47342158993E+02  0.00000000000E+00 0. -1.
         21    1    1    2  505  504  0.39845620163E+02 -0.56276375541E+02 -0.17592965284E+03  0.18896017210E+03  0.00000000000E+00 0. -1.
         21    1    1    2  506  502 -0.12131150875E+03  0.87809032342E+02  0.51856734929E+03  0.53975828299E+03  0.00000000000E+00 0. -1.
<scales pt_clust_3="50.13566" pt_clust_4="40.23697" pt_clust_5="50.13566" pt_clust_6="187.03057"></scales>
<clustering>
<clus scale="   40.237">  1  4  2 -1</clus>
<clus scale="   50.136">  3  5 -1 -1</clus>
<clus scale="  187.031">  1  6  2 -1</clus>
<clus scale="   40.237">  1  3  2 -1</clus>
</clustering>
</event>
<event>
 6    0  0.2036847E+002  0.2032223E+03  0.7546771E-02  0.1147048E+00
         21   -1    0    0  503  501  0.00000000000E+00  0.00000000000E+00  0.20663358544E+04  0.20663358544E+04  0.00000000000E+00 0.  1.
         21   -1    0    0  504  502 -0.00000000000E+00 -0.00000000000E+00 -0.21956880092E+03  0.21956880092E+03  0.00000000000E+00 0. -1.
         21    1    1    2  503  506 -0.34400628812E+02  0.62915081819E+02  0.10637253143E+04  0.10661394163E+04  0.00000000000E+00 0.  1.
         21    1    1    2  504  501  0.55106653884E+02 -0.10913099025E+03 -0.16285471043E+03  0.20363686563E+03  0.00000000000E+00 0. -1.
         21    1    1    2  505  502 -0.27730618359E+02 -0.10852514698E+03  0.82930743441E+02  0.13937073915E+03  0.00000000000E+00 0.  1.
         21    1    1    2  506  505  0.70245932874E+01  0.15474105541E+03  0.86296570611E+03  0.87675763417E+03  0.00000000000E+00 0.  1.
<scales pt_clust_3="71.70572" pt_clust_4="203.22228" pt_clust_5="106.33010" pt_clust_6="14000.00000"></scales>
<clustering>
<clus scale="   71.706">  1  3  2 -1</clus>
<clus scale="  106.330">  2  5  1 -1</clus>
<clus scale="  203.222">  2  4  1 -1</clus>
<clus scale="   71.706">  1  3  2 -1</clus>
</clustering>
</event>
<event>
 6    0  0.2036847E+002  0.1666028E+03  0.7546771E-02  0.1181438E+00
         21   -1    0    0  506  501  0.00000000000E+00  0.00000000000E+00  0.67830281190E+02  0.67830281190E+02  0.00000000000E+00 0.  1.
         21   -1    0    0  503  502 -0.00000000000E+00 -0.00000000000E+00 -0.51468072028E+03  0.51468072028E+03  0.00000000000E+00 0.  1.
         21    1    1    2  503  504 -0.77646769953E+02 -0.27008320484E+02 -0.82334032223E+02  0.11635017457E+03  0.00000000000E+00 0.  1.
         21    1    1    2  504  501 -0.67486728798E+02 -0.23772819760E+02 -0.49251607150E+01  0.71720727348E+02  0.00000000000E+00 0.  1.
         21    1    1    2  505  502  0.99409944769E+02  0.33568813616E+02 -0.29731885967E+03  0.31528987722E+03  0.00000000000E+00 0.  1.
         21    1    1    2  506  505  0.45723553981E+02  0.17212326628E+02 -0.62272386483E+02  0.79150222330E+02  0.00000000000E+00 0. -1.
<scales pt_clust_3="59.83859" pt_clust_4="59.83859" pt_clust_5="162.10221" pt_clust_6="35.02540"></scales>
<clustering>
<clus scale="   35.025">  5  6 -1 -1</clus>
<clus scale="   59.839">  3  4 -1 -1</clus>
<clus scale="  162.102">  2  5  1 -1</clus>
<clus scale="  166.603">  1  3  2 -1</clus>
</clustering>
</event>
<event>
 6    0  0.2036847E+002  0.1095447E+03  0.7546771E-02  0.1261415E+00
         21   -1    0    0  506  501  0.00000000000E+00  0.00000000000E+00  0.12645120211E+04  0.12645120211E+04  0.00000000000E+00 0.  1.
         21   -1    0    0  504  502 -0.00000000000E+00 -0.00000000000E+00 -0.58079685130E+03  0.58079685130E+03  0.00000000000E+00 0. -1.
         21    1    1    2  503  505 -0.43374017071E+02  0.99973532440E+02 -0.48117844945E+03  0.49336468536E+03  0.00000000000E+00 0. -1.
         21    1    1    2  504  503 -0.42781557581E+02 -0.33355681978E+02 -0.72165889014E+02  0.90281663291E+02  0.00000000000E+00 0.  1.
         21    1    1    2  505  501  0.15417573254E+03 -0.77008248547E+02  0.10030065354E+04  0.10177045430E+04  0.00000000000E+00 0.  1.
         21    1    1    2  506  502 -0.68020157892E+02  0.10390398086E+02  0.23405297290E+03  0.24395798075E+03  0.00000000000E+00 0.  1.
<scales pt_clust_3="109.54470" pt_clust_4="54.24816" pt_clust_5="14000.00000" pt_clust_6="69.17960"></scales>
<clustering>
<clus scale="   54.248">  2  4  1 -1</clus>
<clus scale="   69.180">  1  6  2 -1</clus>
<clus scale="  109.545">  2  3  1 -1</clus>
<clus scale="   69.180">  1  3  2 -1</clus>
</clustering>
</event>
<event>
 6    0  0.2036847E+002  0.2374847E+03  0.7546771E-02  0.1121480E+00
         21   -1    0    0  505  501  0.00000000000E+00  0.00000000000E+00  0.54554884222E+03  0.54554884222E+03  0.00000000000E+00 0. -1.
         21   -1    0    0  503  502 -0.00000000000E+00 -0.00000000000E+00 -0.57803230845E+03  0.57803230845E+03  0.00000000000E+00 0. -1.
         21    1    1    2  503  501  0.32651150930E+01  0.43685723410E+02  0.16347196098E+02  0.46758253033E+02  0.00000000000E+00 0.  1.
         21    1    1    2  504  506  0.61924720702E+02 -0.13110964987E+03 -0.95931145845E+02  0.17385970225E+03  0.00000000000E+00 0.  1.
         21    1    1    2  505  504 -0.12361610817E+03  0.20784190184E+03  0.43220771527E+03  0.49526024219E+03  0.00000000000E+00 0. -1.
         21    1    1    2  506  502  0.58426272380E+02 -0.12041797538E+03 -0.38510723174E+03  0.40770295319E+03  0.00000000000E+00 0. -1.
<scales pt_clust_3="43.80757" pt_clust_4="14000.00000" pt_clust_5="237.48467" pt_clust_6="133.01193"></scales>
<clustering>
<clus scale="   43.808">  1  3  2 -1</clus>
<clus scale="  133.012">  2  6  1 -1</clus>
<clus scale="  237.485">  1  5  2 -1</clus>
<clus scale="   43.808">  1  3  2 -1</clus>
</clustering>
</event>
<event>
 6    0  0.2036847E+002  0.1180279E+03  0.7546771E-02  0.1246386E+00
         21   -1    0    0  503  501  0.00000000000E+00  0.00000000000E+00  0.28888263699E+02  0.28888263699E+02  0.00000000000E+00 0. -1.
         21   -1    0    0  506  502 -0.00000000000E+00 -0.00000000000E+00 -0.83067444579E+03  0.83067444579E+03  0.00000000000E+00 0. -1.
         21    1    1    2  503  505 -0.34468414906E+02  0.97562950687E+02 -0.27664970952E+03  0.29536699672E+03  0.00000000000E+00 0. -1.
         21    1    1    2  504  501  0.61565039331E+02 -0.33981564024E+02 -0.16342887244E+03  0.17791570226E+03  0.00000000000E+00 0. -1.
         21    1    1    2  505  502 -0.65154148325E+02 -0.95186068208E+01 -0.22478903273E+03  0.23423444699E+03  0.00000000000E+00 0. -1.
         21    1    1    2  506  504  0.38057523901E+02 -0.54062779842E+02 -0.13691856739E+03  0.15204556352E+03  0.00000000000E+00 0.  1.
<scales pt_clust_3="113.75941" pt_clust_4="30.49941" pt_clust_5="65.84578" pt_clust_6="30.49941"></scales>
<clustering>
<clus scale="   30.499">  4  6 -1 -1</clus>
<clus scale="   65.846">  2  5  1 -1</clus>
<clus scale="  113.759">  1  3  2 -1</clus>
<clus scale="  113.759">  1  3  2 -1</clus>
</clustering>
</event>
<event>
 6    0  0.2036847E+002  0.1366076E+03  0.7546771E-02  0.1217968E+00
         21   -1    0    0  503  501  0.00000000000E+00  0.00000000000E+00  0.16047611871E+02  0.16047611871E+02  0.00000000000E+00 0. -1.
         21   -1    0    0  506  502 -0.00000000000E+00 -0.00000000000E+00 -0.11081690927E+04  0.11081690927E+04  0.00000000000E+00 0. -1.
         21    1    1    2  503  504 -0.18102483316E+02 -0.56130983866E+02 -0.23922494297E+03  0.24638782558E+03  0.00000000000E+00 0. -1.
         21    1    1    2  504  502 -0.74496395577E+02 -0.21255227515E+02 -0.28401309435E+03  0.29438908847E+03  0.00000000000E+00 0. -1.
         21    1    1    2  505  501  0.43058190182E+02  0.50485175330E+02 -0.21229657980E+03  0.22242436572E+03  0.00000000000E+00 0. -1.
         21    1    1    2  506  505  0.49540688711E+02  0.26901036051E+02 -0.35658686376E+03  0.36101542485E+03  0.00000000000E+00 0. -1.
<scales pt_clust_3="55.85851" pt_clust_4="55.85851" pt_clust_5="129.51300" pt_clust_6="43.33558"></scales>
<clustering>
<clus scale="   43.336">  5  6 -1 -1</clus>
<clus scale="   55.859">  3  4 -1 -1</clus>
<clus scale="  129.513">  2  5  1 -1</clus>
<clus scale="  136.608">  1  3  2 -1</clus>
</clustering>
</event>
<event>
 6    0  0.2036847E+002  0.1491665E+03  0.7546771E-02  0.1201501E+00
         21   -1    0    0  502  501  0.00000000000E+00  0.00000000000E+00  0.23794567186E+03  0.23794567186E+03  0.00000000000E+00 0.  1.
         21   -1    0    0  506  502 -0.00000000000E+00 -0.00000000000E+00 -0.22993086720E+03  0.22993086720E+03  0.00000000000E+00 0.  1.
         21    1    1    2  503  501 -0.34453958110E+02 -0.51524504844E+01  0.94483257213E+02  0.10070108673E+03  0.00000000000E+00 0.  1.
         21    1    1    2  504  505  0.45686835591E+02  0.56671295713E+01 -0.27814673087E+02  0.53787167083E+02  0.00000000000E+00 0. -1.
         21    1    1    2  505  503 -0.10273867657E+03 -0.56782925321E+01  0.91354268512E+02  0.13759753284E+03  0.00000000000E+00 0.  1.
         21    1    1    2  506  504  0.91505799087E+02  0.51636134452E+01 -0.15000804798E+03  0.17579075240E+03  0.00000000000E+00 0.  1.
<scales pt_clust_3="33.48395" pt_clust_4="32.83193" pt_clust_5="33.48395" pt_clust_6="145.20710"></scales>
<clustering>
<clus scale="   32.832">  4  6 -1 -1</clus>
<clus scale="   33.484">  3  5 -1 -1</clus>
<clus scale="  145.207">  2  4  1 -1</clus>
<clus scale="  149.167">  1  3  2 -1</clus>
</clustering>
</event>
<event>
 6    0  0.2036847E+002  0.1611064E+03  0.7546771E-02  0.1187453E+00
         21   -1    0    0  503  501  0.00000000000E+00  0.00000000000E+00  0.56927741041E+03  0.56927741041E+03  0.00000000000E+00 0. -1.
         21   -1    0    0  505  502 -0.00000000000E+00 -0.00000000000E+00 -0.19014249845E+03  0.19014249845E+03  0.00000000000E+00 0. -1.
         21    1    1    2  503  504  0.97491621709E+02 -0.57655165148E+02  0.53226098114E+02  0.12514692123E+03  0.00000000000E+00 0.  1.
         21    1    1    2  504  502  0.15595620035E+02 -0.15319519755E+03 -0.61502568975E+02  0.16581483018E+03  0.00000000000E+00 0. -1.
         21    1    1    2  505  506 -0.64938888195E+02  0.20396045350E+03  0.32818739869E+03  0.39182125319E+03  0.00000000000E+00 0. -1.
         21    1    1    2  506  501 -0.48148353549E+02  0.68899091965E+01  0.59223984135E+02  0.76636904263E+02  0.00000000000E+00 0. -1.
<scales pt_clust_3="105.31942" pt_clust_4="161.10636" pt_clust_5="14000.00000" pt_clust_6="48.63882"></scales>
<clustering>
<clus scale="   48.639">  1  6  2 -1</clus>
<clus scale="  105.319">  1  3  2 -1</clus>
<clus scale="  161.106">  2  4  1 -1</clus>
<clus scale="   48.639">  1  3  2 -1</clus>
</clustering>
</event>
<event>
 6    0  0.2036847E+002  0.1148942E+03  0.7546771E-02  0.1251766E+00
         21   -1    0    0  503  501  0.00000000000E+00  0.00000000000E+00  0.56162211780E+03  0.56162211780E+03  0.00000000000E+00 0.  1.
         21   -1    0    0  506  502 -0.00000000000E+00 -0.00000000000E+00 -0.26859876678E+03  0.26859876678E+03  0.00000000000E+00 0.  1.
         21    1    1    2  503  502 -0.89484717642E+01  0.37346651527E+02 -0.91169935708E+02  0.98928280608E+02  0.00000000000E+00 0.  1.
         21    1    1    2  504  505 -0.21354681276E+02 -0.89828464195E+02  0.96135981731E+02  0.13329404479E+03  0.00000000000E+00 0.  1.
         21    1    1    2  505  501  0.96051897420E+02  0.92446978073E+02  0.42253406288E+03  0.44306596015E+03  0.00000000000E+00 0.  1.
         21    1    1    2  506  504 -0.65748744380E+02 -0.39965165405E+02 -0.13447675788E+03  0.15493259904E+03  0.00000000000E+00 0.  1.
<scales pt_clust_3="38.40374" pt_clust_4="114.89422" pt_clust_5="14000.00000" pt_clust_6="73.74000"></scales>
<clustering>
<clus scale="   38.404">  2  3  1 -1</clus>
<clus scale="   73.740">  2  6  1 -1</clus>
<clus scale="  114.894">  2  4  1 -1</clus>
<clus scale="  114.894">  1  3  2 -1</clus>
</clustering>
</event>
<event>
 6    0  0.2036847E+002  0.7954302E+02  0.7546771E-02  0.1330353E+00
         21   -1    0    0  502  501  0.00000000000E+00  0.00000000000E+00  0.92837764137E+02  0.92837764137E+02  0.00000000000E+00 0.  1.
         21   -1    0    0  503  502 -0.00000000000E+00 -0.00000000000E+00 -0.51364206665E+03  0.51364206665E+03  0.00000000000E+00 0.  1.
         21    1    1    2  503  505  0.50704696660E+02  0.30914228578E+02 -0.21178168415E+03  0.21995030697E+03  0.00000000000E+00 0.  1.
         21    1    1    2  504  506  0.24822975640E+02  0.50760199399E+02  0.11999589705E+01  0.56517412044E+02  0.00000000000E+00 0.  1.
         21    1    1    2  505  504 -0.66629503978E+02 -0.11157011346E+03 -0.24862485775E+03  0.28053823431E+03  0.00000000000E+00 0.  1.
         21    1    1    2  506  501 -0.88981683217E+01  0.29895685487E+02  0.38402280419E+02  0.49473877467E+02  0.00000000000E+00 0.  1.
<scales pt_clust_3="60.10375" pt_clust_4="79.54302" pt_clust_5="14000.00000" pt_clust_6="31.19182"></scales>
<clustering>
<clus scale="   31.192">  1  6  2 -1</clus>
<clus scale="   60.104">  2  3  1 -1</clus>
<clus scale="   79.543">  1  4  2 -1</clus>
<clus scale="   31.192">  1  3  2 -1</clus>
</clustering>
</event>
<event>
 6    0  0.2036847E+002  0.1799845E+03  0.7546771E-02  0.1167818E+00
         21   -1    0    0  505  501  0.00000000000E+00  0.00000000000E+00  0.23877234988E+03  0.23877234988E+03  0.00000000000E+00 0. -1.
         21   -1    0    0  503  502 -0.00000000000E+00 -0.00000000000E+00 -0.30078095633E+03  0.30078095633E+03  0.00000000000E+00 0. -1.
         21    1    1    2  503  506 -0.25741092693E+02 -0.19792802926E+02 -0.10027174614E+03  0.10539820669E+03  0.00000000000E+00 0. -1.
         21    1    1    2  504  502  0.10887189938E+03  0.32164755807E+02  0.13750211997E+03  0.17831010904E+03  0.00000000000E+00 0. -1.
         21    1    1    2  505  504  0.57810677288E+02  0.25069220821E+02  0.21437534049E+02  0.66559057289E+02  0.00000000000E+00 0. -1.
         21    1    1    2  506  501 -0.14094148397E+03 -0.37441173702E+02 -0.12067651433E+03  0.18928593319E+03  0.00000000000E+00 0. -1.
<scales pt_clust_3="32.47089" pt_clust_4="44.26604" pt_clust_5="44.26604" pt_clust_6="169.57048"></scales>
<clustering>
<clus scale="   32.471">  2  3  1 -1</clus>
<clus scale="   44.266">  4  5 -1 -1</clus>
<clus scale="  169.570">  2  6  1 -1</clus>
<clus scale="  179.985">  1  3  2 -1</clus>
</clustering>
</event>
<event>
 6    0  0.2036847E+002  0.5709087E+02  0.7546771E-02  0.1410462E+00
         21   -1    0    0  504  501  0.00000000000E+00  0.00000000000E+00  0.31423078076E+03  0.31423078076E+03  0.00000000000E+00 0.  1.
         21   -1    0    0  505  502 -0.00000000000E+00 -0.00000000000E+00 -0.13416130199E+03  0.13416130199E+03  0.00000000000E+00 0.  1.
         21    1    1    2  503  502 -0.63155520470E+02  0.41714258782E+02 -0.48782812654E+02  0.90046998628E+02  0.00000000000E+00 0.  1.
         21    1    1    2  504  503 -0.45986448834E+02  0.26217220768E+02  0.42835933953E+02  0.68095619380E+02  0.00000000000E+00 0. -1.
         21    1    1    2  505  506  0.53012050894E+02  0.70246730409E+01 -0.25266936467E+02  0.59144244435E+02  0.00000000000E+00 0.  1.
         21    1    1    2  506  501  0.56129918410E+02 -0.74956152591E+02  0.21128329394E+03  0.23110522030E+03  0.00000000000E+00 0.  1.
<scales pt_clust_3="14000.00000" pt_clust_4="52.93483" pt_clust_5="50.76004" pt_clust_6="57.09087"></scales>
<clustering>
<clus scale="   52.935">  1  4  2 -1</clus>
<clus scale="   50.760">  2  5  1 -1</clus>
<clus scale="   57.091">  1  6  2 -1</clus>
<clus scale="   52.935">  1  3  2 -1</clus>
</clustering>
</event>
<event>
 6    0  0.2036847E+002  0.1359248E+03  0.7546771E-02  0.1218920E+00
         21   -1    0    0  503  501  0.00000000000E+00  0.00000000000E+00  0.11118441523E+03  0.11118441523E+03  0.00000000000E+00 0. -1.
         21   -1    0    0  501  502 -0.00000000000E+00 -0.00000000000E+00 -0.53502982064E+03  0.53502982064E+03  0.00000000000E+00 0. -1.
         21    1    1    2  503  506 -0.45776794316E+02 -0.67691659784E+02  0.43778826050E+02  0.92705238862E+02  0.00000000000E+00 0. -1.
         21    1    1    2  504  505  0.66966353701E+01  0.10537117195E+03 -0.33099340151E+03  0.34742561887E+03  0.00000000000E+00 0. -1.
         21    1    1    2  505  502  0.72078245378E+02  0.57505615213E+01 -0.13304177251E+03  0.15142145042E+03  0.00000000000E+00 0. -1.
         21    1    1    2  506  504 -0.32998086432E+02 -0.43430073687E+02 -0.35890574444E+01  0.54661927719E+02  0.00000000000E+00 0. -1.
<scales pt_clust_3="32.14775" pt_clust_4="130.10462" pt_clust_5="72.30728" pt_clust_6="32.14775"></scales>
<clustering>
<clus scale="   32.148">  3  6 -1 -1</clus>
<clus scale="   72.307">  2  5  1 -1</clus>
<clus scale="  130.105">  2  4  1 -1</clus>
<clus scale="  135.925">  1  3  2 -1</clus>
</clustering>
</event>
<event>
 6    0  0.2036847E+002  0.8621638E+02  0.7546771E-02  0.1312282E+00
         21   -1    0    0  505  501  0.00000000000E+00  0.00000000000E+00  0.23250747635E+03  0.23250747635E+03  0.00000000000E+00 0.  1.
         21   -1    0    0  506  502 -0.00000000000E+00 -0.00000000000E+00 -0.88635447022E+03  0.88635447022E+03  0.00000000000E+00 0.  1.
         21    1    1    2  503  502  0.21761285788E+02  0.52064492493E+02 -0.78858023732E+03  0.79059664534E+03  0.00000000000E+00 0.  1.
         21    1    1    2  504  501  0.52510411568E+02  0.48489252633E+02  0.67189869097E+02  0.98097041001E+02  0.00000000000E+00 0.  1.
         21    1    1    2  505  503 -0.91559502429E+02 -0.55042067861E+02  0.11860006879E+03  0.15962063788E+03  0.00000000000E+00 0.  1.
         21    1    1    2  506  504  0.17287805073E+02 -0.45511677265E+02 -0.51056694439E+02  0.70547622346E+02  0.00000000000E+00 0.  1.
<scales pt_clust_3="39.23564" pt_clust_4="86.21638" pt_clust_5="14000.00000" pt_clust_6="48.68450"></scales>
<clustering>
<clus scale="   48.685">  2  6  1 -1</clus>
<clus scale="   39.236">  2  3  1 -1</clus>
<clus scale="   86.216">  1  4  2 -1</clus>
<clus scale="   86.216">  1  3  2 -1</clus>
</clustering>
</event>
<event>
 6    0  0.2036847E+002  0.1654196E+03  0.7546771E-02  0.1182710E+00
         21   -1    0    0  506  501  0.00000000000E+00  0.00000000000E+00  0.43456986204E+03  0.43456986204E+03  0.00000000000E+00 0. -1.
         21   -1    0    0  504  502 -0.00000000000E+00 -0.00000000000E+00 -0.35712667939E+03  0.35712667939E+03  0.00000000000E+00 0. -1.
         21    1    1    2  503  501 -0.47151343171E+02  0.97400290036E+01  0.22174255831E+03  0.22690940812E+03  0.00000000000E+00 0. -1.
         21    1    1    2  504  503  0.16539512864E+03 -0.56623478559E+02 -0.28342644872E+03  0.33300498305E+03  0.00000000000E+00 0. -1.
         21    1    1    2  505  502 -0.14575036692E+02 -0.28272985564E+02 -0.11736292918E+02  0.33904778110E+02  0.00000000000E+00 0. -1.
         21    1    1    2  506  505 -0.10366874878E+03  0.75156435120E+02  0.15086336598E+03  0.19787737215E+03  0.00000000000E+00 0. -1.
<scales pt_clust_3="48.21352" pt_clust_4="14000.00000" pt_clust_5="31.80870" pt_clust_6="165.41962"></scales>
<clustering>
<clus scale="   31.809">  2  5  1 -1</clus>
<clus scale="   48.214">  1  3  2 -1</clus>
<clus scale="  165.420">  1  6  2 -1</clus>
<clus scale="   48.214">  1  3  2 -1</clus>
</clustering>
</event>
<event>
 6    0  0.2036847E+002  0.9138214E+02  0.7546771E-02  0.1299539E+00
         21   -1    0    0  505  501  0.00000000000E+00  0.00000000000E+00  0.42231910910E+03  0.42231910910E+03  0.00000000000E+00 0.  1.
         21   -1    0    0  503  502 -0.00000000000E+00 -0.00000000000E+00 -0.17540349372E+03  0.17540349372E+03  0.00000000000E+00 0.  1.
         21    1    1    2  503  504 -0.65450196572E+01 -0.62307373304E+02 -0.98821485856E+02  0.11700740198E+03  0.00000000000E+00 0.  1.
         21    1    1    2  504  506  0.79120517877E+02  0.14054154814E+02  0.13318199613E+03  0.15554748378E+03  0.00000000000E+00 0.  1.
         21    1    1    2  505  502  0.29778083161E+02  0.13006657205E+02 -0.39323324688E+02  0.51012069482E+02  0.00000000000E+00 0. -1.
         21    1    1    2  506  501 -0.10235358138E+03  0.35246561286E+02  0.25187842980E+03  0.27415564758E+03  0.00000000000E+00 0.  1.
<scales pt_clust_3="54.62608" pt_clust_4="14000.00000" pt_clust_5="32.49473" pt_clust_6="91.38214"></scales>
<clustering>
<clus scale="   32.495">  2  5  1 -1</clus>
<clus scale="   54.626">  2  3  1 -1</clus>
<clus scale="   91.382">  1  6  2 -1</clus>
<clus scale="   91.382">  1  3  2 -1</clus>
</clustering>
</event>
<event>
 6    0  0.2036847E+002  0.2115753E+03  0.7546771E-02  0.1140325E+00
         21   -1    0    0  506  501  0.00000000000E+00  0.00000000000E+00  0.13595050549E+04  0.13595050549E+04  0.00000000000E+00 0.  1.
         21   -1    0    0  504  502 -0.00000000000E+00 -0.00000000000E+00 -0.44821757121E+03  0.44821757121E+03  0.00000000000E+00 0.  1.
         21    1    1    2  503  501  0.16340696895E+03 -0.85568410576E+01  0.10419604673E+04  0.10547306161E+04  0.00000000000E+00 0.  1.
         21    1    1    2  504  505 -0.13757348404E+03 -0.64792392836E+02 -0.35736184162E+03  0.38837096123E+03  0.00000000000E+00 0.  1.
         21    1    1    2  505  503  0.41293783219E+02  0.26191378576E+02  0.26824103459E+03  0.27266172720E+03  0.00000000000E+00 0.  1.
         21    1    1    2  506  502 -0.67127268133E+02  0.47157855317E+02 -0.41552176619E+02  0.91959321588E+02  0.00000000000E+00 0. -1.
<scales pt_clust_3="30.57935" pt_clust_4="204.04661" pt_clust_5="30.57935" pt_clust_6="82.03617"></scales>
<clustering>
<clus scale="   30.579">  3  5 -1 -1</clus>
<clus scale="   82.036">  2  6  1 -1</clus>
<clus scale="  204.047">  2  4  1 -1</clus>
<clus scale="  211.575">  1  3  2 -1</clus>
</clustering>
</event>
<event>
 6    0  0.2036847E+002  0.1033995E+03  0.7546771E-02  0.1273305E+00
         21   -1    0    0  504  501  0.00000000000E+00  0.00000000000E+00  0.29785837626E+03  0.29785837626E+03  0.00000000000E+00 0.  1.
         21   -1    0    0  506  502 -0.00000000000E+00 -0.00000000000E+00 -0.11875689372E+04  0.11875689372E+04  0.00000000000E+00 0. -1.
         21    1    1    2  503  505  0.19989687023E+02  0.10064557258E+03  0.24659469197E+03  0.26709185868E+03  0.00000000000E+00 0.  1.
         21    1    1    2  504  502 -0.21698412074E+02 -0.69475921754E+02 -0.96751570318E+03  0.97024963834E+03  0.00000000000E+00 0. -1.
         21    1    1    2  505  501 -0.49605553194E+02  0.11898993872E+00  0.17296679156E+02  0.52534752080E+02  0.00000000000E+00 0.  1.
         21    1    1    2  506  503  0.51314278245E+02 -0.31288640766E+02 -0.18608622886E+03  0.19555106433E+03  0.00000000000E+00 0. -1.
<scales pt_clust_3="14000.00000" pt_clust_4="103.39952" pt_clust_5="49.60570" pt_clust_6="59.33945"></scales>
<clustering>
<clus scale="   49.606">  1  5  2 -1</clus>
<clus scale="   59.339">  2  6  1 -1</clus>
<clus scale="  103.400">  2  4  1 -1</clus>
<clus scale="   49.606">  1  3  2 -1</clus>
</clustering>
</event>
<event>
 6    0  0.5040455E+002  0.1537714E+03  0.7546771E-02  0.1195914E+00
         21   -1    0    0  504  501  0.00000000000E+00  0.00000000000E+00  0.18859626996E+04  0.18859626996E+04  0.00000000000E+00 0.  1.
         21   -1    0    0  505  502 -0.00000000000E+00 -0.00000000000E+00 -0.20887308106E+03  0.20887308106E+03  0.00000000000E+00 0. -1.
         21    1    1    2  503  502  0.37684713619E+02  0.11878628865E+03 -0.17485141359E+03  0.21471687602E+03  0.00000000000E+00 0. -1.
         21    1    1    2  504  503 -0.67499984508E+02 -0.11695874570E+03  0.17243277088E+04  0.17296073669E+04  0.00000000000E+00 0.  1.
         21    1    1    2  505  506  0.11031347836E+02  0.28745228266E+02  0.19130651541E+02  0.36248594615E+02  0.00000000000E+00 0. -1.
         21    1    1    2  506  501  0.18783923052E+02 -0.30572771224E+02  0.10848267174E+03  0.11426294313E+03  0.00000000000E+00 0.  1.
<scales pt_clust_3="14000.00000" pt_clust_4="153.77137" pt_clust_5="30.78926" pt_clust_6="35.61387"></scales>
<clustering>
<clus scale="   30.789">  2  5  1 -1</clus>
<clus scale="   35.614">  1  6  2 -1</clus>
<clus scale="  153.771">  1  4  2 -1</clus>
<clus scale="   35.614">  1  3  2 -1</clus>
</clustering>
</event>
<event>
 6    0  0.2036847E+002  0.1014430E+03  0.7546771E-02  0.1277290E+00
         21   -1    0    0  504  501  0.00000000000E+00  0.00000000000E+00  0.29685825784E+03  0.29685825784E+03  0.00000000000E+00 0.  1.
         21   -1    0    0  505  502 -0.00000000000E+00 -0.00000000000E+00 -0.17307483719E+03  0.17307483719E+03  0.00000000000E+00 0.  1.
         21    1    1    2  503  501 -0.56066495222E+02  0.89587215651E+02  0.17913124704E+03  0.20798395314E+03  0.00000000000E+00 0.  1.
         21    1    1    2  504  506  0.51963209743E+02  0.38269105839E+02  0.44717090171E+02  0.78513169481E+02  0.00000000000E+00 0. -1.
         21    1    1    2  505  503 -0.37357697143E+02 -0.66025485815E+02 -0.69755844815E+02  0.10305746067E+03  0.00000000000E+00 0.  1.
         21    1    1    2  506  502  0.41460982622E+02 -0.61830835675E+02 -0.30309071750E+02  0.80378511747E+02  0.00000000000E+00 0.  1.
<scales pt_clust_3="101.44302" pt_clust_4="64.53448" pt_clust_5="71.71702" pt_clust_6="14000.00000"></scales>
<clustering>
<clus scale="   64.534">  1  4  2 -1</clus>
<clus scale="   71.717">  2  5  1 -1</clus>
<clus scale="  101.443">  1  3  2 -1</clus>
<clus scale="   64.534">  1  3  2 -1</clus>
</clustering>
</event>
<event>
 6    0  0.2036847E+002  0.1692028E+03  0.7546771E-02  0.1178682E+00
         21   -1    0    0  503  501  0.00000000000E+00  0.00000000000E+00  0.90251475740E+03  0.90251475740E+03  0.00000000000E+00 0.  1.
         21   -1    0    0  506  502 -0.00000000000E+00 -0.00000000000E+00 -0.12216838488E+03  0.12216838488E+03  0.00000000000E+00 0. -1.
         21    1    1    2  503  504 -0.70386450411E+01  0.71518459635E+02  0.36194487948E+03  0.36901020091E+03  0.00000000000E+00 0.  1.
         21    1    1    2  504  502 -0.56762945951E+02  0.68469770239E+02  0.47034232731E+03  0.47867739275E+03  0.00000000000E+00 0.  1.
         21    1    1    2  505  501 -0.10963935285E+02 -0.46444991198E+02 -0.36042341526E+01  0.47857450707E+02  0.00000000000E+00 0.  1.
         21    1    1    2  506  505  0.74765526278E+02 -0.93543238675E+02 -0.48336600117E+02  0.12913809791E+03  0.00000000000E+00 0. -1.
<scales pt_clust_3="42.20904" pt_clust_4="160.84857" pt_clust_5="44.46892" pt_clust_6="44.46892"></scales>
<clustering>
<clus scale="   42.209">  3  4 -1 -1</clus>
<clus scale="   44.469">  5  6 -1 -1</clus>
<clus scale="  160.849">  1  3  2 -1</clus>
<clus scale="  160.849">  1  3  2 -1</clus>
</clustering>
</event>
<event>
 6    0  0.2036847E+002  0.4713070E+03  0.7546771E-02  0.1021552E+00
         21   -1    0    0  505  501  0.00000000000E+00  0.00000000000E+00  0.77301062414E+03  0.77301062414E+03  0.00000000000E+00 0. -1.
         21   -1    0    0  504  502 -0.00000000000E+00 -0.00000000000E+00 -0.42249508408E+03  0.42249508408E+03  0.00000000000E+00 0. -1.
         21    1    1    2  503  501 -0.13447195105E+03  0.57030402458E+02  0.13297882054E+03  0.19753110929E+03  0.00000000000E+00 0. -1.
         21    1    1    2  504  503 -0.28075064977E+03 -0.26396560254E+03  0.30352258142E+03  0.49053514053E+03  0.00000000000E+00 0. -1.
         21    1    1    2  505  506  0.84281446959E+02  0.13490371421E+03 -0.47218960120E+01  0.15913727003E+03  0.00000000000E+00 0. -1.
         21    1    1    2  506  502  0.33094115386E+03  0.72031485866E+02 -0.81263965890E+02  0.34830218837E+03  0.00000000000E+00 0. -1.
<scales pt_clust_3="146.06564" pt_clust_4="432.73667" pt_clust_5="127.97076" pt_clust_6="127.97076"></scales>
<clustering>
<clus scale="  127.971">  5  6 -1 -1</clus>
<clus scale="  146.066">  1  3  2 -1</clus>
<clus scale="  432.737">  1  4  2 -1</clus>
<clus scale="  146.066">  1  3  2 -1</clus>
</clustering>
</event>
<event>
 6    0  0.2036847E+002  0.1905358E+03  0.7546771E-02  0.1157979E+00
         21   -1    0    0  506  501  0.00000000000E+00  0.00000000000E+00  0.47414311856E+03  0.47414311856E+03  0.00000000000E+00 0.  1.
         21   -1    0    0  504  502 -0.00000000000E+00 -0.00000000000E+00 -0.72152616779E+03  0.72152616779E+03  0.00000000000E+00 0. -1.
         21    1    1    2  503  502 -0.13046393000E+03 -0.12810059935E+03 -0.52521831931E+03  0.55613387195E+03  0.00000000000E+00 0. -1.
         21    1    1    2  504  505  0.11788462601E+02 -0.27772440095E+02 -0.14969963496E+03  0.15270971477E+03  0.00000000000E+00 0.  1.
         21    1    1    2  505  501  0.14872823782E+02  0.95430136251E+02  0.10507265189E+03  0.14271781237E+03  0.00000000000E+00 0.  1.
         21    1    1    2  506  503  0.10380264362E+03  0.60442903190E+02  0.32246225316E+03  0.34410788726E+03  0.00000000000E+00 0.  1.
<scales pt_clust_3="14000.00000" pt_clust_4="30.17079" pt_clust_5="95.73785" pt_clust_6="190.53582"></scales>
<clustering>
<clus scale="   30.171">  2  4  1 -1</clus>
<clus scale="   95.738">  1  5  2 -1</clus>
<clus scale="  190.536">  1  6  2 -1</clus>
<clus scale="   95.738">  1  3  2 -1</clus>
</clustering>
</event>
<event>
 6    0  0.2036847E+002  0.2243877E+03  0.7546771E-02  0.1130653E+00
         21   -1    0    0  505  501  0.00000000000E+00  0.00000000000E+00  0.72510857607E+02  0.72510857607E+02  0.00000000000E+00 0. -1.
         21   -1    0    0  506  502 -0.00000000000E+00 -0.00000000000E+00 -0.69479092251E+03  0.69479092251E+03  0.00000000000E+00 0. -1.
         21    1    1    2  503  501  0.64374835834E+02 -0.15038969298E+03 -0.19591653666E+03  0.25523414462E+03  0.00000000000E+00 0. -1.
         21    1    1    2  504  502 -0.36370384428E+02  0.77946805462E+02 -0.18331609769E+03  0.20249271843E+03  0.00000000000E+00 0. -1.
         21    1    1    2  505  504 -0.20251954372E+02  0.13095865806E+03 -0.16154801360E+03  0.20894514227E+03  0.00000000000E+00 0. -1.
         21    1    1    2  506  503 -0.77524970339E+01 -0.58515770543E+02 -0.81499416942E+02  0.10062977479E+03  0.00000000000E+00 0. -1.
<scales pt_clust_3="222.88903" pt_clust_4="47.67912" pt_clust_5="47.67912" pt_clust_6="31.96620"></scales>
<clustering>
<clus scale="   31.966">  3  6 -1 -1</clus>
<clus scale="   47.679">  4  5 -1 -1</clus>
<clus scale="  222.889">  1  3  2 -1</clus>
<clus scale="  222.889">  1  3  2 -1</clus>
</clustering>
</event>
<event>
 6    0  0.2036847E+002  0.2130455E+03  0.7546771E-02  0.1139177E+00
         21   -1    0    0  505  501  0.00000000000E+00  0.00000000000E+00  0.14424310624E+04  0.14424310624E+04  0.00000000000E+00 0.  1.
         21   -1    0    0  503  502 -0.00000000000E+00 -0.00000000000E+00 -0.21364477171E+03  0.21364477171E+03  0.00000000000E+00 0.  1.
         21    1    1    2  503  504  0.65208683945E+02  0.16774532859E+03 -0.14423454574E+03  0.23063883435E+03  0.00000000000E+00 0.  1.
         21    1    1    2  504  506 -0.15672589779E+02 -0.99542612602E+02  0.46350627663E+03  0.47433366976E+03  0.00000000000E+00 0. -1.
         21    1    1    2  505  502 -0.20547757429E+02  0.30132560834E+02  0.65248198415E+00  0.36477490190E+02  0.00000000000E+00 0.  1.
         21    1    1    2  506  501 -0.28988336737E+02 -0.98335276821E+02  0.90886207782E+03  0.91462583980E+03  0.00000000000E+00 0.  1.
<scales pt_clust_3="201.80441" pt_clust_4="67.56874" pt_clust_5="36.47165" pt_clust_6="67.56874"></scales>
<clustering>
<clus scale="   36.472">  2  5  1 -1</clus>
<clus scale="   67.569">  4  6 -1 -1</clus>
<clus scale="  201.804">  2  3  1 -1</clus>
<clus scale="  213.045">  1  3  2 -1</clus>
</clustering>
</event>
<event>
 6    0  0.2036847E+002  0.2645905E+03  0.7546771E-02  0.1104416E+00
         21   -1    0    0  505  501  0.00000000000E+00  0.00000000000E+00  0.27469906195E+03  0.27469906195E+03  0.00000000000E+00 0.  1.
         21   -1    0    0  504  502 -0.00000000000E+00 -0.00000000000E+00 -0.25181581349E+03  0.25181581349E+03  0.00000000000E+00 0.  1.
         21    1    1    2  503  501 -0.20759769745E+03 -0.36797067893E+02  0.13123503156E+02  0.21124169694E+03  0.00000000000E+00 0.  1.
         21    1    1    2  504  503 -0.39646789607E+02 -0.23161427604E+02 -0.27970622589E+02  0.53765001467E+02  0.00000000000E+00 0. -1.
         21    1    1    2  505  506  0.16011640382E+03  0.42407044104E+02  0.18135156346E+01  0.16564694081E+03  0.00000000000E+00 0.  1.
         21    1    1    2  506  502  0.87128083233E+02  0.17551451393E+02  0.35916852263E+02  0.95861236223E+02  0.00000000000E+00 0.  1.
<scales pt_clust_3="33.92071" pt_clust_4="33.92071" pt_clust_5="258.77200" pt_clust_6="34.65436"></scales>
<clustering>
<clus scale="   33.921">  3  4 -1 -1</clus>
<clus scale="   34.654">  5  6 -1 -1</clus>
<clus scale="  258.772">  1  5  2 -1</clus>
<clus scale="  258.772">  1  3  2 -1</clus>
</clustering>
</event>
<event>
 6    0  0.2036847E+002  0.1146732E+03  0.7546771E-02  0.1252153E+00
         21   -1    0    0  506  501  0.00000000000E+00  0.00000000000E+00  0.13722300683E+03  0.13722300683E+03  0.00000000000E+00 0. -1.
         21   -1    0    0  505  502 -0.00000000000E+00 -0.00000000000E+00 -0.13149646665E+03  0.13149646665E+03  0.00000000000E+00 0. -1.
         21    1    1    2  503  504 -0.43768209297E+02 -0.66641570655E+02 -0.99088734960E+01  0.80342646573E+02  0.00000000000E+00 0. -1.
         21    1    1    2  504  502 -0.39339700148E+02 -0.56948166581E+01 -0.15872760676E+02  0.42801722816E+02  0.00000000000E+00 0. -1.
         21    1    1    2  505  501  0.38068224082E+02 -0.16561328636E+02  0.16720507211E+01  0.41548321802E+02  0.00000000000E+00 0. -1.
         21    1    1    2  506  503  0.45039685363E+02  0.88897715949E+02  0.29836123632E+02  0.10402678228E+03  0.00000000000E+00 0. -1.
<scales pt_clust_3="34.30425" pt_clust_4="34.30425" pt_clust_5="41.51466" pt_clust_6="103.87289"></scales>
<clustering>
<clus scale="   34.304">  3  4 -1 -1</clus>
<clus scale="   41.515">  1  5  2 -1</clus>
<clus scale="  103.873">  1  6  2 -1</clus>
<clus scale="   41.515">  1  3  2 -1</clus>
</clustering>
</event>
<event>
 6    0  0.2036847E+002  0.1031079E+03  0.7546771E-02  0.1273893E+00
         21   -1    0    0  506  501  0.00000000000E+00  0.00000000000E+00  0.46300390184E+03  0.46300390184E+03  0.00000000000E+00 0. -1.
         21   -1    0    0  504  502 -0.00000000000E+00 -0.00000000000E+00 -0.94846316382E+03  0.94846316382E+03  0.00000000000E+00 0. -1.
         21    1    1    2  503  501  0.19411938965E+01  0.65918560440E+02  0.39237020265E+03  0.39787359899E+03  0.00000000000E+00 0. -1.
         21    1    1    2  504  503 -0.96111136496E+02 -0.23099974352E+02 -0.40277361508E+03  0.41472586654E+03  0.00000000000E+00 0. -1.
         21    1    1    2  505  502  0.37740392255E+02 -0.78007179624E+02 -0.51436686449E+03  0.52161549878E+03  0.00000000000E+00 0. -1.
         21    1    1    2  506  505  0.56429550345E+02  0.35188593536E+02  0.39311014939E+02  0.77252101348E+02  0.00000000000E+00 0. -1.
<scales pt_clust_3="65.94714" pt_clust_4="14000.00000" pt_clust_5="83.54991" pt_clust_6="103.10794"></scales>
<clustering>
<clus scale="   65.947">  1  3  2 -1</clus>
<clus scale="   83.550">  2  5  1 -1</clus>
<clus scale="  103.108">  1  6  2 -1</clus>
<clus scale="   65.947">  1  3  2 -1</clus>
</clustering>
</event>
<event>
 6    0  0.2036847E+002  0.9748234E+02  0.7546771E-02  0.1285681E+00
         21   -1    0    0  504  501  0.00000000000E+00  0.00000000000E+00  0.43515962466E+03  0.43515962466E+03  0.00000000000E+00 0.  1.
         21   -1    0    0  506  502 -0.00000000000E+00 -0.00000000000E+00 -0.14705531170E+04  0.14705531170E+04  0.00000000000E+00 0. -1.
         21    1    1    2  503  502 -0.44386389592E+02  0.65544651130E+02 -0.32820776679E+03  0.33761900280E+03  0.00000000000E+00 0.  1.
         21    1    1    2  504  503 -0.29488168003E+02 -0.17098839258E+02  0.39863269725E+03  0.40008742754E+03  0.00000000000E+00 0.  1.
         21    1    1    2  505  501 -0.31087595616E+02 -0.33853449369E+01  0.19534389521E+02  0.36871283345E+02  0.00000000000E+00 0.  1.
         21    1    1    2  506  505  0.10496215321E+03 -0.45060466935E+02 -0.11253528123E+04  0.11311350280E+04  0.00000000000E+00 0. -1.
<scales pt_clust_3="97.48234" pt_clust_4="63.37563" pt_clust_5="31.27138" pt_clust_6="14000.00000"></scales>
<clustering>
<clus scale="   31.271">  1  5  2 -1</clus>
<clus scale="   63.376">  1  4  2 -1</clus>
<clus scale="   97.482">  1  3  2 -1</clus>
<clus scale="   31.271">  1  3  2 -1</clus>
</clustering>
</event>
<event>
 6    0  0.2036847E+002  0.1061041E+03  0.7546771E-02  0.1267959E+00
         21   -1    0    0  505  501  0.00000000000E+00  0.00000000000E+00  0.18068514519E+04  0.18068514519E+04  0.00000000000E+00 0. -1.
         21   -1    0    0  506  502 -0.00000000000E+00 -0.00000000000E+00 -0.55592991893E+02  0.55592991893E+02  0.00000000000E+00 0. -1.
         21    1    1    2  503  504 -0.69667887388E+02  0.42494641026E+02  0.12674630656E+04  0.12700874110E+04  0.00000000000E+00 0. -1.
         21    1    1    2  504  502  0.11899373790E+03 -0.52904073691E+02  0.40669726828E+02  0.13642718700E+03  0.00000000000E+00 0. -1.
         21    1    1    2  505  503 -0.36503004087E+02 -0.23070900264E+02  0.38652629713E+03  0.38893098889E+03  0.00000000000E+00 0. -1.
         21    1    1    2  506  501 -0.12822846428E+02  0.33480332929E+02  0.56599370443E+02  0.66998856842E+02  0.00000000000E+00 0.  1.
<scales pt_clust_3="106.10411" pt_clust_4="14000.00000" pt_clust_5="43.02260" pt_clust_6="35.85189"></scales>
<clustering>
<clus scale="   35.852">  2  6  1 -1</clus>
<clus scale="   43.023">  1  5  2 -1</clus>
<clus scale="  106.104">  1  3  2 -1</clus>
<clus scale="   43.023">  1  3  2 -1</clus>
</clustering>
</event>
<event>
 6    0  0.2036847E+002  0.1660701E+03  0.7546771E-02  0.1182009E+00
         21   -1    0    0  505  501  0.00000000000E+00  0.00000000000E+00  0.98424798596E+02  0.98424798596E+02  0.00000000000E+00 0.  1.
         21   -1    0    0  506  502 -0.00000000000E+00 -0.00000000000E+00 -0.51263456775E+03  0.51263456775E+03  0.00000000000E+00 0.  1.
         21    1    1    2  503  501  0.35632965766E+02  0.69436044234E+02 -0.15497876597E+03  0.17352086443E+03  0.00000000000E+00 0.  1.
         21    1    1    2  504  502 -0.47336213674E+02 -0.11886696382E+03 -0.77983616895E+02  0.14983830190E+03  0.00000000000E+00 0.  1.
         21    1    1    2  505  504 -0.75280642077E+02 -0.22861854406E+02 -0.57130250593E+01  0.78882685766E+02  0.00000000000E+00 0.  1.
         21    1    1    2  506  503  0.86983889985E+02  0.72292773990E+02 -0.17553436123E+03  0.20881751425E+03  0.00000000000E+00 0. -1.
<scales pt_clust_3="35.45523" pt_clust_4="160.49152" pt_clust_5="78.67553" pt_clust_6="35.45523"></scales>
<clustering>
<clus scale="   35.455">  3  6 -1 -1</clus>
<clus scale="   78.676">  1  5  2 -1</clus>
<clus scale="  160.492">  1  4  2 -1</clus>
<clus scale="   78.676">  1  3  2 -1</clus>
</clustering>
</event>
<event>
 6    0  0.2036847E+002  0.2327068E+03  0.7546771E-02  0.1124749E+00
         21   -1    0    0  504  501  0.00000000000E+00  0.00000000000E+00  0.64943097051E+03  0.64943097051E+03  0.00000000000E+00 0.  1.
         21   -1    0    0  506  502 -0.00000000000E+00 -0.00000000000E+00 -0.22460647167E+03  0.22460647167E+03  0.00000000000E+00 0.  1.
         21    1    1    2  503  505  0.82700868300E+02 -0.65390446292E+02  0.24712423931E+03  0.26867402878E+03  0.00000000000E+00 0.  1.
         21    1    1    2  504  502 -0.57238928098E+02 -0.18097079341E+02 -0.84464943165E+01  0.60622953051E+02  0.00000000000E+00 0.  1.
         21    1    1    2  505  501  0.73918553762E+02 -0.10726913292E+03  0.28094967224E+03  0.30968264045E+03  0.00000000000E+00 0.  1.
         21    1    1    2  506  503 -0.99380493964E+02  0.19075665855E+03 -0.94802918396E+02  0.23505781990E+03  0.00000000000E+00 0.  1.
<scales pt_clust_3="32.35370" pt_clust_4="60.03165" pt_clust_5="32.35370" pt_clust_6="229.91096"></scales>
<clustering>
<clus scale="   32.354">  3  5 -1 -1</clus>
<clus scale="   60.032">  2  4  1 -1</clus>
<clus scale="  229.911">  2  6  1 -1</clus>
<clus scale="  232.707">  1  3  2 -1</clus>
</clustering>
</event>
<event>
 6    0  0.2036847E+002  0.1845152E+03  0.7546771E-02  0.1163503E+00
         21   -1    0    0  503  501  0.00000000000E+00  0.00000000000E+00  0.17035359785E+03  0.17035359785E+03  0.00000000000E+00 0. -1.
         21   -1    0    0  505  502 -0.00000000000E+00 -0.00000000000E+00 -0.71091505183E+03  0.71091505183E+03  0.00000000000E+00 0.  1.
         21    1    1    2  503  504  0.84319881164E+02  0.45615870459E+02  0.86702185987E+02  0.12925911593E+03  0.00000000000E+00 0. -1.
         21    1    1    2  504  506  0.53993243015E+02  0.46099407474E+02 -0.19813939282E+01  0.71023598772E+02  0.00000000000E+00 0. -1.
         21    1    1    2  505  501 -0.19204467212E+03 -0.59392043745E+02 -0.40793251379E+03  0.45477192828E+03  0.00000000000E+00 0.  1.
         21    1    1    2  506  502  0.53731547941E+02 -0.32323234187E+02 -0.21734973225E+03  0.22621400669E+03  0.00000000000E+00 0.  1.
<scales pt_clust_3="63.44878" pt_clust_4="63.44878" pt_clust_5="169.27051" pt_clust_6="62.70463"></scales>
<clustering>
<clus scale="   62.705">  2  6  1 -1</clus>
<clus scale="   63.449">  3  4 -1 -1</clus>
<clus scale="  169.271">  2  5  1 -1</clus>
<clus scale="  184.515">  1  3  2 -1</clus>
</clustering>
</event>
<event>
 6    0  0.2036847E+002  0.1107570E+03  0.7546771E-02  0.1259174E+00
         21   -1    0    0  503  501  0.00000000000E+00  0.00000000000E+00  0.74302414955E+03  0.74302414955E+03  0.00000000000E+00 0. -1.
         21   -1    0    0  506  502 -0.00000000000E+00 -0.00000000000E+00 -0.18706989466E+03  0.18706989466E+03  0.00000000000E+00 0.  1.
         21    1    1    2  503  504  0.13189774810E+02 -0.34454631319E+02  0.72670684709E+02  0.81499203646E+02  0.00000000000E+00 0. -1.
         21    1    1    2  504  502  0.78558627650E+01  0.59437081318E+02  0.55800611501E+01  0.60213107359E+02  0.00000000000E+00 0. -1.
         21    1    1    2  505  501 -0.10010579036E+03 -0.39464165111E+02  0.61767337179E+03  0.62697606319E+03  0.00000000000E+00 0. -1.
         21    1    1    2  506  505  0.79060152783E+02  0.14481715113E+02 -0.13996986277E+03  0.16140567002E+03  0.00000000000E+00 0.  1.
<scales pt_clust_3="36.89298" pt_clust_4="58.35849" pt_clust_5="110.75704" pt_clust_6="14000.00000"></scales>
<clustering>
<clus scale="   36.893">  1  3  2 -1</clus>
<clus scale="   58.358">  2  4  1 -1</clus>
<clus scale="  110.757">  1  5  2 -1</clus>
<clus scale="   36.893">  1  3  2 -1</clus>
</clustering>
</event>
<event>
 6    0  0.2036847E+002  0.7725348E+02  0.7546771E-02  0.1337031E+00
         21   -1    0    0  505  501  0.00000000000E+00  0.00000000000E+00  0.79657585060E+03  0.79657585060E+03  0.00000000000E+00 0.  1.
         21   -1    0    0  503  502 -0.00000000000E+00 -0.00000000000E+00 -0.24702864911E+03  0.24702864911E+03  0.00000000000E+00 0.  1.
         21    1    1    2  503  506 -0.21578641825E+02  0.29977392023E+02 -0.19554448775E+01  0.36987911271E+02  0.00000000000E+00 0.  1.
         21    1    1    2  504  502 -0.38842052712E+00 -0.10307886703E+03 -0.20912659713E+03  0.23315088961E+03  0.00000000000E+00 0.  1.
         21    1    1    2  505  504  0.67418936057E+02  0.65943099075E+02  0.51559290684E+03  0.52414678367E+03  0.00000000000E+00 0.  1.
         21    1    1    2  506  501 -0.45451873705E+02  0.71583759303E+01  0.24503633667E+03  0.24931891516E+03  0.00000000000E+00 0.  1.
<scales pt_clust_3="36.93619" pt_clust_4="14000.00000" pt_clust_5="77.25348" pt_clust_6="46.25725"></scales>
<clustering>
<clus scale="   36.936">  2  3  1 -1</clus>
<clus scale="   46.257">  1  6  2 -1</clus>
<clus scale="   77.253">  1  5  2 -1</clus>
<clus scale="   46.257">  1  3  2 -1</clus>
</clustering>
</event>
<event>
 6    0  0.2036847E+002  0.9446670E+02  0.7546771E-02  0.1292382E+00
         21   -1    0    0  504  501  0.00000000000E+00  0.00000000000E+00  0.25108791334E+03  0.25108791334E+03  0.00000000000E+00 0. -1.
         21   -1    0    0  501  502 -0.00000000000E+00 -0.00000000000E+00 -0.66858658953E+03  0.66858658953E+03  0.00000000000E+00 0.  1.
         21    1    1    2  503  505 -0.15634718613E+02 -0.84687897290E+02 -0.17655451518E+03  0.19643823764E+03  0.00000000000E+00 0.  1.
         21    1    1    2  504  506 -0.35583851457E+02  0.16429099586E+02  0.16843664889E+03  0.17293649264E+03  0.00000000000E+00 0. -1.
         21    1    1    2  505  502  0.84362642351E+02  0.68278847700E+02 -0.46937489913E+03  0.48175912280E+03  0.00000000000E+00 0.  1.
         21    1    1    2  506  503 -0.33144072281E+02 -0.20049994950E-01  0.59994089242E+02  0.68540649788E+02  0.00000000000E+00 0.  1.
<scales pt_clust_3="94.46670" pt_clust_4="78.29820" pt_clust_5="14000.00000" pt_clust_6="31.01943"></scales>
<clustering>
<clus scale="   31.019">  4  6 -1 -1</clus>
<clus scale="   78.298">  1  4  2 -1</clus>
<clus scale="   94.467">  1  3  2 -1</clus>
<clus scale="   78.298">  1  3  2 -1</clus>
</clustering>
</event>
<event>
 6    0  0.2036847E+002  0.1311716E+03  0.7546771E-02  0.1225728E+00
         21   -1    0    0  505  501  0.00000000000E+00  0.00000000000E+00  0.34792382066E+03  0.34792382066E+03  0.00000000000E+00 0.  1.
         21   -1    0    0  504  502 -0.00000000000E+00 -0.00000000000E+00 -0.38358908135E+03  0.38358908135E+03  0.00000000000E+00 0.  1.
         21    1    1    2  503  501  0.49563217220E+02  0.21839061766E+02  0.16732664651E+02  0.56687204785E+02  0.00000000000E+00 0.  1.
         21    1    1    2  504  506  0.12743028754E+02 -0.80697461166E+02 -0.28607665260E+03  0.29751355630E+03  0.00000000000E+00 0.  1.
         21    1    1    2  505  502  0.13860536066E+02 -0.54819648796E+02 -0.41398831828E+02  0.70079751932E+02  0.00000000000E+00 0. -1.
         21    1    1    2  506  503 -0.76166782039E+02  0.11367804820E+03  0.27507755909E+03  0.30723238899E+03  0.00000000000E+00 0.  1.
<scales pt_clust_3="54.16140" pt_clust_4="14000.00000" pt_clust_5="56.18287" pt_clust_6="131.17164"></scales>
<clustering>
<clus scale="   54.161">  1  3  2 -1</clus>
<clus scale="   56.183">  2  5  1 -1</clus>
<clus scale="  131.172">  1  6  2 -1</clus>
<clus scale="   54.161">  1  3  2 -1</clus>
</clustering>
</event>
<event>
 6    0  0.2036847E+002  0.9764841E+02  0.7546771E-02  0.1285320E+00
         21   -1    0    0  506  501  0.00000000000E+00  0.00000000000E+00  0.97817139560E+02  0.97817139560E+02  0.00000000000E+00 0.  1.
         21   -1    0    0  503  502 -0.00000000000E+00 -0.00000000000E+00 -0.63385055035E+03  0.63385055035E+03  0.00000000000E+00 0. -1.
         21    1    1    2  503  505 -0.77256626117E+02  0.73347177949E+02 -0.35693461543E+03  0.37249256971E+03  0.00000000000E+00 0. -1.
         21    1    1    2  504  502  0.32863914252E+02  0.12395133218E+02 -0.14291428089E+03  0.14716714263E+03  0.00000000000E+00 0. -1.
         21    1    1    2  505  501  0.11166426303E+03 -0.36102322533E+02  0.76597066165E+01  0.11760508678E+03  0.00000000000E+00 0.  1.
         21    1    1    2  506  504 -0.67271551168E+02 -0.49639988634E+02 -0.43844221085E+02  0.94402890796E+02  0.00000000000E+00 0.  1.
<scales pt_clust_3="14000.00000" pt_clust_4="35.12373" pt_clust_5="97.64841" pt_clust_6="78.83509"></scales>
<clustering>
<clus scale="   35.124">  2  4  1 -1</clus>
<clus scale="   78.835">  1  6  2 -1</clus>
<clus scale="   97.648">  1  5  2 -1</clus>
<clus scale="   78.835">  1  3  2 -1</clus>
</clustering>
</event>
<event>
 6    0  0.2676149E+002  0.7344249E+02  0.7546771E-02  0.1348763E+00
         21   -1    0    0  505  501  0.00000000000E+00  0.00000000000E+00  0.72948619210E+03  0.72948619210E+03  0.00000000000E+00 0. -1.
         21   -1    0    0  504  502 -0.00000000000E+00 -0.00000000000E+00 -0.57366555556E+03  0.57366555556E+03  0.00000000000E+00 0.  1.
         21    1    1    2  503  501  0.21413221009E+02  0.81293349450E+02  0.56995621343E+03  0.57612257370E+03  0.00000000000E+00 0. -1.
         21    1    1    2  504  503 -0.65007235337E+02 -0.34325066856E+02 -0.54772152803E+03  0.55263281040E+03  0.00000000000E+00 0.  1.
         21    1    1    2  505  506  0.22302867874E+02  0.23083790540E+02  0.15964639205E+02  0.35848974965E+02  0.00000000000E+00 0. -1.
         21    1    1    2  506  502  0.21291146454E+02 -0.70052073134E+02  0.11762131193E+03  0.13854738860E+03  0.00000000000E+00 0. -1.
<scales pt_clust_3="73.44249" pt_clust_4="14000.00000" pt_clust_5="32.09796" pt_clust_6="70.56116"></scales>
<clustering>
<clus scale="   32.098">  1  5  2 -1</clus>
<clus scale="   70.561">  1  6  2 -1</clus>
<clus scale="   73.442">  1  3  2 -1</clus>
<clus scale="   32.098">  1  3  2 -1</clus>
</clustering>
</event>
<event>
 6    0  0.2036847E+002  0.9834114E+02  0.7546771E-02  0.1283823E+00
         21   -1    0    0  505  501  0.00000000000E+00  0.00000000000E+00  0.49879625264E+02  0.49879625264E+02  0.00000000000E+00 0. -1.
         21   -1    0    0  504  502 -0.00000000000E+00 -0.00000000000E+00 -0.19833661785E+04  0.19833661785E+04  0.00000000000E+00 0. -1.
         21    1    1    2  503  501  0.67154116619E+02  0.74918117193E+02 -0.16685484981E+02  0.10198433738E+03  0.00000000000E+00 0. -1.
         21    1    1    2  504  506 -0.47572177901E+02  0.99853430542E+01 -0.16472924120E+03  0.17175139618E+03  0.00000000000E+00 0. -1.
         21    1    1    2  505  502  0.46487654363E+02 -0.69330590083E+02 -0.64812196347E+03  0.65347525757E+03  0.00000000000E+00 0. -1.
         21    1    1    2  506  503 -0.66069593080E+02 -0.15572870164E+02 -0.11039498635E+04  0.11060348126E+04  0.00000000000E+00 0. -1.
<scales pt_clust_3="98.34114" pt_clust_4="48.60884" pt_clust_5="72.03683" pt_clust_6="14000.00000"></scales>
<clustering>
<clus scale="   48.609">  2  4  1 -1</clus>
<clus scale="   72.037">  2  5  1 -1</clus>
<clus scale="   98.341">  1  3  2 -1</clus>
<clus scale="   98.341">  1  3  2 -1</clus>
</clustering>
</event>
<event>
 6    0  0.2036847E+002  0.6577192E+02  0.7546771E-02  0.1375091E+00
         21   -1    0    0  504  501  0.00000000000E+00  0.00000000000E+00  0.62292574442E+03  0.62292574442E+03  0.00000000000E+00 0.  1.
         21   -1    0    0  505  502 -0.00000000000E+00 -0.00000000000E+00 -0.43271207943E+02  0.43271207943E+02  0.00000000000E+00 0.  1.
         21    1    1    2  503  501  0.39419677915E+02 -0.41187663468E+02  0.20840017450E+03  0.21605778709E+03  0.00000000000E+00 0.  1.
         21    1    1    2  504  506 -0.43166515684E+01  0.81096512165E+02  0.24848458480E+03  0.26141894853E+03  0.00000000000E+00 0.  1.
         21    1    1    2  505  503  0.31903615440E+02 -0.63145950350E+02  0.46997393346E+02  0.84935308942E+02  0.00000000000E+00 0.  1.
         21    1    1    2  506  502 -0.67006641787E+02  0.23237101653E+02  0.75772383826E+02  0.10378490780E+03  0.00000000000E+00 0. -1.
<scales pt_clust_3="57.01171" pt_clust_4="59.07252" pt_clust_5="14000.00000" pt_clust_6="65.77192"></scales>
<clustering>
<clus scale="   57.012">  1  3  2 -1</clus>
<clus scale="   59.073">  1  4  2 -1</clus>
<clus scale="   65.772">  1  6  2 -1</clus>
<clus scale="   57.012">  1  3  2 -1</clus>
</clustering>
</event>
<event>
 6    0  0.2036847E+002  0.1012312E+03  0.7546771E-02  0.1277728E+00
         21   -1    0    0  505  501  0.00000000000E+00  0.00000000000E+00  0.13261490499E+03  0.13261490499E+03  0.00000000000E+00 0.  1.
         21   -1    0    0  506  502 -0.00000000000E+00 -0.00000000000E+00 -0.92484424397E+03  0.92484424397E+03  0.00000000000E+00 0. -1.
         21    1    1    2  503  502  0.11266066932E+02  0.34702616425E+02 -0.23094225808E+03  0.23380659190E+03  0.00000000000E+00 0. -1.
         21    1    1    2  504  503  0.90949443215E+02 -0.33416440421E+01 -0.79652381774E+02  0.12094407686E+03  0.00000000000E+00 0. -1.
         21    1    1    2  505  504 -0.86964990441E+02 -0.64691215364E+02  0.83229357691E+02  0.13665646304E+03  0.00000000000E+00 0.  1.
         21    1    1    2  506  501 -0.15250519706E+02  0.33330242981E+02 -0.56486405682E+03  0.56605201716E+03  0.00000000000E+00 0. -1.
<scales pt_clust_3="36.48556" pt_clust_4="14000.00000" pt_clust_5="101.23115" pt_clust_6="61.96390"></scales>
<clustering>
<clus scale="   36.486">  2  3  1 -1</clus>
<clus scale="   61.964">  2  6  1 -1</clus>
<clus scale="  101.231">  1  5  2 -1</clus>
<clus scale="  101.231">  1  3  2 -1</clus>
</clustering>
</event>
<event>
 6    0  0.2036847E+002  0.1165647E+03  0.7546771E-02  0.1248874E+00
         21   -1    0    0  503  501  0.00000000000E+00  0.00000000000E+00  0.10014649828E+03  0.10014649828E+03  0.00000000000E+00 0. -1.
         21   -1    0    0  504  502 -0.00000000000E+00 -0.00000000000E+00 -0.36819562245E+03  0.36819562245E+03  0.00000000000E+00 0. -1.
         21    1    1    2  503  506  0.31833650534E+02  0.59777574564E+02 -0.14310912294E+03  0.15832549003E+03  0.00000000000E+00 0. -1.
         21    1    1    2  504  505 -0.62062830791E+02 -0.85089358736E+02  0.76234275854E+01  0.10559408404E+03  0.00000000000E+00 0. -1.
         21    1    1    2  505  501  0.35049612199E+02 -0.23759134498E+02  0.17985457706E+02  0.46004874484E+02  0.00000000000E+00 0. -1.
         21    1    1    2  506  502 -0.48204319420E+01  0.49070918670E+02 -0.15054888652E+03  0.15841767217E+03  0.00000000000E+00 0. -1.
<scales pt_clust_3="33.19475" pt_clust_4="109.88102" pt_clust_5="42.34350" pt_clust_6="33.19475"></scales>
<clustering>
<clus scale="   33.195">  3  6 -1 -1</clus>
<clus scale="   42.343">  1  5  2 -1</clus>
<clus scale="  109.881">  1  4  2 -1</clus>
<clus scale="   42.343">  1  3  2 -1</clus>
</clustering>
</event>
<event>
 6    0  0.2036847E+002  0.7422437E+02  0.7546771E-02  0.1346290E+00
         21   -1    0    0  505  501  0.00000000000E+00  0.00000000000E+00  0.80902349752E+03  0.80902349752E+03  0.00000000000E+00 0. -1.
         21   -1    0    0  504  502 -0.00000000000E+00 -0.00000000000E+00 -0.10348832848E+03  0.10348832848E+03  0.00000000000E+00 0.  1.
         21    1    1    2  503  502 -0.78689963760E+02  0.35597477259E+02 -0.53006003158E+02  0.10133571510E+03  0.00000000000E+00 0.  1.
         21    1    1    2  504  506  0.55491754789E+02 -0.41470751716E+01  0.23427421127E+02  0.60376958708E+02  0.00000000000E+00 0.  1.
         21    1    1    2  505  503 -0.36707358097E+02  0.14635912774E+02  0.62453215415E+02  0.73905643877E+02  0.00000000000E+00 0.  1.
         21    1    1    2  506  501  0.59905567068E+02 -0.46086314861E+02  0.67266053565E+03  0.67689350832E+03  0.00000000000E+00 0. -1.
<scales pt_clust_3="74.22437" pt_clust_4="14000.00000" pt_clust_5="39.51759" pt_clust_6="42.11509"></scales>
<clustering>
<clus scale="   39.518">  1  5  2 -1</clus>
<clus scale="   42.115">  1  6  2 -1</clus>
<clus scale="   74.224">  2  3  1 -1</clus>
<clus scale="   39.518">  1  3  2 -1</clus>
</clustering>
</event>
<event>
 6    0  0.2036847E+002  0.7076646E+02  0.7546771E-02  0.1357506E+00
         21   -1    0    0  506  501  0.00000000000E+00  0.00000000000E+00  0.72341933558E+03  0.72341933558E+03  0.00000000000E+00 0. -1.
         21   -1    0    0  504  502 -0.00000000000E+00 -0.00000000000E+00 -0.17442005818E+03  0.17442005818E+03  0.00000000000E+00 0. -1.
         21    1    1    2  503  502 -0.75865486555E+02  0.43769262559E+02 -0.10741353618E+03  0.13859649400E+03  0.00000000000E+00 0. -1.
         21    1    1    2  504  505  0.12257086988E+02 -0.69464698368E+02 -0.23236311354E+01  0.70576056581E+02  0.00000000000E+00 0. -1.
         21    1    1    2  505  501 -0.52666744622E+02  0.38044694049E+02  0.11124252768E+03  0.12882579206E+03  0.00000000000E+00 0. -1.
         21    1    1    2  506  503  0.11627514419E+03 -0.12349258239E+02  0.54749391703E+03  0.55984105112E+03  0.00000000000E+00 0. -1.
<scales pt_clust_3="70.76646" pt_clust_4="67.94942" pt_clust_5="64.97065" pt_clust_6="14000.00000"></scales>
<clustering>
<clus scale="   64.971">  1  5  2 -1</clus>
<clus scale="   67.949">  2  4  1 -1</clus>
<clus scale="   70.766">  2  3  1 -1</clus>
<clus scale="   64.971">  1  3  2 -1</clus>
</clustering>
</event>
<event>
 6    0  0.2036847E+002  0.1976243E+03  0.7546771E-02  0.1151759E+00
         21   -1    0    0  505  501  0.00000000000E+00  0.00000000000E+00  0.62404161334E+03  0.62404161334E+03  0.00000000000E+00 0.  1.
         21   -1    0    0  504  502 -0.00000000000E+00 -0.00000000000E+00 -0.87251845008E+03  0.87251845008E+03  0.00000000000E+00 0.  1.
         21    1    1    2  503  506  0.48526020359E+02 -0.11375452673E+02  0.75903480559E+02  0.90804812298E+02  0.00000000000E+00 0. -1.
         21    1    1    2  504  503  0.47124399515E+01  0.81518626345E+02 -0.13334598755E+03  0.15636062780E+03  0.00000000000E+00 0. -1.
         21    1    1    2  505  502 -0.18625458533E+03 -0.93008362849E+02 -0.69612161821E+03  0.72658559954E+03  0.00000000000E+00 0.  1.
         21    1    1    2  506  501  0.13301612502E+03  0.22865189177E+02  0.50508728846E+03  0.52280902379E+03  0.00000000000E+00 0.  1.
<scales pt_clust_3="46.60666" pt_clust_4="81.65472" pt_clust_5="182.13528" pt_clust_6="46.60666"></scales>
<clustering>
<clus scale="   46.607">  3  6 -1 -1</clus>
<clus scale="   81.655">  2  4  1 -1</clus>
<clus scale="  182.135">  2  5  1 -1</clus>
<clus scale="  197.624">  1  3  2 -1</clus>
</clustering>
</event>
<event>
 6    0  0.2036847E+002  0.1679239E+03  0.7546771E-02  0.1180030E+00
         21   -1    0    0  502  501  0.00000000000E+00  0.00000000000E+00  0.34220859649E+03  0.34220859649E+03  0.00000000000E+00 0.  1.
         21   -1    0    0  503  502 -0.00000000000E+00 -0.00000000000E+00 -0.20408382672E+03  0.20408382672E+03  0.00000000000E+00 0.  1.
         21    1    1    2  503  506  0.22475097964E+02 -0.37204818470E+02 -0.30497202566E+02  0.53098097049E+02  0.00000000000E+00 0. -1.
         21    1    1    2  504  505 -0.12183582063E+03  0.36833227333E+01  0.23322481658E+03  0.26315651070E+03  0.00000000000E+00 0.  1.
         21    1    1    2  505  501 -0.30171876931E+02  0.42624560331E+02  0.37964482276E+02  0.64563900249E+02  0.00000000000E+00 0. -1.
         21    1    1    2  506  504  0.12953259960E+03 -0.91030645943E+01 -0.10256732652E+03  0.16547391521E+03  0.00000000000E+00 0.  1.
<scales pt_clust_3="40.15425" pt_clust_4="152.91053" pt_clust_5="52.22256" pt_clust_6="40.15425"></scales>
<clustering>
<clus scale="   40.154">  3  6 -1 -1</clus>
<clus scale="   52.223">  1  5  2 -1</clus>
<clus scale="  152.911">  1  4  2 -1</clus>
<clus scale="   52.223">  1  3  2 -1</clus>
</clustering>
</event>
<event>
 6    0  0.2036847E+002  0.6384299E+02  0.7546771E-02  0.1382377E+00
         21   -1    0    0  504  501  0.00000000000E+00  0.00000000000E+00  0.10143556316E+04  0.10143556316E+04  0.00000000000E+00 0.  1.
         21   -1    0    0  503  502 -0.00000000000E+00 -0.00000000000E+00 -0.70106693204E+02  0.70106693204E+02  0.00000000000E+00 0.  1.
         21    1    1    2  503  505 -0.18820487767E+02 -0.68207634290E+02  0.15810385309E+03  0.17321466594E+03  0.00000000000E+00 0.  1.
         21    1    1    2  504  506 -0.38461211796E+02 -0.48846575231E+02  0.73908233273E+03  0.74169262318E+03  0.00000000000E+00 0.  1.
         21    1    1    2  505  501  0.12299939918E+02  0.71560142789E+02  0.70706595041E+02  0.10134873033E+03  0.00000000000E+00 0. -1.
         21    1    1    2  506  502  0.44981759645E+02  0.45494066731E+02 -0.23643842434E+02  0.68206305380E+02  0.00000000000E+00 0.  1.
<scales pt_clust_3="63.84299" pt_clust_4="62.17116" pt_clust_5="56.22246" pt_clust_6="14000.00000"></scales>
<clustering>
<clus scale="   62.171">  1  4  2 -1</clus>
<clus scale="   56.222">  1  5  2 -1</clus>
<clus scale="   63.843">  1  3  2 -1</clus>
<clus scale="   62.171">  1  3  2 -1</clus>
</clustering>
</event>
<event>
 6    0  0.2036847E+002  0.1373903E+03  0.7546771E-02  0.1216884E+00
         21   -1    0    0  503  501  0.00000000000E+00  0.00000000000E+00  0.13033170399E+03  0.13033170399E+03  0.00000000000E+00 0.  1.
         21   -1    0    0  505  502 -0.00000000000E+00 -0.00000000000E+00 -0.14697961051E+04  0.14697961051E+04  0.00000000000E+00 0.  1.
         21    1    1    2  503  502  0.16848254761E+02  0.28243625136E+02 -0.13684185037E+03  0.14073826083E+03  0.00000000000E+00 0.  1.
         21    1    1    2  504  501  0.61482914350E+02  0.63492631544E+01  0.38092253958E+02  0.72604970292E+02  0.00000000000E+00 0.  1.
         21    1    1    2  505  506 -0.13171654093E+03  0.53791432090E+02 -0.12711883809E+04  0.12791257425E+04  0.00000000000E+00 0.  1.
         21    1    1    2  506  504  0.53385371823E+02 -0.88384320380E+02  0.30473576193E+02  0.10765883549E+03  0.00000000000E+00 0.  1.
<scales pt_clust_3="32.88717" pt_clust_4="62.06572" pt_clust_5="14000.00000" pt_clust_6="137.39029"></scales>
<clustering>
<clus scale="   32.887">  2  3  1 -1</clus>
<clus scale="   62.066">  1  4  2 -1</clus>
<clus scale="  137.390">  1  6  2 -1</clus>
<clus scale="   62.066">  1  3  2 -1</clus>
</clustering>
</event>
<event>
 6    0  0.2036847E+002  0.9623918E+02  0.7546771E-02  0.1288409E+00
         21   -1    0    0  505  501  0.00000000000E+00  0.00000000000E+00  0.36575698671E+03  0.36575698671E+03  0.00000000000E+00 0. -1.
         21   -1    0    0  503  502 -0.00000000000E+00 -0.00000000000E+00 -0.28908629110E+03  0.28908629110E+03  0.00000000000E+00 0. -1.
         21    1    1    2  503  506 -0.60623822842E+02 -0.57950425450E+02 -0.18641781994E+03  0.20441404868E+03  0.00000000000E+00 0. -1.
         21    1    1    2  504  502 -0.42964729749E+02  0.46429171224E+02 -0.66024311335E+02  0.91437659803E+02  0.00000000000E+00 0. -1.
         21    1    1    2  505  504  0.47150502312E+02 -0.43129840282E+02  0.16807020284E+03  0.17980808123E+03  0.00000000000E+00 0. -1.
         21    1    1    2  506  501  0.56438050279E+02  0.54651094508E+02  0.16104262404E+03  0.17918348810E+03  0.00000000000E+00 0. -1.
<scales pt_clust_3="14000.00000" pt_clust_4="63.25849" pt_clust_5="62.14248" pt_clust_6="96.23918"></scales>
<clustering>
<clus scale="   63.258">  2  4  1 -1</clus>
<clus scale="   62.142">  1  5  2 -1</clus>
<clus scale="   96.239">  1  6  2 -1</clus>
<clus scale="   62.142">  1  3  2 -1</clus>
</clustering>
</event>
<event>
 6    0  0.2036847E+002  0.1628364E+03  0.7546771E-02  0.1185531E+00
         21   -1    0    0  504  501  0.00000000000E+00  0.00000000000E+00  0.47859742169E+03  0.47859742169E+03  0.00000000000E+00 0. -1.
         21   -1    0    0  503  502 -0.00000000000E+00 -0.00000000000E+00 -0.72413685493E+02  0.72413685493E+02  0.00000000000E+00 0. -1.
         21    1    1    2  503  506  0.72350304819E+00 -0.10825699910E+03  0.13050211989E+03  0.16956091710E+03  0.00000000000E+00 0. -1.
         21    1    1    2  504  502 -0.45495632418E+02  0.15177411060E+02  0.51110590299E+02  0.70089220400E+02  0.00000000000E+00 0. -1.
         21    1    1    2  505  501  0.18030641215E+02  0.14856593024E+03  0.18581663405E+03  0.23858910524E+03  0.00000000000E+00 0. -1.
         21    1    1    2  506  505  0.26741488155E+02 -0.55486342198E+02  0.38754391958E+02  0.72771864448E+02  0.00000000000E+00 0. -1.
<scales pt_clust_3="37.79878" pt_clust_4="47.96047" pt_clust_5="154.93385" pt_clust_6="37.79878"></scales>
<clustering>
<clus scale="   37.799">  3  6 -1 -1</clus>
<clus scale="   47.960">  2  4  1 -1</clus>
<clus scale="  154.934">  1  5  2 -1</clus>
<clus scale="  154.934">  1  3  2 -1</clus>
</clustering>
</event>
<event>
 6    0  0.2036847E+002  0.2387181E+03  0.7546771E-02  0.1120650E+00
         21   -1    0    0  503  501  0.00000000000E+00  0.00000000000E+00  0.25956438585E+04  0.25956438585E+04  0.00000000000E+00 0. -1.
         21   -1    0    0  504  502 -0.00000000000E+00 -0.00000000000E+00 -0.74137587636E+03  0.74137587636E+03  0.00000000000E+00 0.  1.
         21    1    1    2  503  505 -0.25168752947E+02  0.39654596299E+02  0.47962115834E+03  0.48191535425E+03  0.00000000000E+00 0.  1.
         21    1    1    2  504  501  0.55906139764E+02  0.12303421987E+02 -0.23112117733E+02  0.61733626509E+02  0.00000000000E+00 0.  1.
         21    1    1    2  505  506  0.75388996914E+02  0.17604596223E+03  0.20683369354E+04  0.20771839976E+04  0.00000000000E+00 0. -1.
         21    1    1    2  506  502 -0.10612638373E+03 -0.22800398052E+03 -0.67057799380E+03  0.71618675653E+03  0.00000000000E+00 0.  1.
<scales pt_clust_3="43.87792" pt_clust_4="57.24396" pt_clust_5="43.87792" pt_clust_6="221.66657"></scales>
<clustering>
<clus scale="   43.878">  3  5 -1 -1</clus>
<clus scale="   57.244">  2  4  1 -1</clus>
<clus scale="  221.667">  2  6  1 -1</clus>
<clus scale="  238.718">  1  3  2 -1</clus>
</clustering>
</event>
<event>
 6    0  0.2036847E+002  0.1068620E+03  0.7546771E-02  0.1266494E+00
         21   -1    0    0  506  501  0.00000000000E+00  0.00000000000E+00  0.36139709767E+03  0.36139709767E+03  0.00000000000E+00 0.  1.
         21   -1    0    0  504  502 -0.00000000000E+00 -0.00000000000E+00 -0.48404323633E+03  0.48404323633E+03  0.00000000000E+00 0. -1.
         21    1    1    2  503  501 -0.39661752328E+02 -0.18819547999E+02  0.13117310014E+03  0.13832430078E+03  0.00000000000E+00 0.  1.
         21    1    1    2  504  503  0.96098437685E+02  0.71859337048E+02 -0.35082581447E+03  0.37077948452E+03  0.00000000000E+00 0. -1.
         21    1    1    2  505  502 -0.80558210168E+02 -0.33944938114E+02 -0.10236099895E+03  0.13460927961E+03  0.00000000000E+00 0. -1.
         21    1    1    2  506  505  0.24121524811E+02 -0.19094850935E+02  0.19936757461E+03  0.20172726910E+03  0.00000000000E+00 0.  1.
<scales pt_clust_3="39.88258" pt_clust_4="106.86203" pt_clust_5="14000.00000" pt_clust_6="30.76461"></scales>
<clustering>
<clus scale="   30.765">  1  6  2 -1</clus>
<clus scale="   39.883">  1  3  2 -1</clus>
<clus scale="  106.862">  2  4  1 -1</clus>
<clus scale="   30.765">  1  3  2 -1</clus>
</clustering>
</event>
<event>
 6    0  0.2036847E+002  0.3023526E+03  0.7546771E-02  0.1084070E+00
         21   -1    0    0  504  501  0.00000000000E+00  0.00000000000E+00  0.10515363567E+04  0.10515363567E+04  0.00000000000E+00 0. -1.
         21   -1    0    0  506  502 -0.00000000000E+00 -0.00000000000E+00 -0.47974161243E+03  0.47974161243E+03  0.00000000000E+00 0.  1.
         21    1    1    2  503  505  0.12915276807E+03  0.68060852079E+02 -0.19732245310E+03  0.24545644743E+03  0.00000000000E+00 0.  1.
         21    1    1    2  504  502 -0.11013319844E+02 -0.35511063227E+02  0.57617033479E+02  0.68571505543E+02  0.00000000000E+00 0. -1.
         21    1    1    2  505  501 -0.23660240267E+03 -0.13684229905E+03  0.91772345385E+03  0.95756088554E+03  0.00000000000E+00 0. -1.
         21    1    1    2  506  503  0.11846295444E+03  0.10429251020E+03 -0.20622328994E+03  0.25968913064E+03  0.00000000000E+00 0.  1.
<scales pt_clust_3="34.72537" pt_clust_4="37.17968" pt_clust_5="300.18904" pt_clust_6="34.72537"></scales>
<clustering>
<clus scale="   34.725">  3  6 -1 -1</clus>
<clus scale="   37.180">  1  4  2 -1</clus>
<clus scale="  300.189">  1  5  2 -1</clus>
<clus scale="   37.180">  1  3  2 -1</clus>
</clustering>
</event>
<event>
 6    0  0.2036847E+002  0.1087142E+03  0.7546771E-02  0.1262970E+00
         21   -1    0    0  503  501  0.00000000000E+00  0.00000000000E+00  0.21009596360E+02  0.21009596360E+02  0.00000000000E+00 0. -1.
         21   -1    0    0  504  502 -0.00000000000E+00 -0.00000000000E+00 -0.15444336878E+04  0.15444336878E+04  0.00000000000E+00 0. -1.
         21    1    1    2  503  502  0.50290892325E+02 -0.41328497756E+02 -0.83932772947E+02  0.10621642506E+03  0.00000000000E+00 0. -1.
         21    1    1    2  504  506 -0.52602123441E+01  0.57052394552E+02 -0.41811834001E+03  0.42202558194E+03  0.00000000000E+00 0. -1.
         21    1    1    2  505  501 -0.30022864357E+02 -0.74085947330E+02 -0.22920923697E+03  0.24274878843E+03  0.00000000000E+00 0. -1.
         21    1    1    2  506  505 -0.15007815624E+02  0.58362050535E+02 -0.79216374154E+03  0.79445248875E+03  0.00000000000E+00 0.  1.
<scales pt_clust_3="65.09392" pt_clust_4="35.22297" pt_clust_5="102.53721" pt_clust_6="35.22297"></scales>
<clustering>
<clus scale="   35.223">  4  6 -1 -1</clus>
<clus scale="   65.094">  1  3  2 -1</clus>
<clus scale="  102.537">  1  5  2 -1</clus>
<clus scale="   65.094">  1  3  2 -1</clus>
</clustering>
</event>
<event>
 6    0  0.2036847E+002  0.1211716E+03  0.7546771E-02  0.1241177E+00
         21   -1    0    0  505  501  0.00000000000E+00  0.00000000000E+00  0.12779955535E+03  0.12779955535E+03  0.00000000000E+00 0. -1.
         21   -1    0    0  501  502 -0.00000000000E+00 -0.00000000000E+00 -0.70450719228E+03  0.70450719228E+03  0.00000000000E+00 0. -1.
         21    1    1    2  503  504  0.10279248837E+03 -0.19827558606E+01 -0.94218877567E+01  0.10324242808E+03  0.00000000000E+00 0. -1.
         21    1    1    2  504  506 -0.59354717832E+02 -0.97023600296E+01 -0.27873848448E+03  0.28515304847E+03  0.00000000000E+00 0. -1.
         21    1    1    2  505  503 -0.56592464704E+01  0.62578351033E+02  0.61648300493E+02  0.88026075922E+02  0.00000000000E+00 0. -1.
         21    1    1    2  506  502 -0.37778524069E+02 -0.50893235143E+02 -0.35019556518E+03  0.35588519516E+03  0.00000000000E+00 0. -1.
<scales pt_clust_3="111.43270" pt_clust_4="46.36270" pt_clust_5="62.83373" pt_clust_6="46.36270"></scales>
<clustering>
<clus scale="   46.363">  4  6 -1 -1</clus>
<clus scale="   62.834">  1  5  2 -1</clus>
<clus scale="  111.433">  1  3  2 -1</clus>
<clus scale="   62.834">  1  3  2 -1</clus>
</clustering>
</event>
