<event>
 6    0  0.1463946E+003  0.1769603E+03  0.7546771E-02  0.1170778E+00
         21   -1    0    0  504  501  0.00000000000E+00  0.00000000000E+00  0.17496318286E+03  0.17496318286E+03  0.00000000000E+00 0. -1.
         21   -1    0    0  503  502 -0.00000000000E+00 -0.00000000000E+00 -0.28107695978E+03  0.28107695978E+03  0.00000000000E+00 0. -1.
         21    1    1    2  503  506 -0.81870339698E+02 -0.96067987033E+02 -0.13990454613E+01  0.12622902987E+03  0.00000000000E+00 0. -1.
         21    1    1    2  504  505  0.10137325091E+03  0.11422133826E+03 -0.33687234558E+02  0.15639015278E+03  0.00000000000E+00 0. -1.
         21    1    1    2  505  502 -0.16705652898E+02  0.30741970047E+02 -0.10705129371E+03  0.11262382983E+03  0.00000000000E+00 0. -1.
         21    1    1    2  506  501 -0.27972583181E+01 -0.48895321278E+02  0.36023796812E+02  0.60797130143E+02  0.00000000000E+00 0. -1.
<scales pt_clust_3="46.32937" pt_clust_4="160.36830" pt_clust_5="34.98782" pt_clust_6="46.32937"></scales>
<clustering>
<clus scale="   34.988">  2  5  1 -1</clus>
<clus scale="   46.329">  3  6 -1 -1</clus>
<clus scale="  160.368">  2  4  1 -1</clus>
<clus scale="  176.960">  1  3  2 -1</clus>
</clustering>
</event>
<event>
 6    0  0.1463946E+003  0.1340445E+03  0.7546771E-02  0.1221575E+00
         21   -1    0    0  506  501  0.00000000000E+00  0.00000000000E+00  0.23275847088E+03  0.23275847088E+03  0.00000000000E+00 0.  1.
         21   -1    0    0  505  502 -0.00000000000E+00 -0.00000000000E+00 -0.67447571919E+03  0.67447571919E+03  0.00000000000E+00 0.  1.
         21    1    1    2  503  504  0.87574487392E+02 -0.70965152223E+02 -0.21528788986E+03  0.24301073884E+03  0.00000000000E+00 0.  1.
         21    1    1    2  504  501 -0.28538033150E+02 -0.14946945868E+02  0.11809495471E+03  0.12241016647E+03  0.00000000000E+00 0.  1.
         21    1    1    2  505  503 -0.72771474409E+02 -0.74341238104E+02 -0.36512743339E+03  0.37965820126E+03  0.00000000000E+00 0.  1.
         21    1    1    2  506  502  0.13735020166E+02  0.16025333619E+03  0.20603120227E+02  0.16215508350E+03  0.00000000000E+00 0.  1.
<scales pt_clust_3="14000.00000" pt_clust_4="32.21538" pt_clust_5="106.01120" pt_clust_6="134.04446"></scales>
<clustering>
<clus scale="   32.215">  1  4  2 -1</clus>
<clus scale="  106.011">  2  5  1 -1</clus>
<clus scale="  134.044">  1  6  2 -1</clus>
<clus scale="   32.215">  1  3  2 -1</clus>
</clustering>
</event>
<event>
 6    0  0.1463946E+003  0.1456965E+03  0.7546771E-02  0.1205863E+00
         21   -1    0    0  503  501  0.00000000000E+00  0.00000000000E+00  0.11752534396E+04  0.11752534396E+04  0.00000000000E+00 0.  1.
         21   -1    0    0  505  502 -0.00000000000E+00 -0.00000000000E+00 -0.40538663038E+03  0.40538663038E+03  0.00000000000E+00 0.  1.
         21    1    1    2  503  502  0.16440065947E+03  0.11958562421E+02  0.11727848970E+03  0.20229885861E+03  0.00000000000E+00 0.  1.
         21    1    1    2  504  506 -0.12787796261E+03 -0.84342330406E+02  0.43042580183E+02  0.15911965853E+03  0.00000000000E+00 0.  1.
         21    1    1    2  505  504  0.17859973934E+02  0.24925692245E+02 -0.30263756701E+03  0.30418705720E+03  0.00000000000E+00 0.  1.
         21    1    1    2  506  501 -0.54382670790E+02  0.47458075741E+02  0.91218330636E+03  0.91503449565E+03  0.00000000000E+00 0.  1.
<scales pt_clust_3="14000.00000" pt_clust_4="145.69652" pt_clust_5="30.66380" pt_clust_6="72.22081"></scales>
<clustering>
<clus scale="   30.664">  2  5  1 -1</clus>
<clus scale="   72.221">  1  6  2 -1</clus>
<clus scale="  145.697">  2  4  1 -1</clus>
<clus scale="   72.221">  1  3  2 -1</clus>
</clustering>
</event>
<event>
 6    0  0.1463946E+003  0.1358891E+03  0.7546771E-02  0.1218970E+00
         21   -1    0    0  504  501  0.00000000000E+00  0.00000000000E+00  0.47555601850E+03  0.47555601850E+03  0.00000000000E+00 0.  1.
         21   -1    0    0  505  502 -0.00000000000E+00 -0.00000000000E+00 -0.64042604330E+03  0.64042604330E+03  0.00000000000E+00 0. -1.
         21    1    1    2  503  501  0.45136781827E+02 -0.76331325557E+01  0.14933753281E+03  0.15619632675E+03  0.00000000000E+00 0.  1.
         21    1    1    2  504  502 -0.10678452438E+03 -0.16314179199E+02  0.49772377333E+02  0.11893854142E+03  0.00000000000E+00 0.  1.
         21    1    1    2  505  506  0.13131542126E+03 -0.48081182142E+02 -0.58324153536E+03  0.59977181370E+03  0.00000000000E+00 0. -1.
         21    1    1    2  506  503 -0.69667678703E+02  0.72028493896E+02  0.21926160042E+03  0.24107537993E+03  0.00000000000E+00 0.  1.
<scales pt_clust_3="45.77766" pt_clust_4="14000.00000" pt_clust_5="135.88912" pt_clust_6="76.41054"></scales>
<clustering>
<clus scale="   45.778">  1  3  2 -1</clus>
<clus scale="   76.411">  1  6  2 -1</clus>
<clus scale="  135.889">  2  5  1 -1</clus>
<clus scale="   45.778">  1  3  2 -1</clus>
</clustering>
</event>
<event>
 6    0  0.1463946E+003  0.7263049E+02  0.7546771E-02  0.1351370E+00
         21   -1    0    0  506  501  0.00000000000E+00  0.00000000000E+00  0.84961854839E+02  0.84961854839E+02  0.00000000000E+00 0.  1.
         21   -1    0    0  504  502 -0.00000000000E+00 -0.00000000000E+00 -0.49652290850E+03  0.49652290850E+03  0.00000000000E+00 0.  1.
         21    1    1    2  503  502  0.57995962447E+02  0.21992236853E+02 -0.19170169831E+03  0.20148630544E+03  0.00000000000E+00 0.  1.
         21    1    1    2  504  505 -0.70243157713E+02 -0.10673673227E+02 -0.76372581273E+02  0.10431107168E+03  0.00000000000E+00 0.  1.
         21    1    1    2  505  501 -0.26019592687E+02 -0.72632164540E+02 -0.17917603723E+03  0.19508075981E+03  0.00000000000E+00 0.  1.
         21    1    1    2  506  503  0.38266787953E+02  0.61313600915E+02  0.35689263153E+02  0.80606626413E+02  0.00000000000E+00 0.  1.
<scales pt_clust_3="62.02572" pt_clust_4="52.92927" pt_clust_5="72.63049" pt_clust_6="14000.00000"></scales>
<clustering>
<clus scale="   62.026">  2  3  1 -1</clus>
<clus scale="   52.929">  2  4  1 -1</clus>
<clus scale="   72.630">  2  5  1 -1</clus>
<clus scale="   72.630">  1  3  2 -1</clus>
</clustering>
</event>
<event>
 6    0  0.1463946E+003  0.1016577E+03  0.7546771E-02  0.1276848E+00
         21   -1    0    0  504  501  0.00000000000E+00  0.00000000000E+00  0.35230171221E+03  0.35230171221E+03  0.00000000000E+00 0.  1.
         21   -1    0    0  505  502 -0.00000000000E+00 -0.00000000000E+00 -0.97818505644E+03  0.97818505644E+03  0.00000000000E+00 0.  1.
         21    1    1    2  503  502  0.13367663371E+02  0.34700900907E+02 -0.42388423701E+03  0.42551227166E+03  0.00000000000E+00 0.  1.
         21    1    1    2  504  503  0.81755085094E+02  0.86796069428E+02 -0.22105256902E+03  0.25116068538E+03  0.00000000000E+00 0.  1.
         21    1    1    2  505  506  0.71084841930E+01 -0.11976423436E+03 -0.29770044702E+03  0.32096660034E+03  0.00000000000E+00 0. -1.
         21    1    1    2  506  501 -0.10223123266E+03 -0.17327359782E+01  0.31675390882E+03  0.33284721128E+03  0.00000000000E+00 0.  1.
<scales pt_clust_3="37.18665" pt_clust_4="101.65765" pt_clust_5="101.42389" pt_clust_6="14000.00000"></scales>
<clustering>
<clus scale="   37.187">  2  3  1 -1</clus>
<clus scale="  101.424">  2  5  1 -1</clus>
<clus scale="  101.658">  2  4  1 -1</clus>
<clus scale="  101.658">  1  3  2 -1</clus>
</clustering>
</event>
<event>
 6    0  0.1463946E+003  0.8872535E+02  0.7546771E-02  0.1305968E+00
         21   -1    0    0  505  501  0.00000000000E+00  0.00000000000E+00  0.51934688660E+03  0.51934688660E+03  0.00000000000E+00 0.  1.
         21   -1    0    0  503  502 -0.00000000000E+00 -0.00000000000E+00 -0.25027586789E+04  0.25027586789E+04  0.00000000000E+00 0.  1.
         21    1    1    2  503  504  0.37537883456E+02 -0.90039658302E+02 -0.22143641264E+04  0.22165118355E+04  0.00000000000E+00 0.  1.
         21    1    1    2  504  501 -0.40787776746E+02 -0.58914472199E+02  0.33110916033E+03  0.33877401586E+03  0.00000000000E+00 0.  1.
         21    1    1    2  505  506 -0.31284456789E+02  0.11068064423E+03  0.16253671744E+03  0.19911581243E+03  0.00000000000E+00 0.  1.
         21    1    1    2  506  502  0.34534350078E+02  0.38273486271E+02 -0.26269354370E+03  0.26770390170E+03  0.00000000000E+00 0.  1.
<scales pt_clust_3="14000.00000" pt_clust_4="71.56826" pt_clust_5="88.72535" pt_clust_6="51.55076"></scales>
<clustering>
<clus scale="   51.551">  2  6  1 -1</clus>
<clus scale="   71.568">  1  4  2 -1</clus>
<clus scale="   88.725">  1  5  2 -1</clus>
<clus scale="   71.568">  1  3  2 -1</clus>
</clustering>
</event>
<event>
 6    0  0.1463946E+003  0.6745343E+02  0.7546771E-02  0.1368973E+00
         21   -1    0    0  503  501  0.00000000000E+00  0.00000000000E+00  0.43130686329E+02  0.43130686329E+02  0.00000000000E+00 0. -1.
         21   -1    0    0  504  502 -0.00000000000E+00 -0.00000000000E+00 -0.23194835212E+04  0.23194835212E+04  0.00000000000E+00 0. -1.
         21    1    1    2  503  506 -0.75328445279E+02 -0.53915307942E+01 -0.20844876806E+03  0.22170776301E+03  0.00000000000E+00 0. -1.
         21    1    1    2  504  505 -0.38315711675E+02  0.17364234762E+02 -0.12597485913E+04  0.12604507621E+04  0.00000000000E+00 0. -1.
         21    1    1    2  505  501  0.49143451960E+02 -0.49717463058E+02 -0.10669234749E+01  0.69914543045E+02  0.00000000000E+00 0. -1.
         21    1    1    2  506  502  0.64500704995E+02  0.37744759090E+02 -0.80708855205E+03  0.81054113939E+03  0.00000000000E+00 0. -1.
<scales pt_clust_3="14000.00000" pt_clust_4="42.06674" pt_clust_5="67.45343" pt_clust_6="61.99668"></scales>
<clustering>
<clus scale="   42.067">  2  4  1 -1</clus>
<clus scale="   61.997">  2  6  1 -1</clus>
<clus scale="   67.453">  1  5  2 -1</clus>
<clus scale="   67.453">  1  3  2 -1</clus>
</clustering>
</event>
<event>
 6    0  0.1463946E+003  0.7539546E+02  0.7546771E-02  0.1342651E+00
         21   -1    0    0  504  501  0.00000000000E+00  0.00000000000E+00  0.32804441051E+03  0.32804441051E+03  0.00000000000E+00 0.  1.
         21   -1    0    0  503  502 -0.00000000000E+00 -0.00000000000E+00 -0.42478397535E+03  0.42478397535E+03  0.00000000000E+00 0.  1.
         21    1    1    2  503  506 -0.20047550118E+02 -0.73443809385E+02 -0.38440761402E+03  0.39187384592E+03  0.00000000000E+00 0.  1.
         21    1    1    2  504  502  0.14726174138E+02  0.50510495628E+02  0.49627272146E+02  0.72325904862E+02  0.00000000000E+00 0.  1.
         21    1    1    2  505  501 -0.72985738867E+02  0.16957459052E+02  0.16569737458E+03  0.18185184474E+03  0.00000000000E+00 0.  1.
         21    1    1    2  506  505  0.78307114847E+02  0.59758547051E+01  0.72343402453E+02  0.10677679033E+03  0.00000000000E+00 0.  1.
<scales pt_clust_3="75.39546" pt_clust_4="52.61340" pt_clust_5="74.28126" pt_clust_6="14000.00000"></scales>
<clustering>
<clus scale="   52.613">  1  4  2 -1</clus>
<clus scale="   75.395">  2  3  1 -1</clus>
<clus scale="   74.281">  1  5  2 -1</clus>
<clus scale="   52.613">  1  3  2 -1</clus>
</clustering>
</event>
<event>
 6    0  0.1463946E+003  0.5054622E+03  0.7546771E-02  0.1012363E+00
         21   -1    0    0  503  501  0.00000000000E+00  0.00000000000E+00  0.16400210669E+04  0.16400210669E+04  0.00000000000E+00 0.  1.
         21   -1    0    0  505  502 -0.00000000000E+00 -0.00000000000E+00 -0.25764688713E+03  0.25764688713E+03  0.00000000000E+00 0.  1.
         21    1    1    2  503  506  0.20835296081E+03 -0.21635039328E+03  0.50661417131E+03  0.58896211043E+03  0.00000000000E+00 0.  1.
         21    1    1    2  504  501 -0.27911976897E+03  0.30720577255E+03  0.17750336845E+03  0.45143180873E+03  0.00000000000E+00 0.  1.
         21    1    1    2  505  504 -0.55426967714E+02  0.43534843079E+02 -0.50146945015E+02  0.86499406970E+02  0.00000000000E+00 0.  1.
         21    1    1    2  506  502  0.12619377587E+03 -0.13439022235E+03  0.74840358499E+03  0.77077462786E+03  0.00000000000E+00 0.  1.
<scales pt_clust_3="156.74110" pt_clust_4="465.42250" pt_clust_5="70.48001" pt_clust_6="156.74110"></scales>
<clustering>
<clus scale="   70.480">  2  5  1 -1</clus>
<clus scale="  156.741">  3  6 -1 -1</clus>
<clus scale="  465.423">  2  4  1 -1</clus>
<clus scale="  505.462">  1  3  2 -1</clus>
</clustering>
</event>
<event>
 6    0  0.1463946E+003  0.9785369E+02  0.7546771E-02  0.1284875E+00
         21   -1    0    0  505  501  0.00000000000E+00  0.00000000000E+00  0.32524023759E+03  0.32524023759E+03  0.00000000000E+00 0. -1.
         21   -1    0    0  506  502 -0.00000000000E+00 -0.00000000000E+00 -0.85842236499E+02  0.85842236499E+02  0.00000000000E+00 0. -1.
         21    1    1    2  503  502 -0.33880820278E+02 -0.12358710403E+03  0.75246748529E+02  0.14860604102E+03  0.00000000000E+00 0. -1.
         21    1    1    2  504  501  0.41953678639E+02  0.39102209598E+02  0.10325290148E+03  0.11811120019E+03  0.00000000000E+00 0. -1.
         21    1    1    2  505  503 -0.40691503013E+02  0.72811708159E+01  0.41003712161E+02  0.58224722214E+02  0.00000000000E+00 0. -1.
         21    1    1    2  506  504  0.32618644652E+02  0.77203723613E+02  0.19894638919E+02  0.86140510658E+02  0.00000000000E+00 0. -1.
<scales pt_clust_3="97.85369" pt_clust_4="49.21621" pt_clust_5="41.33780" pt_clust_6="14000.00000"></scales>
<clustering>
<clus scale="   41.338">  1  5  2 -1</clus>
<clus scale="   49.216">  1  4  2 -1</clus>
<clus scale="   97.854">  1  3  2 -1</clus>
<clus scale="   41.338">  1  3  2 -1</clus>
</clustering>
</event>
<event>
 6    0  0.1463946E+003  0.7274091E+02  0.7546771E-02  0.1351013E+00
         21   -1    0    0  504  501  0.00000000000E+00  0.00000000000E+00  0.16844133198E+03  0.16844133198E+03  0.00000000000E+00 0. -1.
         21   -1    0    0  506  502 -0.00000000000E+00 -0.00000000000E+00 -0.33269714563E+03  0.33269714563E+03  0.00000000000E+00 0. -1.
         21    1    1    2  503  502  0.65986629390E+02  0.31727842374E+02 -0.34355481601E+02  0.80877625806E+02  0.00000000000E+00 0. -1.
         21    1    1    2  504  503 -0.94553942079E+02 -0.94421401149E+00  0.47552800875E+02  0.10584237513E+03  0.00000000000E+00 0. -1.
         21    1    1    2  505  501  0.61596245456E+02  0.66123219923E+01  0.51209648711E+02  0.80375670308E+02  0.00000000000E+00 0. -1.
         21    1    1    2  506  505 -0.33028932767E+02 -0.37395950355E+02 -0.22866278164E+03  0.23404280636E+03  0.00000000000E+00 0. -1.
<scales pt_clust_3="48.35545" pt_clust_4="72.74091" pt_clust_5="14000.00000" pt_clust_6="49.89356"></scales>
<clustering>
<clus scale="   49.894">  2  6  1 -1</clus>
<clus scale="   48.355">  2  3  1 -1</clus>
<clus scale="   72.741">  2  4  1 -1</clus>
<clus scale="   72.741">  1  3  2 -1</clus>
</clustering>
</event>
<event>
 6    0  0.1463946E+003  0.1136236E+03  0.7546771E-02  0.1254003E+00
         21   -1    0    0  505  501  0.00000000000E+00  0.00000000000E+00  0.34769003721E+03  0.34769003721E+03  0.00000000000E+00 0.  1.
         21   -1    0    0  506  502 -0.00000000000E+00 -0.00000000000E+00 -0.19160558654E+04  0.19160558654E+04  0.00000000000E+00 0.  1.
         21    1    1    2  503  504 -0.30395085659E+02  0.43016660579E+02 -0.11587133396E+04  0.11599098662E+04  0.00000000000E+00 0.  1.
         21    1    1    2  504  502 -0.71365221160E+00  0.56579388650E+02 -0.72052264369E+03  0.72274104394E+03  0.00000000000E+00 0.  1.
         21    1    1    2  505  503  0.53624479937E+02 -0.14813009046E+03  0.27419427933E+03  0.31622873267E+03  0.00000000000E+00 0.  1.
         21    1    1    2  506  501 -0.22515742066E+02  0.48534041235E+02  0.36675875766E+02  0.64866259817E+02  0.00000000000E+00 0.  1.
<scales pt_clust_3="42.70787" pt_clust_4="42.70787" pt_clust_5="104.64641" pt_clust_6="53.50245"></scales>
<clustering>
<clus scale="   42.708">  3  4 -1 -1</clus>
<clus scale="   53.502">  1  6  2 -1</clus>
<clus scale="  104.646">  1  5  2 -1</clus>
<clus scale="   53.502">  1  3  2 -1</clus>
</clustering>
</event>
<event>
 6    0  0.1463946E+003  0.1611947E+03  0.7546771E-02  0.1187354E+00
         21   -1    0    0  506  501  0.00000000000E+00  0.00000000000E+00  0.25866966346E+03  0.25866966346E+03  0.00000000000E+00 0.  1.
         21   -1    0    0  504  502 -0.00000000000E+00 -0.00000000000E+00 -0.87470346408E+03  0.87470346408E+03  0.00000000000E+00 0. -1.
         21    1    1    2  503  505  0.14869935151E+02 -0.46898806789E+02  0.11094897589E+03  0.12136839911E+03  0.00000000000E+00 0.  1.
         21    1    1    2  504  503 -0.66392674121E+02 -0.89174649671E+02 -0.40741204928E+03  0.42230875343E+03  0.00000000000E+00 0. -1.
         21    1    1    2  505  501  0.98653646115E+00 -0.96640719314E+02  0.79386652030E+02  0.12507054971E+03  0.00000000000E+00 0.  1.
         21    1    1    2  506  502  0.50536202509E+02  0.23271417577E+03 -0.39895737926E+03  0.46462542530E+03  0.00000000000E+00 0.  1.
<scales pt_clust_3="43.10280" pt_clust_4="111.17601" pt_clust_5="43.10280" pt_clust_6="149.44650"></scales>
<clustering>
<clus scale="   43.103">  3  5 -1 -1</clus>
<clus scale="  111.176">  2  4  1 -1</clus>
<clus scale="  149.447">  2  6  1 -1</clus>
<clus scale="  161.195">  1  3  2 -1</clus>
</clustering>
</event>
<event>
 6    0  0.1463946E+003  0.1164312E+03  0.7546771E-02  0.1249103E+00
         21   -1    0    0  506  501  0.00000000000E+00  0.00000000000E+00  0.73628222316E+03  0.73628222316E+03  0.00000000000E+00 0. -1.
         21   -1    0    0  505  502 -0.00000000000E+00 -0.00000000000E+00 -0.69870683585E+03  0.69870683585E+03  0.00000000000E+00 0. -1.
         21    1    1    2  503  501  0.16807653017E+03 -0.36275799010E+02  0.28902701726E+03  0.33630680976E+03  0.00000000000E+00 0. -1.
         21    1    1    2  504  503 -0.64899134399E+02 -0.54338655355E+02 -0.23451977194E+03  0.24932731608E+03  0.00000000000E+00 0.  1.
         21    1    1    2  505  504 -0.53213466748E+02  0.50807615922E+02 -0.42753126204E+03  0.43381570615E+03  0.00000000000E+00 0. -1.
         21    1    1    2  506  502 -0.49963929018E+02  0.39806838444E+02  0.41059940404E+03  0.41553922702E+03  0.00000000000E+00 0. -1.
<scales pt_clust_3="116.43117" pt_clust_4="14000.00000" pt_clust_5="74.19227" pt_clust_6="63.88254"></scales>
<clustering>
<clus scale="   63.883">  1  6  2 -1</clus>
<clus scale="   74.192">  2  5  1 -1</clus>
<clus scale="  116.431">  1  3  2 -1</clus>
<clus scale="   63.883">  1  3  2 -1</clus>
</clustering>
</event>
<event>
 6    0  0.1463946E+003  0.1746194E+03  0.7546771E-02  0.1173114E+00
         21   -1    0    0  505  501  0.00000000000E+00  0.00000000000E+00  0.10724427402E+04  0.10724427402E+04  0.00000000000E+00 0. -1.
         21   -1    0    0  504  502 -0.00000000000E+00 -0.00000000000E+00 -0.22462454182E+04  0.22462454182E+04  0.00000000000E+00 0.  1.
         21    1    1    2  503  501  0.15584473710E+03 -0.56646904487E+02  0.40504143535E+02  0.17069575131E+03  0.00000000000E+00 0.  1.
         21    1    1    2  504  503 -0.13026929828E+03  0.14634934215E+03 -0.17039147266E+04  0.17151424476E+04  0.00000000000E+00 0.  1.
         21    1    1    2  505  506 -0.15560287257E+02 -0.47636703698E+02  0.95958254108E+03  0.96089022849E+03  0.00000000000E+00 0. -1.
         21    1    1    2  506  502 -0.10015151572E+02 -0.42065733962E+02 -0.46997463602E+03  0.47195973106E+03  0.00000000000E+00 0.  1.
<scales pt_clust_3="14000.00000" pt_clust_4="174.61941" pt_clust_5="50.12952" pt_clust_6="43.24152"></scales>
<clustering>
<clus scale="   43.242">  2  6  1 -1</clus>
<clus scale="   50.130">  1  5  2 -1</clus>
<clus scale="  174.619">  2  4  1 -1</clus>
<clus scale="   50.130">  1  3  2 -1</clus>
</clustering>
</event>
<event>
 6    0  0.1463946E+003  0.1552708E+03  0.7546771E-02  0.1194142E+00
         21   -1    0    0  503  501  0.00000000000E+00  0.00000000000E+00  0.33038774953E+03  0.33038774953E+03  0.00000000000E+00 0. -1.
         21   -1    0    0  505  502 -0.00000000000E+00 -0.00000000000E+00 -0.64554751497E+03  0.64554751497E+03  0.00000000000E+00 0.  1.
         21    1    1    2  503  504  0.52064223470E+02  0.11508376611E+02 -0.10025783908E+02  0.54255344812E+02  0.00000000000E+00 0. -1.
         21    1    1    2  504  502 -0.88250211771E+02  0.13152943200E+03 -0.57448865645E+03  0.59592391104E+03  0.00000000000E+00 0.  1.
         21    1    1    2  505  506  0.50530225880E+02 -0.71953457463E+02  0.22295365678E+03  0.23966421685E+03  0.00000000000E+00 0. -1.
         21    1    1    2  506  501 -0.14344237579E+02 -0.71084351153E+02  0.46401018140E+02  0.86091791798E+02  0.00000000000E+00 0.  1.
<scales pt_clust_3="53.32097" pt_clust_4="155.27081" pt_clust_5="14000.00000" pt_clust_6="68.68380"></scales>
<clustering>
<clus scale="   53.321">  1  3  2 -1</clus>
<clus scale="   68.684">  1  6  2 -1</clus>
<clus scale="  155.271">  2  4  1 -1</clus>
<clus scale="   53.321">  1  3  2 -1</clus>
</clustering>
</event>
<event>
 6    0  0.3336628E+003  0.1283248E+03  0.7546771E-02  0.1229963E+00
         21   -1    0    0  505  501  0.00000000000E+00  0.00000000000E+00  0.70117987606E+03  0.70117987606E+03  0.00000000000E+00 0. -1.
         21   -1    0    0  503  502 -0.00000000000E+00 -0.00000000000E+00 -0.17017900618E+04  0.17017900618E+04  0.00000000000E+00 0.  1.
         21    1    1    2  503  504 -0.94859585363E+02  0.86507871473E+02 -0.16806727601E+04  0.16855690076E+04  0.00000000000E+00 0.  1.
         21    1    1    2  504  501 -0.17204249651E+02 -0.44498031149E+02  0.57305317173E+02  0.74565141712E+02  0.00000000000E+00 0. -1.
         21    1    1    2  505  506  0.16268211546E+02  0.29314814491E+02  0.22660920188E+03  0.22907584646E+03  0.00000000000E+00 0. -1.
         21    1    1    2  506  502  0.95795623467E+02 -0.71324654815E+02  0.39614805538E+03  0.41375994204E+03  0.00000000000E+00 0. -1.
<scales pt_clust_3="128.32475" pt_clust_4="43.08689" pt_clust_5="33.52630" pt_clust_6="14000.00000"></scales>
<clustering>
<clus scale="   33.526">  1  5  2 -1</clus>
<clus scale="   43.087">  1  4  2 -1</clus>
<clus scale="  128.325">  2  3  1 -1</clus>
<clus scale="   33.526">  1  3  2 -1</clus>
</clustering>
</event>
<event>
 6    0  0.1463946E+003  0.1291093E+03  0.7546771E-02  0.1228783E+00
         21   -1    0    0  504  501  0.00000000000E+00  0.00000000000E+00  0.19004890180E+03  0.19004890180E+03  0.00000000000E+00 0. -1.
         21   -1    0    0  505  502 -0.00000000000E+00 -0.00000000000E+00 -0.32487973759E+03  0.32487973759E+03  0.00000000000E+00 0.  1.
         21    1    1    2  503  501 -0.20973883115E+02 -0.21568786367E+02  0.74221814617E+02  0.80087415262E+02  0.00000000000E+00 0. -1.
         21    1    1    2  504  502  0.10586316454E+03 -0.46454373653E+02 -0.55886559964E+02  0.12840687685E+03  0.00000000000E+00 0. -1.
         21    1    1    2  505  506 -0.91610510826E+02  0.10952735784E+03 -0.19855339567E+03  0.24456528523E+03  0.00000000000E+00 0.  1.
         21    1    1    2  506  503  0.67212294006E+01 -0.41504197822E+02  0.45387305230E+02  0.61869062039E+02  0.00000000000E+00 0. -1.
<scales pt_clust_3="30.08515" pt_clust_4="129.10929" pt_clust_5="14000.00000" pt_clust_6="51.85147"></scales>
<clustering>
<clus scale="   30.085">  1  3  2 -1</clus>
<clus scale="   51.851">  1  6  2 -1</clus>
<clus scale="  129.109">  1  4  2 -1</clus>
<clus scale="   30.085">  1  3  2 -1</clus>
</clustering>
</event>
<event>
 6    0  0.1463946E+003  0.1213006E+03  0.7546771E-02  0.1240967E+00
         21   -1    0    0  506  501  0.00000000000E+00  0.00000000000E+00  0.30760192342E+03  0.30760192342E+03  0.00000000000E+00 0.  1.
         21   -1    0    0  504  502 -0.00000000000E+00 -0.00000000000E+00 -0.48139004781E+03  0.48139004781E+03  0.00000000000E+00 0. -1.
         21    1    1    2  503  505 -0.92082305961E+02  0.90712597857E+02 -0.24295759984E+03  0.27520232884E+03  0.00000000000E+00 0. -1.
         21    1    1    2  504  503 -0.30660130045E+02  0.59680974627E+01 -0.14493045876E+03  0.14825821946E+03  0.00000000000E+00 0. -1.
         21    1    1    2  505  501  0.12300345051E+03  0.95583254668E+01  0.22715114625E+03  0.25849343060E+03  0.00000000000E+00 0.  1.
         21    1    1    2  506  502 -0.26101450308E+00 -0.10623902079E+03 -0.13051212033E+02  0.10703799233E+03  0.00000000000E+00 0.  1.
<scales pt_clust_3="121.30055" pt_clust_4="31.23558" pt_clust_5="14000.00000" pt_clust_6="105.32627"></scales>
<clustering>
<clus scale="   31.236">  2  4  1 -1</clus>
<clus scale="  105.326">  2  6  1 -1</clus>
<clus scale="  121.301">  2  3  1 -1</clus>
<clus scale="  121.301">  1  3  2 -1</clus>
</clustering>
</event>
<event>
 6    0  0.1463946E+003  0.6738574E+02  0.7546771E-02  0.1369216E+00
         21   -1    0    0  506  501  0.00000000000E+00  0.00000000000E+00  0.10996911982E+02  0.10996911982E+02  0.00000000000E+00 0.  1.
         21   -1    0    0  504  502 -0.00000000000E+00 -0.00000000000E+00 -0.19559447945E+04  0.19559447945E+04  0.00000000000E+00 0.  1.
         21    1    1    2  503  505  0.76540233754E+02  0.60296834636E+02 -0.75892791758E+03  0.76515730391E+03  0.00000000000E+00 0.  1.
         21    1    1    2  504  503  0.16903676033E+02 -0.44030921563E+02 -0.60856676985E+03  0.61039165269E+03  0.00000000000E+00 0.  1.
         21    1    1    2  505  501 -0.37921130671E+02 -0.46141944181E+02 -0.20062686630E+03  0.20932804553E+03  0.00000000000E+00 0.  1.
         21    1    1    2  506  502 -0.55522779117E+02  0.29876031108E+02 -0.37682632880E+03  0.38206470435E+03  0.00000000000E+00 0.  1.
<scales pt_clust_3="67.38574" pt_clust_4="47.16414" pt_clust_5="14000.00000" pt_clust_6="53.68069"></scales>
<clustering>
<clus scale="   47.164">  2  4  1 -1</clus>
<clus scale="   53.681">  2  6  1 -1</clus>
<clus scale="   67.386">  2  3  1 -1</clus>
<clus scale="   67.386">  1  3  2 -1</clus>
</clustering>
</event>
<event>
 6    0  0.1463946E+003  0.6914073E+02  0.7546771E-02  0.1363040E+00
         21   -1    0    0  506  501  0.00000000000E+00  0.00000000000E+00  0.15501404050E+02  0.15501404050E+02  0.00000000000E+00 0. -1.
         21   -1    0    0  503  502 -0.00000000000E+00 -0.00000000000E+00 -0.15069759125E+04  0.15069759125E+04  0.00000000000E+00 0. -1.
         21    1    1    2  503  504  0.83625997194E+02  0.20286315301E+02 -0.72866023302E+03  0.73372377444E+03  0.00000000000E+00 0. -1.
         21    1    1    2  504  501 -0.46738215890E+02  0.16888681243E+02 -0.11281393427E+03  0.12327478308E+03  0.00000000000E+00 0. -1.
         21    1    1    2  505  502 -0.57101312106E+02  0.24766159415E+02 -0.46892623759E+03  0.47303883434E+03  0.00000000000E+00 0. -1.
         21    1    1    2  506  505  0.20213530802E+02 -0.61941155959E+02 -0.18107410362E+03  0.19243992473E+03  0.00000000000E+00 0.  1.
<scales pt_clust_3="14000.00000" pt_clust_4="49.69596" pt_clust_5="69.14073" pt_clust_6="52.89892"></scales>
<clustering>
<clus scale="   49.696">  1  4  2 -1</clus>
<clus scale="   52.899">  1  6  2 -1</clus>
<clus scale="   69.141">  2  5  1 -1</clus>
<clus scale="   49.696">  1  3  2 -1</clus>
</clustering>
</event>
<event>
 6    0  0.1463946E+003  0.7849644E+02  0.7546771E-02  0.1333373E+00
         21   -1    0    0  504  501  0.00000000000E+00  0.00000000000E+00  0.67692893572E+03  0.67692893572E+03  0.00000000000E+00 0. -1.
         21   -1    0    0  503  502 -0.00000000000E+00 -0.00000000000E+00 -0.52129640582E+03  0.52129640582E+03  0.00000000000E+00 0.  1.
         21    1    1    2  503  501  0.91392387307E+01  0.50168653911E+02  0.49308751824E+03  0.49571737933E+03  0.00000000000E+00 0. -1.
         21    1    1    2  504  505 -0.52090705645E+02 -0.94457838417E+02  0.99803959014E+02  0.14695766427E+03  0.00000000000E+00 0. -1.
         21    1    1    2  505  506  0.84293313491E+01  0.77076198731E+02  0.32001912774E+02  0.83880369926E+02  0.00000000000E+00 0. -1.
         21    1    1    2  506  502  0.34522135565E+02 -0.32787014225E+02 -0.46926086013E+03  0.47166992801E+03  0.00000000000E+00 0.  1.
<scales pt_clust_3="50.33049" pt_clust_4="78.49644" pt_clust_5="14000.00000" pt_clust_6="47.61057"></scales>
<clustering>
<clus scale="   47.611">  2  6  1 -1</clus>
<clus scale="   50.330">  1  3  2 -1</clus>
<clus scale="   78.496">  1  4  2 -1</clus>
<clus scale="   50.330">  1  3  2 -1</clus>
</clustering>
</event>
<event>
 6    0  0.1463946E+003  0.7475473E+02  0.7546771E-02  0.1344632E+00
         21   -1    0    0  505  501  0.00000000000E+00  0.00000000000E+00  0.19839399543E+03  0.19839399543E+03  0.00000000000E+00 0. -1.
         21   -1    0    0  506  502 -0.00000000000E+00 -0.00000000000E+00 -0.13677246027E+03  0.13677246027E+03  0.00000000000E+00 0. -1.
         21    1    1    2  503  502 -0.11662004755E+02 -0.27689150233E+02 -0.84504047223E-01  0.30044941945E+02  0.00000000000E+00 0.  1.
         21    1    1    2  504  501  0.42268805023E+02 -0.46489526740E+02  0.10984232441E+02  0.63785432011E+02  0.00000000000E+00 0. -1.
         21    1    1    2  505  503 -0.18827176898E+02  0.12350827714E+03  0.10777653427E+03  0.16499860136E+03  0.00000000000E+00 0. -1.
         21    1    1    2  506  504 -0.11779623369E+02 -0.49329600167E+02 -0.57054727509E+02  0.76337480378E+02  0.00000000000E+00 0. -1.
<scales pt_clust_3="30.04482" pt_clust_4="65.84076" pt_clust_5="14000.00000" pt_clust_6="74.75473"></scales>
<clustering>
<clus scale="   30.045">  2  3  1 -1</clus>
<clus scale="   65.841">  1  4  2 -1</clus>
<clus scale="   74.755">  2  6  1 -1</clus>
<clus scale="   65.841">  1  3  2 -1</clus>
</clustering>
</event>
<event>
 6    0  0.1463946E+003  0.8432913E+02  0.7546771E-02  0.1317196E+00
         21   -1    0    0  505  501  0.00000000000E+00  0.00000000000E+00  0.12682836531E+03  0.12682836531E+03  0.00000000000E+00 0. -1.
         21   -1    0    0  503  502 -0.00000000000E+00 -0.00000000000E+00 -0.31866328314E+03  0.31866328314E+03  0.00000000000E+00 0. -1.
         21    1    1    2  503  504  0.36942490111E+01  0.12378409716E+03 -0.13070571665E+03  0.18005592062E+03  0.00000000000E+00 0. -1.
         21    1    1    2  504  501  0.60613321171E+02 -0.57551794129E+02 -0.22625314648E+02  0.86591504051E+02  0.00000000000E+00 0. -1.
         21    1    1    2  505  506 -0.34826665405E+02 -0.88467708014E+01  0.54726179425E+02  0.65468440422E+02  0.00000000000E+00 0. -1.
         21    1    1    2  506  502 -0.29480904777E+02 -0.57385532228E+02 -0.93230065950E+02  0.11337578336E+03  0.00000000000E+00 0. -1.
<scales pt_clust_3="14000.00000" pt_clust_4="84.32913" pt_clust_5="35.93274" pt_clust_6="68.22659"></scales>
<clustering>
<clus scale="   35.933">  1  5  2 -1</clus>
<clus scale="   68.227">  2  6  1 -1</clus>
<clus scale="   84.329">  1  4  2 -1</clus>
<clus scale="   35.933">  1  3  2 -1</clus>
</clustering>
</event>
<event>
 6    0  0.1463946E+003  0.2203648E+03  0.7546771E-02  0.1133611E+00
         21   -1    0    0  506  501  0.00000000000E+00  0.00000000000E+00  0.10365171509E+04  0.10365171509E+04  0.00000000000E+00 0. -1.
         21   -1    0    0  504  502 -0.00000000000E+00 -0.00000000000E+00 -0.11593196523E+04  0.11593196523E+04  0.00000000000E+00 0.  1.
         21    1    1    2  503  505 -0.14688941810E+03  0.19719250940E+03 -0.59971580252E+02  0.25309677467E+03  0.00000000000E+00 0.  1.
         21    1    1    2  504  501  0.13005749914E+03 -0.22779231144E+03  0.75752754511E+03  0.80165595603E+03  0.00000000000E+00 0. -1.
         21    1    1    2  505  502 -0.77274267931E+01 -0.53529544639E+02 -0.96793544809E+03  0.96944528311E+03  0.00000000000E+00 0.  1.
         21    1    1    2  506  503  0.24559345749E+02  0.84129346682E+02  0.14757698188E+03  0.17163878937E+03  0.00000000000E+00 0. -1.
<scales pt_clust_3="220.36485" pt_clust_4="14000.00000" pt_clust_5="54.08443" pt_clust_6="84.26251"></scales>
<clustering>
<clus scale="   54.084">  2  5  1 -1</clus>
<clus scale="   84.263">  1  6  2 -1</clus>
<clus scale="  220.365">  2  3  1 -1</clus>
<clus scale="   84.263">  1  3  2 -1</clus>
</clustering>
</event>
<event>
 6    0  0.1463946E+003  0.1091213E+03  0.7546771E-02  0.1262206E+00
         21   -1    0    0  504  501  0.00000000000E+00  0.00000000000E+00  0.29871400784E+02  0.29871400784E+02  0.00000000000E+00 0.  1.
         21   -1    0    0  506  502 -0.00000000000E+00 -0.00000000000E+00 -0.12812560984E+04  0.12812560984E+04  0.00000000000E+00 0.  1.
         21    1    1    2  503  501  0.35459155946E+02 -0.88971814964E+02 -0.23971268133E+03  0.25813853875E+03  0.00000000000E+00 0.  1.
         21    1    1    2  504  502  0.18972289014E+02  0.12954345985E+03 -0.24515077679E+03  0.27792149808E+03  0.00000000000E+00 0.  1.
         21    1    1    2  505  503 -0.46072787523E+02 -0.24166959091E+01 -0.14159521976E+03  0.14892195415E+03  0.00000000000E+00 0.  1.
         21    1    1    2  506  505 -0.83586574372E+01 -0.38154948973E+02 -0.62492601975E+03  0.62614550821E+03  0.00000000000E+00 0.  1.
<scales pt_clust_3="14000.00000" pt_clust_4="109.12134" pt_clust_5="49.14150" pt_clust_6="39.05979"></scales>
<clustering>
<clus scale="   39.060">  2  6  1 -1</clus>
<clus scale="   49.141">  2  5  1 -1</clus>
<clus scale="  109.121">  2  4  1 -1</clus>
<clus scale="  109.121">  1  3  2 -1</clus>
</clustering>
</event>
<event>
 6    0  0.1463946E+003  0.7297564E+02  0.7546771E-02  0.1350257E+00
         21   -1    0    0  503  501  0.00000000000E+00  0.00000000000E+00  0.44934742221E+04  0.44934742221E+04  0.00000000000E+00 0.  1.
         21   -1    0    0  505  502 -0.00000000000E+00 -0.00000000000E+00 -0.70205122263E+01  0.70205122263E+01  0.00000000000E+00 0.  1.
         21    1    1    2  503  506  0.31544295942E+02 -0.60343668732E+02  0.26649072656E+04  0.26657770228E+04  0.00000000000E+00 0.  1.
         21    1    1    2  504  501 -0.36032465088E+02  0.10036455570E+02  0.56246818561E+03  0.56371050088E+03  0.00000000000E+00 0.  1.
         21    1    1    2  505  504 -0.14561176716E+02  0.10794324691E+03  0.93206495310E+03  0.93840761358E+03  0.00000000000E+00 0.  1.
         21    1    1    2  506  502  0.19049345863E+02 -0.57636033750E+02  0.32701330559E+03  0.33259959711E+03  0.00000000000E+00 0.  1.
<scales pt_clust_3="54.00754" pt_clust_4="37.40413" pt_clust_5="72.97564" pt_clust_6="14000.00000"></scales>
<clustering>
<clus scale="   37.404">  1  4  2 -1</clus>
<clus scale="   54.008">  1  3  2 -1</clus>
<clus scale="   72.976">  1  5  2 -1</clus>
<clus scale="   37.404">  1  3  2 -1</clus>
</clustering>
</event>
<event>
 6    0  0.1463946E+003  0.9184976E+02  0.7546771E-02  0.1298433E+00
         21   -1    0    0  504  501  0.00000000000E+00  0.00000000000E+00  0.33052051975E+04  0.33052051975E+04  0.00000000000E+00 0.  1.
         21   -1    0    0  505  502 -0.00000000000E+00 -0.00000000000E+00 -0.31944403949E+02  0.31944403949E+02  0.00000000000E+00 0. -1.
         21    1    1    2  503  502 -0.11083091255E+03  0.71338964132E+02  0.16253395286E+03  0.20926066236E+03  0.00000000000E+00 0. -1.
         21    1    1    2  504  503  0.10702239761E+03 -0.15697604213E+02  0.13434948046E+04  0.13478421638E+04  0.00000000000E+00 0.  1.
         21    1    1    2  505  506  0.33903022836E+02 -0.33771162373E+02  0.86109795240E+02  0.98512959563E+02  0.00000000000E+00 0.  1.
         21    1    1    2  506  501 -0.30094507899E+02 -0.21870197545E+02  0.16811222408E+04  0.16815338157E+04  0.00000000000E+00 0.  1.
<scales pt_clust_3="91.84976" pt_clust_4="14000.00000" pt_clust_5="47.56417" pt_clust_6="37.20195"></scales>
<clustering>
<clus scale="   37.202">  1  6  2 -1</clus>
<clus scale="   47.564">  2  5  1 -1</clus>
<clus scale="   91.850">  2  3  1 -1</clus>
<clus scale="   37.202">  1  3  2 -1</clus>
</clustering>
</event>
<event>
 6    0  0.1463946E+003  0.8784896E+02  0.7546771E-02  0.1308146E+00
         21   -1    0    0  505  501  0.00000000000E+00  0.00000000000E+00  0.37379939488E+03  0.37379939488E+03  0.00000000000E+00 0. -1.
         21   -1    0    0  506  502 -0.00000000000E+00 -0.00000000000E+00 -0.14592864484E+03  0.14592864484E+03  0.00000000000E+00 0. -1.
         21    1    1    2  503  504 -0.86513690307E+01  0.52995542499E+02  0.71218073829E+02  0.89192980390E+02  0.00000000000E+00 0. -1.
         21    1    1    2  504  501  0.26026981660E+02  0.40631363384E+02  0.18843205291E+03  0.19451208196E+03  0.00000000000E+00 0. -1.
         21    1    1    2  505  502 -0.37143631222E+02 -0.15126740128E+03  0.18719415638E+02  0.15688177890E+03  0.00000000000E+00 0. -1.
         21    1    1    2  506  503  0.19768018593E+02  0.57640495394E+02 -0.50498792330E+02  0.79141198469E+02  0.00000000000E+00 0. -1.
<scales pt_clust_3="14000.00000" pt_clust_4="48.25258" pt_clust_5="87.84896" pt_clust_6="64.62434"></scales>
<clustering>
<clus scale="   48.253">  1  4  2 -1</clus>
<clus scale="   64.624">  2  6  1 -1</clus>
<clus scale="   87.849">  2  5  1 -1</clus>
<clus scale="   48.253">  1  3  2 -1</clus>
</clustering>
</event>
<event>
 6    0  0.1463946E+003  0.8417793E+02  0.7546771E-02  0.1317596E+00
         21   -1    0    0  503  501  0.00000000000E+00  0.00000000000E+00  0.76135896512E+03  0.76135896512E+03  0.00000000000E+00 0.  1.
         21   -1    0    0  505  502 -0.00000000000E+00 -0.00000000000E+00 -0.91177054996E+02  0.91177054996E+02  0.00000000000E+00 0.  1.
         21    1    1    2  503  506 -0.81494327788E+02 -0.35727839948E+02  0.37312285123E+03  0.38358632160E+03  0.00000000000E+00 0.  1.
         21    1    1    2  504  501  0.85811062087E+02 -0.19751970686E+02  0.27723415878E+03  0.29088220557E+03  0.00000000000E+00 0.  1.
         21    1    1    2  505  504  0.56401664353E+02 -0.18648374050E+00 -0.45874167481E+02  0.72702281670E+02  0.00000000000E+00 0.  1.
         21    1    1    2  506  502 -0.60718398652E+02  0.55666294374E+02  0.65699067591E+02  0.10536521127E+03  0.00000000000E+00 0.  1.
<scales pt_clust_3="84.17793" pt_clust_4="14000.00000" pt_clust_5="56.40197" pt_clust_6="61.18196"></scales>
<clustering>
<clus scale="   56.402">  2  5  1 -1</clus>
<clus scale="   61.182">  2  6  1 -1</clus>
<clus scale="   84.178">  1  3  2 -1</clus>
<clus scale="   84.178">  1  3  2 -1</clus>
</clustering>
</event>
<event>
 6    0  0.1463946E+003  0.1286189E+03  0.7546771E-02  0.1229520E+00
         21   -1    0    0  503  501  0.00000000000E+00  0.00000000000E+00  0.12630204778E+04  0.12630204778E+04  0.00000000000E+00 0. -1.
         21   -1    0    0  505  502 -0.00000000000E+00 -0.00000000000E+00 -0.10041888241E+03  0.10041888241E+03  0.00000000000E+00 0. -1.
         21    1    1    2  503  502 -0.18065282562E+02  0.24717535892E+02 -0.67879293373E+02  0.74464148981E+02  0.00000000000E+00 0. -1.
         21    1    1    2  504  501 -0.36166783617E+01 -0.61615132701E+02  0.76633490068E+03  0.76881641823E+03  0.00000000000E+00 0. -1.
         21    1    1    2  505  506  0.57855318727E+02  0.86673903440E+02  0.80689637683E+02  0.13179689326E+03  0.00000000000E+00 0. -1.
         21    1    1    2  506  504 -0.36173357803E+02 -0.49776306631E+02  0.38345635036E+03  0.38836189971E+03  0.00000000000E+00 0.  1.
<scales pt_clust_3="30.61554" pt_clust_4="55.19895" pt_clust_5="116.15673" pt_clust_6="55.19895"></scales>
<clustering>
<clus scale="   30.616">  2  3  1 -1</clus>
<clus scale="   55.199">  4  6 -1 -1</clus>
<clus scale="  116.157">  2  5  1 -1</clus>
<clus scale="  128.619">  1  3  2 -1</clus>
</clustering>
</event>
<event>
 6    0  0.1463946E+003  0.1141609E+03  0.7546771E-02  0.1253053E+00
         21   -1    0    0  506  501  0.00000000000E+00  0.00000000000E+00  0.33328764662E+04  0.33328764662E+04  0.00000000000E+00 0. -1.
         21   -1    0    0  504  502 -0.00000000000E+00 -0.00000000000E+00 -0.11676643780E+03  0.11676643780E+03  0.00000000000E+00 0. -1.
         21    1    1    2  503  502 -0.12369985303E+03 -0.14371445524E+03  0.57960120285E+01  0.18970791243E+03  0.00000000000E+00 0. -1.
         21    1    1    2  504  505  0.11546596305E+02  0.99590751095E+02  0.91723258528E+02  0.13588523741E+03  0.00000000000E+00 0. -1.
         21    1    1    2  505  501  0.42325682544E+02  0.51891218664E+00  0.24559498144E+04  0.24563145612E+04  0.00000000000E+00 0. -1.
         21    1    1    2  506  503  0.69827574179E+02  0.43604791956E+02  0.66264094348E+03  0.66773519300E+03  0.00000000000E+00 0.  1.
<scales pt_clust_3="14000.00000" pt_clust_4="101.10450" pt_clust_5="42.32886" pt_clust_6="114.16092"></scales>
<clustering>
<clus scale="   42.329">  1  5  2 -1</clus>
<clus scale="  101.105">  2  4  1 -1</clus>
<clus scale="  114.161">  1  6  2 -1</clus>
<clus scale="   42.329">  1  3  2 -1</clus>
</clustering>
</event>
<event>
 6    0  0.1463946E+003  0.1688546E+03  0.7546771E-02  0.1179048E+00
         21   -1    0    0  503  501  0.00000000000E+00  0.00000000000E+00  0.64533601829E+03  0.64533601829E+03  0.00000000000E+00 0.  1.
         21   -1    0    0  506  502 -0.00000000000E+00 -0.00000000000E+00 -0.32485148768E+03  0.32485148768E+03  0.00000000000E+00 0.  1.
         21    1    1    2  503  505 -0.46963417926E+02 -0.10711632607E+03  0.98517530534E+02  0.15292211664E+03  0.00000000000E+00 0.  1.
         21    1    1    2  504  501  0.20685913474E+02  0.25235340445E+03  0.41579019338E+03  0.48681786395E+03  0.00000000000E+00 0.  1.
         21    1    1    2  505  502  0.30619852082E+02 -0.20282078193E+03 -0.17524246609E+03  0.26978466755E+03  0.00000000000E+00 0.  1.
         21    1    1    2  506  504 -0.43423476310E+01  0.57583703550E+02 -0.18580727199E+02  0.60662857835E+02  0.00000000000E+00 0.  1.
<scales pt_clust_3="112.12577" pt_clust_4="14000.00000" pt_clust_5="168.85458" pt_clust_6="57.74720"></scales>
<clustering>
<clus scale="   57.747">  2  6  1 -1</clus>
<clus scale="  112.126">  1  3  2 -1</clus>
<clus scale="  168.855">  2  5  1 -1</clus>
<clus scale="  112.126">  1  3  2 -1</clus>
</clustering>
</event>
<event>
 6    0  0.1463946E+003  0.1682830E+03  0.7546771E-02  0.1179650E+00
         21   -1    0    0  504  501  0.00000000000E+00  0.00000000000E+00  0.75464924480E+02  0.75464924480E+02  0.00000000000E+00 0. -1.
         21   -1    0    0  501  502 -0.00000000000E+00 -0.00000000000E+00 -0.32999223373E+04  0.32999223373E+04  0.00000000000E+00 0.  1.
         21    1    1    2  503  502 -0.28589076535E+02  0.19308906514E+02 -0.83924772826E+03  0.83995649801E+03  0.00000000000E+00 0. -1.
         21    1    1    2  504  505 -0.15885671582E+03 -0.66527620998E+02 -0.37540230882E+02  0.17626868540E+03  0.00000000000E+00 0. -1.
         21    1    1    2  505  506  0.12981892258E+03  0.40246233068E+02 -0.88820507469E+03  0.89854380341E+03  0.00000000000E+00 0.  1.
         21    1    1    2  506  503  0.57626869778E+02  0.69724814166E+01 -0.14594643790E+04  0.14606182749E+04  0.00000000000E+00 0.  1.
<scales pt_clust_3="34.49883" pt_clust_4="14000.00000" pt_clust_5="168.28304" pt_clust_6="44.64336"></scales>
<clustering>
<clus scale="   34.499">  2  3  1 -1</clus>
<clus scale="   44.643">  2  6  1 -1</clus>
<clus scale="  168.283">  2  5  1 -1</clus>
<clus scale="  168.283">  1  3  2 -1</clus>
</clustering>
</event>
<event>
 6    0  0.1463946E+003  0.9419470E+02  0.7546771E-02  0.1293000E+00
         21   -1    0    0  504  501  0.00000000000E+00  0.00000000000E+00  0.13886078390E+03  0.13886078390E+03  0.00000000000E+00 0. -1.
         21   -1    0    0  505  502 -0.00000000000E+00 -0.00000000000E+00 -0.51202955541E+03  0.51202955541E+03  0.00000000000E+00 0. -1.
         21    1    1    2  503  506 -0.54966622808E+02 -0.35086395034E+02  0.31776801713E+00  0.65211085836E+02  0.00000000000E+00 0. -1.
         21    1    1    2  504  502  0.13776466995E+03  0.32252852611E+02 -0.31950995539E+03  0.34943663572E+03  0.00000000000E+00 0. -1.
         21    1    1    2  505  503 -0.64940407063E+02 -0.21426334158E+02 -0.13416238764E+03  0.15058516037E+03  0.00000000000E+00 0. -1.
         21    1    1    2  506  501 -0.17857640083E+02  0.24259876580E+02  0.80185803511E+02  0.85657457385E+02  0.00000000000E+00 0. -1.
<scales pt_clust_3="68.67624" pt_clust_4="94.19470" pt_clust_5="14000.00000" pt_clust_6="30.12369"></scales>
<clustering>
<clus scale="   30.124">  1  6  2 -1</clus>
<clus scale="   68.676">  1  3  2 -1</clus>
<clus scale="   94.195">  1  4  2 -1</clus>
<clus scale="   30.124">  1  3  2 -1</clus>
</clustering>
</event>
<event>
 6    0  0.1463946E+003  0.6487634E+02  0.7546771E-02  0.1378437E+00
         21   -1    0    0  505  501  0.00000000000E+00  0.00000000000E+00  0.19858853571E+03  0.19858853571E+03  0.00000000000E+00 0.  1.
         21   -1    0    0  506  502 -0.00000000000E+00 -0.00000000000E+00 -0.17934549110E+03  0.17934549110E+03  0.00000000000E+00 0. -1.
         21    1    1    2  503  502 -0.11725740161E+02 -0.37140417908E+02 -0.36227266316E+02  0.53191338105E+02  0.00000000000E+00 0.  1.
         21    1    1    2  504  501  0.35795573985E+02  0.26734964823E+01  0.40350790932E+02  0.54006083261E+02  0.00000000000E+00 0. -1.
         21    1    1    2  505  503 -0.82067295012E+02 -0.34460176383E+02  0.10893525073E+03  0.14067492143E+03  0.00000000000E+00 0.  1.
         21    1    1    2  506  504  0.57997461188E+02  0.68927097808E+02 -0.93815730735E+02  0.13006168402E+03  0.00000000000E+00 0. -1.
<scales pt_clust_3="38.24651" pt_clust_4="35.89527" pt_clust_5="14000.00000" pt_clust_6="64.87634"></scales>
<clustering>
<clus scale="   35.895">  1  4  2 -1</clus>
<clus scale="   38.247">  2  3  1 -1</clus>
<clus scale="   64.876">  2  6  1 -1</clus>
<clus scale="   35.895">  1  3  2 -1</clus>
</clustering>
</event>
<event>
 6    0  0.1463946E+003  0.7801993E+02  0.7546771E-02  0.1334766E+00
         21   -1    0    0  503  501  0.00000000000E+00  0.00000000000E+00  0.60452403858E+02  0.60452403858E+02  0.00000000000E+00 0.  1.
         21   -1    0    0  506  502 -0.00000000000E+00 -0.00000000000E+00 -0.71258347712E+03  0.71258347712E+03  0.00000000000E+00 0.  1.
         21    1    1    2  503  505  0.22096260335E+02 -0.26033473134E+02 -0.53841816748E+01  0.34568422824E+02  0.00000000000E+00 0. -1.
         21    1    1    2  504  502 -0.48166947184E+02 -0.15678250766E+02 -0.21571844163E+03  0.22158589397E+03  0.00000000000E+00 0.  1.
         21    1    1    2  505  504  0.71649434963E+02  0.89622453752E+02 -0.43573236854E+03  0.45058686481E+03  0.00000000000E+00 0.  1.
         21    1    1    2  506  501 -0.45578748114E+02 -0.47910729853E+02  0.47039185824E+01  0.66294699371E+02  0.00000000000E+00 0.  1.
<scales pt_clust_3="34.14654" pt_clust_4="49.86667" pt_clust_5="14000.00000" pt_clust_6="78.01993"></scales>
<clustering>
<clus scale="   34.147">  1  3  2 -1</clus>
<clus scale="   49.867">  2  4  1 -1</clus>
<clus scale="   78.020">  1  6  2 -1</clus>
<clus scale="   34.147">  1  3  2 -1</clus>
</clustering>
</event>
<event>
 6    0  0.1463946E+003  0.1251943E+03  0.7546771E-02  0.1234766E+00
         21   -1    0    0  505  501  0.00000000000E+00  0.00000000000E+00  0.18481105690E+02  0.18481105690E+02  0.00000000000E+00 0. -1.
         21   -1    0    0  506  502 -0.00000000000E+00 -0.00000000000E+00 -0.26787369198E+04  0.26787369198E+04  0.00000000000E+00 0. -1.
         21    1    1    2  503  501 -0.38734835369E+01  0.52655623271E+02 -0.18049104217E+03  0.18805487189E+03  0.00000000000E+00 0. -1.
         21    1    1    2  504  503  0.38795287880E+02  0.36508707768E+02 -0.97008569642E+02  0.11067349587E+03  0.00000000000E+00 0. -1.
         21    1    1    2  505  502  0.63987341420E+02 -0.14619582258E+03 -0.13159382078E+04  0.13255794827E+04  0.00000000000E+00 0. -1.
         21    1    1    2  506  504 -0.98909145763E+02  0.57031491545E+02 -0.10668179945E+04  0.10729101750E+04  0.00000000000E+00 0. -1.
<scales pt_clust_3="52.79790" pt_clust_4="71.32790" pt_clust_5="14000.00000" pt_clust_6="125.19433"></scales>
<clustering>
<clus scale="   52.798">  1  3  2 -1</clus>
<clus scale="   71.328">  1  4  2 -1</clus>
<clus scale="  125.194">  2  6  1 -1</clus>
<clus scale="   52.798">  1  3  2 -1</clus>
</clustering>
</event>
<event>
 6    0  0.1463946E+003  0.1261025E+03  0.7546771E-02  0.1233356E+00
         21   -1    0    0  505  501  0.00000000000E+00  0.00000000000E+00  0.47871950182E+03  0.47871950182E+03  0.00000000000E+00 0.  1.
         21   -1    0    0  506  502 -0.00000000000E+00 -0.00000000000E+00 -0.11143602403E+03  0.11143602403E+03  0.00000000000E+00 0.  1.
         21    1    1    2  503  502  0.10440134033E+03 -0.71677366227E+02 -0.31253040317E+02  0.13043786728E+03  0.00000000000E+00 0.  1.
         21    1    1    2  504  503 -0.72462109399E+02  0.63192004456E+02  0.12344185736E+03  0.15646686190E+03  0.00000000000E+00 0.  1.
         21    1    1    2  505  504 -0.68687119833E+02  0.70424818327E+01  0.24837226273E+03  0.25779119045E+03  0.00000000000E+00 0.  1.
         21    1    1    2  506  501  0.36747888907E+02  0.14428799387E+01  0.26722398017E+02  0.45459606216E+02  0.00000000000E+00 0.  1.
<scales pt_clust_3="126.10253" pt_clust_4="14000.00000" pt_clust_5="67.36769" pt_clust_6="36.77620"></scales>
<clustering>
<clus scale="   36.776">  2  6  1 -1</clus>
<clus scale="   67.368">  1  5  2 -1</clus>
<clus scale="  126.103">  2  3  1 -1</clus>
<clus scale="   67.368">  1  3  2 -1</clus>
</clustering>
</event>
<event>
 6    0  0.1463946E+003  0.1366965E+03  0.7546771E-02  0.1217844E+00
         21   -1    0    0  503  501  0.00000000000E+00  0.00000000000E+00  0.30381288632E+03  0.30381288632E+03  0.00000000000E+00 0.  1.
         21   -1    0    0  505  502 -0.00000000000E+00 -0.00000000000E+00 -0.41755677255E+03  0.41755677255E+03  0.00000000000E+00 0. -1.
         21    1    1    2  503  506  0.18973733772E+02  0.26912532937E+02  0.82379555399E+02  0.88716842539E+02  0.00000000000E+00 0.  1.
         21    1    1    2  504  501  0.10287330140E+03 -0.57798018012E+02  0.13621271523E+03  0.18021495726E+03  0.00000000000E+00 0.  1.
         21    1    1    2  505  504 -0.13205534037E+03 -0.52464874796E+02 -0.33962141541E+03  0.36814926567E+03  0.00000000000E+00 0. -1.
         21    1    1    2  506  502  0.10208305196E+02  0.83350359871E+02  0.72852585553E+01  0.84288593402E+02  0.00000000000E+00 0.  1.
<scales pt_clust_3="32.92851" pt_clust_4="136.69649" pt_clust_5="14000.00000" pt_clust_6="90.11993"></scales>
<clustering>
<clus scale="   32.929">  1  3  2 -1</clus>
<clus scale="   90.120">  1  6  2 -1</clus>
<clus scale="  136.696">  1  4  2 -1</clus>
<clus scale="   32.929">  1  3  2 -1</clus>
</clustering>
</event>
<event>
 6    0  0.1463946E+003  0.1104696E+03  0.7546771E-02  0.1259703E+00
         21   -1    0    0  504  501  0.00000000000E+00  0.00000000000E+00  0.16890254951E+02  0.16890254951E+02  0.00000000000E+00 0.  1.
         21   -1    0    0  505  502 -0.00000000000E+00 -0.00000000000E+00 -0.16153010954E+04  0.16153010954E+04  0.00000000000E+00 0.  1.
         21    1    1    2  503  501  0.27126518298E+02 -0.73236067634E+02 -0.26879811001E+03  0.27991390380E+03  0.00000000000E+00 0.  1.
         21    1    1    2  504  502  0.43382674945E+02  0.34373064960E+02 -0.14566527196E+03  0.15582662011E+03  0.00000000000E+00 0.  1.
         21    1    1    2  505  506 -0.42901548468E+02  0.81680331512E+02 -0.10335303448E+04  0.10376402040E+04  0.00000000000E+00 0.  1.
         21    1    1    2  506  503 -0.27607644774E+02 -0.42817328838E+02 -0.15041711369E+03  0.15881062241E+03  0.00000000000E+00 0.  1.
<scales pt_clust_3="46.18000" pt_clust_4="55.34947" pt_clust_5="94.52165" pt_clust_6="46.18000"></scales>
<clustering>
<clus scale="   46.180">  3  6 -1 -1</clus>
<clus scale="   55.349">  1  4  2 -1</clus>
<clus scale="   94.522">  2  5  1 -1</clus>
<clus scale="   55.349">  1  3  2 -1</clus>
</clustering>
</event>
<event>
 6    0  0.1463946E+003  0.7209744E+02  0.7546771E-02  0.1353102E+00
         21   -1    0    0  503  501  0.00000000000E+00  0.00000000000E+00  0.24598850939E+02  0.24598850939E+02  0.00000000000E+00 0.  1.
         21   -1    0    0  505  502 -0.00000000000E+00 -0.00000000000E+00 -0.86231639363E+03  0.86231639363E+03  0.00000000000E+00 0.  1.
         21    1    1    2  503  506 -0.73613867539E+02  0.20576077318E+02 -0.15996160066E+03  0.17728533537E+03  0.00000000000E+00 0.  1.
         21    1    1    2  504  501  0.34044614320E+02 -0.11946643569E+02 -0.37557793495E+02  0.52080187298E+02  0.00000000000E+00 0.  1.
         21    1    1    2  505  504  0.44552869785E+02 -0.71270941433E+02 -0.43093407843E+03  0.43905430786E+03  0.00000000000E+00 0.  1.
         21    1    1    2  506  502 -0.49836165664E+01  0.62641507685E+02 -0.20926407010E+03  0.21849541403E+03  0.00000000000E+00 0.  1.
<scales pt_clust_3="58.45966" pt_clust_4="36.07988" pt_clust_5="72.09744" pt_clust_6="14000.00000"></scales>
<clustering>
<clus scale="   36.080">  1  4  2 -1</clus>
<clus scale="   58.460">  1  3  2 -1</clus>
<clus scale="   72.097">  2  5  1 -1</clus>
<clus scale="   36.080">  1  3  2 -1</clus>
</clustering>
</event>
<event>
 6    0  0.1463946E+003  0.9928006E+02  0.7546771E-02  0.1281817E+00
         21   -1    0    0  504  501  0.00000000000E+00  0.00000000000E+00  0.31562899910E+03  0.31562899910E+03  0.00000000000E+00 0.  1.
         21   -1    0    0  506  502 -0.00000000000E+00 -0.00000000000E+00 -0.69140811691E+03  0.69140811691E+03  0.00000000000E+00 0. -1.
         21    1    1    2  503  505  0.38754309541E+02  0.55131806557E+01  0.26080254976E+02  0.47036914956E+02  0.00000000000E+00 0.  1.
         21    1    1    2  504  502 -0.83842936581E+02 -0.63334405215E+01 -0.64530947388E+03  0.65076421810E+03  0.00000000000E+00 0. -1.
         21    1    1    2  505  501  0.11482387410E+02 -0.65026879068E+02  0.22294406733E+03  0.23251752058E+03  0.00000000000E+00 0.  1.
         21    1    1    2  506  503  0.33606239630E+02  0.65847138934E+02  0.20506033762E+02  0.76718462371E+02  0.00000000000E+00 0.  1.
<scales pt_clust_3="38.61969" pt_clust_4="83.90329" pt_clust_5="66.03287" pt_clust_6="38.61969"></scales>
<clustering>
<clus scale="   38.620">  3  6 -1 -1</clus>
<clus scale="   66.033">  1  5  2 -1</clus>
<clus scale="   83.903">  2  4  1 -1</clus>
<clus scale="   66.033">  1  3  2 -1</clus>
</clustering>
</event>
<event>
 6    0  0.1463946E+003  0.8950260E+02  0.7546771E-02  0.1304061E+00
         21   -1    0    0  503  501  0.00000000000E+00  0.00000000000E+00  0.13331721198E+04  0.13331721198E+04  0.00000000000E+00 0.  1.
         21   -1    0    0  506  502 -0.00000000000E+00 -0.00000000000E+00 -0.53578881198E+03  0.53578881198E+03  0.00000000000E+00 0.  1.
         21    1    1    2  503  505  0.41200034550E+02 -0.27895344330E+02  0.81051676358E+02  0.95105033109E+02  0.00000000000E+00 0. -1.
         21    1    1    2  504  501 -0.48362292529E+02 -0.73028558382E+02  0.12097062592E+04  0.12128731653E+04  0.00000000000E+00 0.  1.
         21    1    1    2  505  502 -0.21702489561E+02  0.48174562745E+02 -0.49788743225E+03  0.50068321496E+03  0.00000000000E+00 0.  1.
         21    1    1    2  506  504  0.28864747540E+02  0.52749339967E+02  0.45128045858E+01  0.60299518429E+02  0.00000000000E+00 0. -1.
<scales pt_clust_3="49.75533" pt_clust_4="14000.00000" pt_clust_5="52.78981" pt_clust_6="89.50260"></scales>
<clustering>
<clus scale="   49.755">  1  3  2 -1</clus>
<clus scale="   52.790">  2  5  1 -1</clus>
<clus scale="   89.503">  2  6  1 -1</clus>
<clus scale="   49.755">  1  3  2 -1</clus>
</clustering>
</event>
<event>
 6    0  0.1463946E+003  0.1178473E+03  0.7546771E-02  0.1246691E+00
         21   -1    0    0  506  501  0.00000000000E+00  0.00000000000E+00  0.17035715642E+03  0.17035715642E+03  0.00000000000E+00 0. -1.
         21   -1    0    0  504  502 -0.00000000000E+00 -0.00000000000E+00 -0.39967065007E+03  0.39967065007E+03  0.00000000000E+00 0. -1.
         21    1    1    2  503  502 -0.57782652731E+02  0.32440319281E+02 -0.19302715459E+03  0.20408501091E+03  0.00000000000E+00 0. -1.
         21    1    1    2  504  501 -0.75212697286E+02 -0.10093972749E+03 -0.22668892632E+01  0.12590042576E+03  0.00000000000E+00 0. -1.
         21    1    1    2  505  503  0.14464596048E+03  0.19361905968E+02 -0.84503304781E+02  0.16863613434E+03  0.00000000000E+00 0. -1.
         21    1    1    2  506  505 -0.11650610463E+02  0.49137502245E+02  0.50483854984E+02  0.71406235477E+02  0.00000000000E+00 0. -1.
<scales pt_clust_3="68.02105" pt_clust_4="14000.00000" pt_clust_5="117.84734" pt_clust_6="50.49981"></scales>
<clustering>
<clus scale="   50.500">  1  6  2 -1</clus>
<clus scale="   68.021">  2  3  1 -1</clus>
<clus scale="  117.847">  2  5  1 -1</clus>
<clus scale="   50.500">  1  3  2 -1</clus>
</clustering>
</event>
<event>
 6    0  0.1463946E+003  0.1270082E+03  0.7546771E-02  0.1231964E+00
         21   -1    0    0  503  501  0.00000000000E+00  0.00000000000E+00  0.10732575205E+04  0.10732575205E+04  0.00000000000E+00 0. -1.
         21   -1    0    0  506  502 -0.00000000000E+00 -0.00000000000E+00 -0.10897419209E+04  0.10897419209E+04  0.00000000000E+00 0.  1.
         21    1    1    2  503  502 -0.14403095435E+03 -0.98556728431E+02  0.28112545780E+02  0.17677290449E+03  0.00000000000E+00 0. -1.
         21    1    1    2  504  501  0.41772077038E+02  0.22239406547E+01  0.84759822388E+03  0.84862983771E+03  0.00000000000E+00 0. -1.
         21    1    1    2  505  504  0.65784770594E+02  0.68955213847E+02  0.10359452009E+03  0.14076321306E+03  0.00000000000E+00 0. -1.
         21    1    1    2  506  505  0.36474106723E+02  0.27377573930E+02 -0.99578969013E+03  0.99683348609E+03  0.00000000000E+00 0.  1.
<scales pt_clust_3="14000.00000" pt_clust_4="41.83124" pt_clust_5="127.00815" pt_clust_6="45.68640"></scales>
<clustering>
<clus scale="   41.831">  1  4  2 -1</clus>
<clus scale="   45.686">  2  6  1 -1</clus>
<clus scale="  127.008">  1  5  2 -1</clus>
<clus scale="   41.831">  1  3  2 -1</clus>
</clustering>
</event>
<event>
 6    0  0.1463946E+003  0.1164943E+03  0.7546771E-02  0.1248995E+00
         21   -1    0    0  506  501  0.00000000000E+00  0.00000000000E+00  0.11797184358E+04  0.11797184358E+04  0.00000000000E+00 0.  1.
         21   -1    0    0  504  502 -0.00000000000E+00 -0.00000000000E+00 -0.73276167148E+02  0.73276167148E+02  0.00000000000E+00 0.  1.
         21    1    1    2  503  505  0.73607973856E+02 -0.54504297904E+02  0.14462721874E+03  0.17118961623E+03  0.00000000000E+00 0.  1.
         21    1    1    2  504  501 -0.91644921443E+02  0.11316949100E+03  0.77808757324E+02  0.16510701995E+03  0.00000000000E+00 0.  1.
         21    1    1    2  505  502 -0.19286965634E+01 -0.31189365935E+02 -0.78132664631E+00  0.31258709014E+02  0.00000000000E+00 0.  1.
         21    1    1    2  506  503  0.19965644151E+02 -0.27475827161E+02  0.88478761925E+03  0.88543925777E+03  0.00000000000E+00 0.  1.
<scales pt_clust_3="14000.00000" pt_clust_4="116.49429" pt_clust_5="31.24894" pt_clust_6="34.10124"></scales>
<clustering>
<clus scale="   31.249">  2  5  1 -1</clus>
<clus scale="   34.101">  1  6  2 -1</clus>
<clus scale="  116.494">  2  4  1 -1</clus>
<clus scale="   34.101">  1  3  2 -1</clus>
</clustering>
</event>
<event>
 6    0  0.1463946E+003  0.1159644E+03  0.7546771E-02  0.1249907E+00
         21   -1    0    0  505  501  0.00000000000E+00  0.00000000000E+00  0.43764474218E+03  0.43764474218E+03  0.00000000000E+00 0. -1.
         21   -1    0    0  506  502 -0.00000000000E+00 -0.00000000000E+00 -0.28950861464E+03  0.28950861464E+03  0.00000000000E+00 0. -1.
         21    1    1    2  503  502 -0.54732339341E+02 -0.42166330530E+02 -0.16087579195E+03  0.17508469046E+03  0.00000000000E+00 0. -1.
         21    1    1    2  504  503 -0.20983591107E+02 -0.88425176776E+02 -0.58126332063E+02  0.10787953218E+03  0.00000000000E+00 0. -1.
         21    1    1    2  505  504  0.74842053123E+02  0.93207151157E+02  0.58120244791E+02  0.13291677395E+03  0.00000000000E+00 0. -1.
         21    1    1    2  506  501  0.87387732499E+00  0.37384356149E+02  0.30901800676E+03  0.31127236024E+03  0.00000000000E+00 0. -1.
<scales pt_clust_3="67.80093" pt_clust_4="115.96438" pt_clust_5="14000.00000" pt_clust_6="37.39457"></scales>
<clustering>
<clus scale="   37.395">  1  6  2 -1</clus>
<clus scale="   67.801">  2  3  1 -1</clus>
<clus scale="  115.964">  2  4  1 -1</clus>
<clus scale="   37.395">  1  3  2 -1</clus>
</clustering>
</event>
<event>
 6    0  0.1463946E+003  0.6314055E+02  0.7546771E-02  0.1385106E+00
         21   -1    0    0  503  501  0.00000000000E+00  0.00000000000E+00  0.20020729757E+03  0.20020729757E+03  0.00000000000E+00 0. -1.
         21   -1    0    0  504  502 -0.00000000000E+00 -0.00000000000E+00 -0.20550956421E+03  0.20550956421E+03  0.00000000000E+00 0. -1.
         21    1    1    2  503  506  0.66189454028E+01 -0.69121552202E+02  0.55596285621E+02  0.88952495142E+02  0.00000000000E+00 0. -1.
         21    1    1    2  504  505  0.16056217314E+02 -0.56164098855E+02 -0.11772866610E+03  0.13142392071E+03  0.00000000000E+00 0. -1.
         21    1    1    2  505  501 -0.43840542514E+00  0.44594758136E+02  0.85859069035E+02  0.96750526552E+02  0.00000000000E+00 0. -1.
         21    1    1    2  506  502 -0.22236757292E+02  0.80690892922E+02 -0.29028955198E+02  0.88589919377E+02  0.00000000000E+00 0. -1.
<scales pt_clust_3="40.02908" pt_clust_4="14000.00000" pt_clust_5="44.59691" pt_clust_6="63.14055"></scales>
<clustering>
<clus scale="   44.597">  1  5  2 -1</clus>
<clus scale="   40.029">  1  3  2 -1</clus>
<clus scale="   63.141">  1  6  2 -1</clus>
<clus scale="   44.597">  1  3  2 -1</clus>
</clustering>
</event>
<event>
 6    0  0.1463946E+003  0.1513499E+03  0.7546771E-02  0.1198824E+00
         21   -1    0    0  503  501  0.00000000000E+00  0.00000000000E+00  0.91315399941E+03  0.91315399941E+03  0.00000000000E+00 0. -1.
         21   -1    0    0  505  502 -0.00000000000E+00 -0.00000000000E+00 -0.17284707732E+03  0.17284707732E+03  0.00000000000E+00 0.  1.
         21    1    1    2  503  506 -0.12672582013E+02  0.73604219477E+02  0.63627398933E+03  0.64064246266E+03  0.00000000000E+00 0. -1.
         21    1    1    2  504  502  0.34840891104E+02  0.17917311786E+02  0.23792469068E+02  0.45836659335E+02  0.00000000000E+00 0. -1.
         21    1    1    2  505  501 -0.13527689169E+03  0.66836356949E+02 -0.57105111377E+02  0.16133173830E+03  0.00000000000E+00 0.  1.
         21    1    1    2  506  504  0.11310858260E+03 -0.15835788821E+03  0.13734557507E+03  0.23819021644E+03  0.00000000000E+00 0. -1.
<scales pt_clust_3="74.84742" pt_clust_4="39.17803" pt_clust_5="14000.00000" pt_clust_6="151.34986"></scales>
<clustering>
<clus scale="   39.178">  2  4  1 -1</clus>
<clus scale="   74.847">  1  3  2 -1</clus>
<clus scale="  151.350">  1  6  2 -1</clus>
<clus scale="   74.847">  1  3  2 -1</clus>
</clustering>
</event>
<event>
 6    0  0.1463946E+003  0.2265787E+03  0.7546771E-02  0.1129071E+00
         21   -1    0    0  502  501  0.00000000000E+00  0.00000000000E+00  0.48698679346E+03  0.48698679346E+03  0.00000000000E+00 0. -1.
         21   -1    0    0  506  502 -0.00000000000E+00 -0.00000000000E+00 -0.33227980046E+03  0.33227980046E+03  0.00000000000E+00 0.  1.
         21    1    1    2  503  505  0.31983840895E+02  0.19955403181E+02  0.48111677035E+02  0.61122153607E+02  0.00000000000E+00 0. -1.
         21    1    1    2  504  503 -0.17787206146E+03  0.69236646523E+02 -0.78135076292E+02  0.20624566327E+03  0.00000000000E+00 0. -1.
         21    1    1    2  505  501  0.17876272716E+03 -0.71126117764E+02  0.34081535222E+03  0.39136957158E+03  0.00000000000E+00 0. -1.
         21    1    1    2  506  504 -0.32874506601E+02 -0.18065931940E+02 -0.15608495997E+03  0.16052920547E+03  0.00000000000E+00 0.  1.
<scales pt_clust_3="35.55611" pt_clust_4="211.86298" pt_clust_5="35.55611" pt_clust_6="37.51148"></scales>
<clustering>
<clus scale="   35.556">  3  5 -1 -1</clus>
<clus scale="   37.511">  2  6  1 -1</clus>
<clus scale="  211.863">  2  4  1 -1</clus>
<clus scale="  226.579">  1  3  2 -1</clus>
</clustering>
</event>
<event>
 6    0  0.1463946E+003  0.1632877E+03  0.7546771E-02  0.1185034E+00
         21   -1    0    0  503  501  0.00000000000E+00  0.00000000000E+00  0.20313833795E+03  0.20313833795E+03  0.00000000000E+00 0.  1.
         21   -1    0    0  504  502 -0.00000000000E+00 -0.00000000000E+00 -0.23422161335E+04  0.23422161335E+04  0.00000000000E+00 0. -1.
         21    1    1    2  503  502 -0.13229679377E+03  0.22124534486E+02 -0.18448059911E+04  0.18496759396E+04  0.00000000000E+00 0. -1.
         21    1    1    2  504  506  0.16389173634E+02 -0.44008045051E+02 -0.24117222917E+03  0.24570176468E+03  0.00000000000E+00 0. -1.
         21    1    1    2  505  501  0.10147176631E+03  0.13044571640E+03  0.14744398152E+03  0.22147761055E+03  0.00000000000E+00 0.  1.
         21    1    1    2  506  505  0.14435853822E+02 -0.10856220583E+03 -0.20054355682E+03  0.22849915666E+03  0.00000000000E+00 0. -1.
<scales pt_clust_3="163.28773" pt_clust_4="46.96076" pt_clust_5="14000.00000" pt_clust_6="114.20251"></scales>
<clustering>
<clus scale="   46.961">  2  4  1 -1</clus>
<clus scale="  114.203">  2  6  1 -1</clus>
<clus scale="  163.288">  2  3  1 -1</clus>
<clus scale="  163.288">  1  3  2 -1</clus>
</clustering>
</event>
<event>
 6    0  0.2310337E+003  0.1357273E+03  0.7546771E-02  0.1219197E+00
         21   -1    0    0  503  501  0.00000000000E+00  0.00000000000E+00  0.78729045627E+03  0.78729045627E+03  0.00000000000E+00 0.  1.
         21   -1    0    0  505  502 -0.00000000000E+00 -0.00000000000E+00 -0.26043576386E+04  0.26043576386E+04  0.00000000000E+00 0. -1.
         21    1    1    2  503  502 -0.49509854916E+02 -0.13142176351E+01 -0.23511502526E+04  0.23516718442E+04  0.00000000000E+00 0. -1.
         21    1    1    2  504  506  0.12463142121E+03  0.52086622088E+01  0.33483228075E+03  0.35731327647E+03  0.00000000000E+00 0.  1.
         21    1    1    2  505  504 -0.82773491061E+02  0.45439141981E+02 -0.23098516717E+03  0.24954020498E+03  0.00000000000E+00 0.  1.
         21    1    1    2  506  501  0.76519247643E+01 -0.49333586554E+02  0.43023595670E+03  0.43312276914E+03  0.00000000000E+00 0.  1.
<scales pt_clust_3="49.52729" pt_clust_4="135.72726" pt_clust_5="14000.00000" pt_clust_6="49.88838"></scales>
<clustering>
<clus scale="   49.527">  2  3  1 -1</clus>
<clus scale="   49.888">  1  6  2 -1</clus>
<clus scale="  135.727">  1  4  2 -1</clus>
<clus scale="   49.888">  1  3  2 -1</clus>
</clustering>
</event>
<event>
 6    0  0.1463946E+003  0.1418426E+03  0.7546771E-02  0.1210871E+00
         21   -1    0    0  503  501  0.00000000000E+00  0.00000000000E+00  0.25836473859E+03  0.25836473859E+03  0.00000000000E+00 0. -1.
         21   -1    0    0  504  502 -0.00000000000E+00 -0.00000000000E+00 -0.69038769144E+03  0.69038769144E+03  0.00000000000E+00 0.  1.
         21    1    1    2  503  506 -0.13824236346E+02 -0.95224371237E+02  0.16759994151E+03  0.19325767975E+03  0.00000000000E+00 0. -1.
         21    1    1    2  504  501 -0.16026509295E+02  0.10226669966E+03 -0.60305716432E+03  0.61187684242E+03  0.00000000000E+00 0.  1.
         21    1    1    2  505  502  0.27390759349E+01  0.29927738250E+02 -0.58968191486E+02  0.66184738882E+02  0.00000000000E+00 0.  1.
         21    1    1    2  506  505  0.27111669706E+02 -0.36970066677E+02  0.62402461431E+02  0.77433168972E+02  0.00000000000E+00 0. -1.
<scales pt_clust_3="36.01194" pt_clust_4="131.90461" pt_clust_5="30.05282" pt_clust_6="36.01194"></scales>
<clustering>
<clus scale="   30.053">  2  5  1 -1</clus>
<clus scale="   36.012">  3  6 -1 -1</clus>
<clus scale="  131.905">  2  4  1 -1</clus>
<clus scale="  141.843">  1  3  2 -1</clus>
</clustering>
</event>
<event>
 6    0  0.1463946E+003  0.9352363E+02  0.7546771E-02  0.1294536E+00
         21   -1    0    0  504  501  0.00000000000E+00  0.00000000000E+00  0.15502387324E+03  0.15502387324E+03  0.00000000000E+00 0.  1.
         21   -1    0    0  503  502 -0.00000000000E+00 -0.00000000000E+00 -0.73972622317E+03  0.73972622317E+03  0.00000000000E+00 0. -1.
         21    1    1    2  503  506 -0.35568353489E+02  0.22045885469E+02 -0.34953354784E+03  0.35202958669E+03  0.00000000000E+00 0. -1.
         21    1    1    2  504  502 -0.10411251095E+03 -0.63204556231E+02 -0.30561455879E+03  0.32899010533E+03  0.00000000000E+00 0. -1.
         21    1    1    2  505  501  0.92640408713E+02  0.44375582447E+01  0.10866577742E+03  0.14286423076E+03  0.00000000000E+00 0.  1.
         21    1    1    2  506  505  0.47040455727E+02  0.36721112517E+02 -0.38220020720E+02  0.70866173618E+02  0.00000000000E+00 0.  1.
<scales pt_clust_3="41.84649" pt_clust_4="93.52363" pt_clust_5="14000.00000" pt_clust_6="57.90915"></scales>
<clustering>
<clus scale="   41.846">  2  3  1 -1</clus>
<clus scale="   57.909">  2  6  1 -1</clus>
<clus scale="   93.524">  2  4  1 -1</clus>
<clus scale="   93.524">  1  3  2 -1</clus>
</clustering>
</event>
<event>
 6    0  0.1463946E+003  0.1201516E+03  0.7546771E-02  0.1242847E+00
         21   -1    0    0  503  501  0.00000000000E+00  0.00000000000E+00  0.18155915853E+03  0.18155915853E+03  0.00000000000E+00 0. -1.
         21   -1    0    0  505  502 -0.00000000000E+00 -0.00000000000E+00 -0.10360571494E+04  0.10360571494E+04  0.00000000000E+00 0. -1.
         21    1    1    2  503  502  0.29456814097E+02 -0.20978812298E+02 -0.32910180112E+02  0.48896773075E+02  0.00000000000E+00 0. -1.
         21    1    1    2  504  506 -0.47993246080E+02 -0.11658646202E+03  0.96949328755E+02  0.15904379001E+03  0.00000000000E+00 0. -1.
         21    1    1    2  505  504 -0.16982389822E+02  0.11927549157E+03 -0.95075147785E+03  0.95835453622E+03  0.00000000000E+00 0. -1.
         21    1    1    2  506  501  0.35518821805E+02  0.18289782746E+02  0.32214338373E+02  0.51321208600E+02  0.00000000000E+00 0. -1.
<scales pt_clust_3="36.16372" pt_clust_4="120.15160" pt_clust_5="14000.00000" pt_clust_6="44.61758"></scales>
<clustering>
<clus scale="   36.164">  1  3  2 -1</clus>
<clus scale="   44.618">  1  6  2 -1</clus>
<clus scale="  120.152">  1  4  2 -1</clus>
<clus scale="   36.164">  1  3  2 -1</clus>
</clustering>
</event>
<event>
 6    0  0.1463946E+003  0.1910681E+03  0.7546771E-02  0.1157501E+00
         21   -1    0    0  505  501  0.00000000000E+00  0.00000000000E+00  0.90764958707E+02  0.90764958707E+02  0.00000000000E+00 0.  1.
         21   -1    0    0  503  502 -0.00000000000E+00 -0.00000000000E+00 -0.19008603314E+04  0.19008603314E+04  0.00000000000E+00 0.  1.
         21    1    1    2  503  504  0.36048168180E+02 -0.22928888033E+02 -0.14923516027E+04  0.14929629970E+04  0.00000000000E+00 0.  1.
         21    1    1    2  504  506  0.72893420254E+02 -0.28580152954E+02 -0.15188890686E+03  0.17088158440E+03  0.00000000000E+00 0.  1.
         21    1    1    2  505  502 -0.16569317818E+03  0.10877271587E+03 -0.92286911773E+02  0.21863807330E+03  0.00000000000E+00 0.  1.
         21    1    1    2  506  501  0.56751589748E+02 -0.57263674881E+02 -0.73567951421E+02  0.10914263546E+03  0.00000000000E+00 0.  1.
<scales pt_clust_3="42.72241" pt_clust_4="56.81450" pt_clust_5="181.93747" pt_clust_6="56.81450"></scales>
<clustering>
<clus scale="   42.722">  2  3  1 -1</clus>
<clus scale="   56.814">  4  6 -1 -1</clus>
<clus scale="  181.937">  1  5  2 -1</clus>
<clus scale="  181.937">  1  3  2 -1</clus>
</clustering>
</event>
<event>
 6    0  0.1463946E+003  0.8132905E+02  0.7546771E-02  0.1325322E+00
         21   -1    0    0  504  501  0.00000000000E+00  0.00000000000E+00  0.22314530602E+03  0.22314530602E+03  0.00000000000E+00 0. -1.
         21   -1    0    0  506  502 -0.00000000000E+00 -0.00000000000E+00 -0.81665418767E+03  0.81665418767E+03  0.00000000000E+00 0.  1.
         21    1    1    2  503  501  0.24067849340E+02  0.39361476088E+02  0.11729761166E+03  0.12604490022E+03  0.00000000000E+00 0. -1.
         21    1    1    2  504  502 -0.45202533446E+02  0.52909031706E+02 -0.10303507134E+03  0.12433366637E+03  0.00000000000E+00 0.  1.
         21    1    1    2  505  503 -0.80145316828E+02  0.18151440718E+02  0.62097360094E+02  0.10299916864E+03  0.00000000000E+00 0. -1.
         21    1    1    2  506  505  0.10128000093E+03 -0.11042194851E+03 -0.66986878206E+03  0.68642175846E+03  0.00000000000E+00 0.  1.
<scales pt_clust_3="46.13661" pt_clust_4="71.23796" pt_clust_5="81.32905" pt_clust_6="14000.00000"></scales>
<clustering>
<clus scale="   46.137">  1  3  2 -1</clus>
<clus scale="   71.238">  2  4  1 -1</clus>
<clus scale="   81.329">  1  5  2 -1</clus>
<clus scale="   46.137">  1  3  2 -1</clus>
</clustering>
</event>
<event>
 6    0  0.1463946E+003  0.8333372E+02  0.7546771E-02  0.1319848E+00
         21   -1    0    0  502  501  0.00000000000E+00  0.00000000000E+00  0.91122245430E+03  0.91122245430E+03  0.00000000000E+00 0. -1.
         21   -1    0    0  504  502 -0.00000000000E+00 -0.00000000000E+00 -0.29098712105E+02  0.29098712105E+02  0.00000000000E+00 0. -1.
         21    1    1    2  503  501 -0.35859391801E+02  0.39624465830E+02  0.28990197706E+03  0.29478661872E+03  0.00000000000E+00 0. -1.
         21    1    1    2  504  506  0.70838081367E+01  0.32998814998E+02  0.42913091061E+02  0.54595196797E+02  0.00000000000E+00 0. -1.
         21    1    1    2  505  503 -0.43454626071E+02 -0.87082300723E+02  0.48009888093E+03  0.48986382506E+03  0.00000000000E+00 0. -1.
         21    1    1    2  506  505  0.72230209736E+02  0.14459019895E+02  0.69209793133E+02  0.10107552582E+03  0.00000000000E+00 0. -1.
<scales pt_clust_3="55.58618" pt_clust_4="33.75059" pt_clust_5="14000.00000" pt_clust_6="83.33372"></scales>
<clustering>
<clus scale="   33.751">  2  4  1 -1</clus>
<clus scale="   55.586">  1  3  2 -1</clus>
<clus scale="   83.334">  2  6  1 -1</clus>
<clus scale="   55.586">  1  3  2 -1</clus>
</clustering>
</event>
<event>
 6    0  0.1463946E+003  0.1016884E+03  0.7546771E-02  0.1276785E+00
         21   -1    0    0  505  501  0.00000000000E+00  0.00000000000E+00  0.21717934632E+03  0.21717934632E+03  0.00000000000E+00 0.  1.
         21   -1    0    0  503  502 -0.00000000000E+00 -0.00000000000E+00 -0.28276859516E+03  0.28276859516E+03  0.00000000000E+00 0.  1.
         21    1    1    2  503  506 -0.12326671175E+03  0.81497945176E+02 -0.87553260178E+02  0.17176195930E+03  0.00000000000E+00 0.  1.
         21    1    1    2  504  502  0.60141151136E+02 -0.29934360664E+02 -0.10673034001E+03  0.12611260637E+03  0.00000000000E+00 0.  1.
         21    1    1    2  505  504  0.92966691032E+02 -0.57370716004E+02  0.54901432763E+02  0.12226353510E+03  0.00000000000E+00 0.  1.
         21    1    1    2  506  501 -0.29841130419E+02  0.58071314920E+01  0.73792918581E+02  0.79809840706E+02  0.00000000000E+00 0.  1.
<scales pt_clust_3="14000.00000" pt_clust_4="65.15852" pt_clust_5="101.68845" pt_clust_6="30.40092"></scales>
<clustering>
<clus scale="   30.401">  1  6  2 -1</clus>
<clus scale="   65.159">  2  4  1 -1</clus>
<clus scale="  101.688">  1  5  2 -1</clus>
<clus scale="   30.401">  1  3  2 -1</clus>
</clustering>
</event>
<event>
 6    0  0.1463946E+003  0.9747854E+02  0.7546771E-02  0.1285689E+00
         21   -1    0    0  505  501  0.00000000000E+00  0.00000000000E+00  0.65562536650E+02  0.65562536650E+02  0.00000000000E+00 0. -1.
         21   -1    0    0  503  502 -0.00000000000E+00 -0.00000000000E+00 -0.14131244398E+04  0.14131244398E+04  0.00000000000E+00 0. -1.
         21    1    1    2  503  501  0.82220034039E+02  0.72288232559E+02 -0.65569981609E+02  0.12761326362E+03  0.00000000000E+00 0. -1.
         21    1    1    2  504  506 -0.61885487507E+01 -0.91559043302E+02 -0.27615076509E+03  0.29099931547E+03  0.00000000000E+00 0. -1.
         21    1    1    2  505  504 -0.64180825881E+02 -0.60257187021E+02 -0.50771434322E+02  0.10162600819E+03  0.00000000000E+00 0. -1.
         21    1    1    2  506  502 -0.11850659408E+02  0.79527997763E+02 -0.95506972213E+03  0.95844838916E+03  0.00000000000E+00 0. -1.
<scales pt_clust_3="14000.00000" pt_clust_4="44.26766" pt_clust_5="97.47854" pt_clust_6="80.40610"></scales>
<clustering>
<clus scale="   80.406">  2  6  1 -1</clus>
<clus scale="   44.268">  2  4  1 -1</clus>
<clus scale="   97.479">  1  5  2 -1</clus>
<clus scale="   97.479">  1  3  2 -1</clus>
</clustering>
</event>
<event>
 6    0  0.1463946E+003  0.8511461E+02  0.7546771E-02  0.1315133E+00
         21   -1    0    0  503  501  0.00000000000E+00  0.00000000000E+00  0.32436177382E+04  0.32436177382E+04  0.00000000000E+00 0. -1.
         21   -1    0    0  506  502 -0.00000000000E+00 -0.00000000000E+00 -0.13685604408E+03  0.13685604408E+03  0.00000000000E+00 0.  1.
         21    1    1    2  503  505  0.77036533832E+02 -0.36023510151E+02  0.27865399080E+04  0.27878373302E+04  0.00000000000E+00 0. -1.
         21    1    1    2  504  501 -0.98666368858E+02 -0.56860026642E+01  0.99151949711E+02  0.13999461454E+03  0.00000000000E+00 0. -1.
         21    1    1    2  505  502  0.38538984479E+02  0.71382265872E+02  0.32930326343E+03  0.33914793308E+03  0.00000000000E+00 0. -1.
         21    1    1    2  506  504 -0.16909149453E+02 -0.29672753057E+02 -0.10823342705E+03  0.11349390442E+03  0.00000000000E+00 0.  1.
<scales pt_clust_3="85.11461" pt_clust_4="14000.00000" pt_clust_5="74.65558" pt_clust_6="34.15248"></scales>
<clustering>
<clus scale="   34.152">  2  6  1 -1</clus>
<clus scale="   74.656">  2  5  1 -1</clus>
<clus scale="   85.115">  1  3  2 -1</clus>
<clus scale="   85.115">  1  3  2 -1</clus>
</clustering>
</event>
<event>
 6    0  0.1463946E+003  0.1400593E+03  0.7546771E-02  0.1213249E+00
         21   -1    0    0  506  501  0.00000000000E+00  0.00000000000E+00  0.12147805680E+04  0.12147805680E+04  0.00000000000E+00 0.  1.
         21   -1    0    0  504  502 -0.00000000000E+00 -0.00000000000E+00 -0.32185741462E+03  0.32185741462E+03  0.00000000000E+00 0.  1.
         21    1    1    2  503  502  0.23787888205E+02 -0.42486939827E+02 -0.11947894496E+03  0.12902023861E+03  0.00000000000E+00 0.  1.
         21    1    1    2  504  505 -0.56120687354E+01  0.14320349721E+03 -0.32703536814E+02  0.14699747702E+03  0.00000000000E+00 0.  1.
         21    1    1    2  505  501 -0.30958126445E+02 -0.13809405418E+03 -0.60785711372E+02  0.15402362189E+03  0.00000000000E+00 0. -1.
         21    1    1    2  506  503  0.12782306976E+02  0.37377496801E+02  0.11058913465E+04  0.11065966451E+04  0.00000000000E+00 0.  1.
<scales pt_clust_3="47.55149" pt_clust_4="14000.00000" pt_clust_5="140.05926" pt_clust_6="39.50272"></scales>
<clustering>
<clus scale="   39.503">  1  6  2 -1</clus>
<clus scale="   47.551">  2  3  1 -1</clus>
<clus scale="  140.059">  1  5  2 -1</clus>
<clus scale="   39.503">  1  3  2 -1</clus>
</clustering>
</event>
<event>
 6    0  0.1463946E+003  0.1226022E+03  0.7546771E-02  0.1238865E+00
         21   -1    0    0  504  501  0.00000000000E+00  0.00000000000E+00  0.17771534720E+03  0.17771534720E+03  0.00000000000E+00 0.  1.
         21   -1    0    0  506  502 -0.00000000000E+00 -0.00000000000E+00 -0.64612163843E+03  0.64612163843E+03  0.00000000000E+00 0. -1.
         21    1    1    2  503  502  0.54963137394E+02  0.13254006954E+02 -0.81621747048E+02  0.99291111202E+02  0.00000000000E+00 0. -1.
         21    1    1    2  504  505  0.42618757944E+02  0.28610766305E+02  0.32347730108E+02  0.60673800939E+02  0.00000000000E+00 0.  1.
         21    1    1    2  505  503 -0.35978618449E+02  0.96841793285E+02  0.87257069021E+02  0.13522791874E+03  0.00000000000E+00 0.  1.
         21    1    1    2  506  501 -0.61603276889E+02 -0.13870656654E+03 -0.50638934332E+03  0.52864415475E+03  0.00000000000E+00 0. -1.
<scales pt_clust_3="59.79206" pt_clust_4="51.33161" pt_clust_5="122.60217" pt_clust_6="14000.00000"></scales>
<clustering>
<clus scale="   51.332">  1  4  2 -1</clus>
<clus scale="   59.792">  2  3  1 -1</clus>
<clus scale="  122.602">  1  5  2 -1</clus>
<clus scale="   51.332">  1  3  2 -1</clus>
</clustering>
</event>
<event>
 6    0  0.1463946E+003  0.1593035E+03  0.7546771E-02  0.1189485E+00
         21   -1    0    0  504  501  0.00000000000E+00  0.00000000000E+00  0.95124911792E+02  0.95124911792E+02  0.00000000000E+00 0. -1.
         21   -1    0    0  503  502 -0.00000000000E+00 -0.00000000000E+00 -0.12218923972E+04  0.12218923972E+04  0.00000000000E+00 0. -1.
         21    1    1    2  503  505  0.11051795517E+03 -0.12350429864E+03 -0.29503244480E+03  0.33839573532E+03  0.00000000000E+00 0. -1.
         21    1    1    2  504  506  0.30368229012E+02  0.39892197974E+02  0.38883423146E+02  0.63447122772E+02  0.00000000000E+00 0. -1.
         21    1    1    2  505  501 -0.15339592380E+03  0.55353023153E+02 -0.28209572010E+03  0.32584085366E+03  0.00000000000E+00 0. -1.
         21    1    1    2  506  502  0.12509739624E+02  0.28259077512E+02 -0.58852274369E+03  0.58933359729E+03  0.00000000000E+00 0. -1.
<scales pt_clust_3="159.30351" pt_clust_4="50.71950" pt_clust_5="14000.00000" pt_clust_6="30.90419"></scales>
<clustering>
<clus scale="   30.904">  2  6  1 -1</clus>
<clus scale="   50.719">  1  4  2 -1</clus>
<clus scale="  159.304">  2  3  1 -1</clus>
<clus scale="   50.719">  1  3  2 -1</clus>
</clustering>
</event>
<event>
 6    0  0.1463946E+003  0.7606398E+02  0.7546771E-02  0.1340608E+00
         21   -1    0    0  503  501  0.00000000000E+00  0.00000000000E+00  0.42849625417E+03  0.42849625417E+03  0.00000000000E+00 0.  1.
         21   -1    0    0  505  502 -0.00000000000E+00 -0.00000000000E+00 -0.26684684802E+03  0.26684684802E+03  0.00000000000E+00 0.  1.
         21    1    1    2  503  504 -0.43216097499E+02 -0.31847645768E+02  0.66046426127E+02  0.85111891227E+02  0.00000000000E+00 0.  1.
         21    1    1    2  504  502  0.75719059508E+02  0.62979909296E+02 -0.10076455681E+03  0.14090188380E+03  0.00000000000E+00 0.  1.
         21    1    1    2  505  506 -0.70074210968E+02 -0.75423581633E+01 -0.12575930485E+03  0.14416200944E+03  0.00000000000E+00 0.  1.
         21    1    1    2  506  501  0.37571248959E+02 -0.23589905365E+02  0.32212684168E+03  0.32516731772E+03  0.00000000000E+00 0.  1.
<scales pt_clust_3="51.44720" pt_clust_4="76.06398" pt_clust_5="14000.00000" pt_clust_6="44.36307"></scales>
<clustering>
<clus scale="   44.363">  1  6  2 -1</clus>
<clus scale="   51.447">  1  3  2 -1</clus>
<clus scale="   76.064">  1  4  2 -1</clus>
<clus scale="   44.363">  1  3  2 -1</clus>
</clustering>
</event>
<event>
 6    0  0.1463946E+003  0.7634216E+02  0.7546771E-02  0.1339764E+00
         21   -1    0    0  504  501  0.00000000000E+00  0.00000000000E+00  0.10286910055E+04  0.10286910055E+04  0.00000000000E+00 0. -1.
         21   -1    0    0  503  502 -0.00000000000E+00 -0.00000000000E+00 -0.30819809305E+02  0.30819809305E+02  0.00000000000E+00 0.  1.
         21    1    1    2  503  501  0.81821874883E+02  0.48313386297E+02  0.39214440277E+03  0.40349254655E+03  0.00000000000E+00 0. -1.
         21    1    1    2  504  506 -0.39722326103E+02 -0.31235790694E+02  0.35276099868E+03  0.35636197890E+03  0.00000000000E+00 0. -1.
         21    1    1    2  505  502  0.35730584305E+02  0.10680892969E+02  0.42035562333E+01  0.37529002310E+02  0.00000000000E+00 0.  1.
         21    1    1    2  506  505 -0.77830133085E+02 -0.27758488572E+02  0.24876223855E+03  0.26212728709E+03  0.00000000000E+00 0. -1.
<scales pt_clust_3="76.34216" pt_clust_4="46.15366" pt_clust_5="37.29284" pt_clust_6="14000.00000"></scales>
<clustering>
<clus scale="   37.293">  2  5  1 -1</clus>
<clus scale="   46.154">  1  4  2 -1</clus>
<clus scale="   76.342">  1  3  2 -1</clus>
<clus scale="   46.154">  1  3  2 -1</clus>
</clustering>
</event>
<event>
 6    0  0.1463946E+003  0.1497461E+03  0.7546771E-02  0.1200785E+00
         21   -1    0    0  504  501  0.00000000000E+00  0.00000000000E+00  0.55815135135E+03  0.55815135135E+03  0.00000000000E+00 0.  1.
         21   -1    0    0  506  502 -0.00000000000E+00 -0.00000000000E+00 -0.21247955651E+03  0.21247955651E+03  0.00000000000E+00 0. -1.
         21    1    1    2  503  502 -0.11402771160E+03  0.86072002350E+02 -0.28314603741E+02  0.14564486048E+03  0.00000000000E+00 0. -1.
         21    1    1    2  504  503  0.42368651548E+02  0.49114718939E+01  0.38851932199E+03  0.39085353875E+03  0.00000000000E+00 0.  1.
         21    1    1    2  505  501 -0.33295120477E+02  0.26197565815E+02  0.48735049053E+02  0.64575401728E+02  0.00000000000E+00 0. -1.
         21    1    1    2  506  505  0.10495418053E+03 -0.11718104006E+03 -0.63267972474E+02  0.16955710690E+03  0.00000000000E+00 0. -1.
<scales pt_clust_3="14000.00000" pt_clust_4="30.17659" pt_clust_5="42.36599" pt_clust_6="149.74613"></scales>
<clustering>
<clus scale="   42.366">  1  5  2 -1</clus>
<clus scale="   30.177">  1  4  2 -1</clus>
<clus scale="  149.746">  2  6  1 -1</clus>
<clus scale="   42.366">  1  3  2 -1</clus>
</clustering>
</event>
<event>
 6    0  0.1463946E+003  0.8349697E+02  0.7546771E-02  0.1319411E+00
         21   -1    0    0  505  501  0.00000000000E+00  0.00000000000E+00  0.13348165753E+04  0.13348165753E+04  0.00000000000E+00 0. -1.
         21   -1    0    0  503  502 -0.00000000000E+00 -0.00000000000E+00 -0.13508033848E+04  0.13508033848E+04  0.00000000000E+00 0. -1.
         21    1    1    2  503  506  0.61240036020E+02  0.36424717584E+01 -0.12681895771E+04  0.12696725613E+04  0.00000000000E+00 0. -1.
         21    1    1    2  504  502 -0.17309351594E+02 -0.85208397630E+02 -0.21749395889E+02  0.89627679323E+02  0.00000000000E+00 0.  1.
         21    1    1    2  505  504  0.37032611095E+02  0.23019310806E+02  0.12029666730E+04  0.12037566695E+04  0.00000000000E+00 0. -1.
         21    1    1    2  506  501 -0.80963295521E+02  0.58546615066E+02  0.70985490444E+02  0.12256304994E+03  0.00000000000E+00 0. -1.
<scales pt_clust_3="61.56461" pt_clust_4="83.49697" pt_clust_5="43.60393" pt_clust_6="14000.00000"></scales>
<clustering>
<clus scale="   43.604">  1  5  2 -1</clus>
<clus scale="   61.565">  2  3  1 -1</clus>
<clus scale="   83.497">  2  4  1 -1</clus>
<clus scale="   43.604">  1  3  2 -1</clus>
</clustering>
</event>
<event>
 6    0  0.1463946E+003  0.7634803E+02  0.7546771E-02  0.1339747E+00
         21   -1    0    0  503  501  0.00000000000E+00  0.00000000000E+00  0.56055420938E+03  0.56055420938E+03  0.00000000000E+00 0. -1.
         21   -1    0    0  504  502 -0.00000000000E+00 -0.00000000000E+00 -0.33845494129E+03  0.33845494129E+03  0.00000000000E+00 0. -1.
         21    1    1    2  503  505  0.11809119702E+03 -0.57577606676E+02  0.46874245851E+03  0.48680612570E+03  0.00000000000E+00 0. -1.
         21    1    1    2  504  506 -0.12636301956E+02 -0.30630656752E+02 -0.60828683512E-01  0.33134830018E+02  0.00000000000E+00 0.  1.
         21    1    1    2  505  502 -0.59992594502E+02  0.46942412876E+02 -0.29259116571E+03  0.30234465725E+03  0.00000000000E+00 0. -1.
         21    1    1    2  506  501 -0.45462300559E+02  0.41265850553E+02  0.46008803969E+02  0.76723537696E+02  0.00000000000E+00 0. -1.
<scales pt_clust_3="76.34803" pt_clust_4="33.13477" pt_clust_5="14000.00000" pt_clust_6="60.88013"></scales>
<clustering>
<clus scale="   33.135">  2  4  1 -1</clus>
<clus scale="   60.880">  1  6  2 -1</clus>
<clus scale="   76.348">  1  3  2 -1</clus>
<clus scale="   60.880">  1  3  2 -1</clus>
</clustering>
</event>
<event>
 6    0  0.1463946E+003  0.6574183E+02  0.7546771E-02  0.1375203E+00
         21   -1    0    0  506  501  0.00000000000E+00  0.00000000000E+00  0.99101984036E+03  0.99101984036E+03  0.00000000000E+00 0.  1.
         21   -1    0    0  505  502 -0.00000000000E+00 -0.00000000000E+00 -0.20927763427E+03  0.20927763427E+03  0.00000000000E+00 0. -1.
         21    1    1    2  503  502 -0.33375442529E+02 -0.25419689266E+02 -0.10400836950E+03  0.11215088806E+03  0.00000000000E+00 0.  1.
         21    1    1    2  504  501  0.38994733478E+02 -0.90020130432E+02  0.85258512515E+03  0.85821070183E+03  0.00000000000E+00 0.  1.
         21    1    1    2  505  504 -0.69796719149E+01  0.76463910519E+02 -0.79612203094E+02  0.11060537199E+03  0.00000000000E+00 0. -1.
         21    1    1    2  506  503  0.13603809658E+01  0.38975909180E+02  0.11277765354E+03  0.11933051274E+03  0.00000000000E+00 0. -1.
<scales pt_clust_3="41.83863" pt_clust_4="65.74183" pt_clust_5="14000.00000" pt_clust_6="38.99964"></scales>
<clustering>
<clus scale="   39.000">  1  6  2 -1</clus>
<clus scale="   41.839">  2  3  1 -1</clus>
<clus scale="   65.742">  1  4  2 -1</clus>
<clus scale="   39.000">  1  3  2 -1</clus>
</clustering>
</event>
<event>
 6    0  0.1463946E+003  0.1200949E+03  0.7546771E-02  0.1242941E+00
         21   -1    0    0  503  501  0.00000000000E+00  0.00000000000E+00  0.10488057048E+04  0.10488057048E+04  0.00000000000E+00 0. -1.
         21   -1    0    0  504  502 -0.00000000000E+00 -0.00000000000E+00 -0.27647706315E+03  0.27647706315E+03  0.00000000000E+00 0.  1.
         21    1    1    2  503  506 -0.12408396538E+03 -0.50517391270E+02  0.65359150276E+03  0.66718115214E+03  0.00000000000E+00 0. -1.
         21    1    1    2  504  501  0.38113661779E+02 -0.65930697622E+02 -0.23561258317E+03  0.24761421092E+03  0.00000000000E+00 0.  1.
         21    1    1    2  505  502  0.54942121275E+02 -0.11174133509E+02  0.37383344395E+02  0.67387034272E+02  0.00000000000E+00 0. -1.
         21    1    1    2  506  505  0.31028182324E+02  0.12762222240E+03  0.31696637769E+03  0.34310037065E+03  0.00000000000E+00 0. -1.
<scales pt_clust_3="14000.00000" pt_clust_4="117.11129" pt_clust_5="56.06691" pt_clust_6="120.09494"></scales>
<clustering>
<clus scale="   56.067">  2  5  1 -1</clus>
<clus scale="  117.111">  2  4  1 -1</clus>
<clus scale="  120.095">  2  6  1 -1</clus>
<clus scale="  120.095">  1  3  2 -1</clus>
</clustering>
</event>
<event>
 6    0  0.1463946E+003  0.7282833E+02  0.7546771E-02  0.1350731E+00
         21   -1    0    0  505  501  0.00000000000E+00  0.00000000000E+00  0.18644265509E+03  0.18644265509E+03  0.00000000000E+00 0.  1.
         21   -1    0    0  504  502 -0.00000000000E+00 -0.00000000000E+00 -0.18843970139E+03  0.18843970139E+03  0.00000000000E+00 0.  1.
         21    1    1    2  503  502 -0.43835162303E+02  0.35897667303E+02 -0.47248276796E+02  0.73773732670E+02  0.00000000000E+00 0.  1.
         21    1    1    2  504  506  0.46110763801E+02  0.14365557507E+02 -0.64038225947E+02  0.80208890799E+02  0.00000000000E+00 0.  1.
         21    1    1    2  505  503 -0.31116831820E+02  0.56447778389E+02  0.86767449974E+02  0.10808884902E+03  0.00000000000E+00 0.  1.
         21    1    1    2  506  501  0.28841230322E+02 -0.10671100320E+03  0.22522006471E+02  0.11281088399E+03  0.00000000000E+00 0.  1.
<scales pt_clust_3="47.69645" pt_clust_4="48.29671" pt_clust_5="14000.00000" pt_clust_6="72.82833"></scales>
<clustering>
<clus scale="   48.297">  2  4  1 -1</clus>
<clus scale="   47.696">  2  3  1 -1</clus>
<clus scale="   72.828">  2  6  1 -1</clus>
<clus scale="   72.828">  1  3  2 -1</clus>
</clustering>
</event>
<event>
 6    0  0.1463946E+003  0.1168303E+03  0.7546771E-02  0.1248420E+00
         21   -1    0    0  504  501  0.00000000000E+00  0.00000000000E+00  0.34543726331E+03  0.34543726331E+03  0.00000000000E+00 0. -1.
         21   -1    0    0  505  502 -0.00000000000E+00 -0.00000000000E+00 -0.69891389923E+03  0.69891389923E+03  0.00000000000E+00 0. -1.
         21    1    1    2  503  501  0.10564809063E+03  0.55668993061E+02  0.31835515048E+03  0.34001552565E+03  0.00000000000E+00 0. -1.
         21    1    1    2  504  506 -0.66937820865E+02 -0.51926227484E+02 -0.12668797520E+03  0.15240356959E+03  0.00000000000E+00 0. -1.
         21    1    1    2  505  503  0.16510971450E+01  0.32205698717E+02 -0.20363026266E+03  0.20616793403E+03  0.00000000000E+00 0. -1.
         21    1    1    2  506  502 -0.40361366910E+02 -0.35948464294E+02 -0.34151354854E+03  0.34576413328E+03  0.00000000000E+00 0. -1.
<scales pt_clust_3="116.83025" pt_clust_4="14000.00000" pt_clust_5="32.24799" pt_clust_6="41.48666"></scales>
<clustering>
<clus scale="   32.248">  2  5  1 -1</clus>
<clus scale="   41.487">  2  6  1 -1</clus>
<clus scale="  116.830">  1  3  2 -1</clus>
<clus scale="  116.830">  1  3  2 -1</clus>
</clustering>
</event>
<event>
 6    0  0.1463946E+003  0.1028379E+03  0.7546771E-02  0.1274439E+00
         21   -1    0    0  504  501  0.00000000000E+00  0.00000000000E+00  0.16098108437E+04  0.16098108437E+04  0.00000000000E+00 0. -1.
         21   -1    0    0  501  502 -0.00000000000E+00 -0.00000000000E+00 -0.37234918078E+03  0.37234918078E+03  0.00000000000E+00 0.  1.
         21    1    1    2  503  502  0.66063463313E+02  0.82832563712E+02 -0.35196473775E+03  0.36756603681E+03  0.00000000000E+00 0.  1.
         21    1    1    2  504  505  0.27138829622E+02 -0.14965779412E+02  0.11867471537E+04  0.11871517584E+04  0.00000000000E+00 0. -1.
         21    1    1    2  505  506 -0.52375763775E+02 -0.19991118368E+02  0.31246073873E+03  0.31745012001E+03  0.00000000000E+00 0. -1.
         21    1    1    2  506  503 -0.40826529160E+02 -0.47875665933E+02  0.90218508180E+02  0.10999210922E+03  0.00000000000E+00 0. -1.
<scales pt_clust_3="14000.00000" pt_clust_4="30.99178" pt_clust_5="44.76583" pt_clust_6="102.83787"></scales>
<clustering>
<clus scale="   30.992">  1  4  2 -1</clus>
<clus scale="   44.766">  1  5  2 -1</clus>
<clus scale="  102.838">  1  6  2 -1</clus>
<clus scale="   30.992">  1  3  2 -1</clus>
</clustering>
</event>
<event>
 6    0  0.1463946E+003  0.2490369E+03  0.7546771E-02  0.1113915E+00
         21   -1    0    0  503  501  0.00000000000E+00  0.00000000000E+00  0.30147607875E+03  0.30147607875E+03  0.00000000000E+00 0. -1.
         21   -1    0    0  501  502 -0.00000000000E+00 -0.00000000000E+00 -0.20886959966E+03  0.20886959966E+03  0.00000000000E+00 0. -1.
         21    1    1    2  503  506  0.91327505736E+01 -0.66392679141E+02  0.74289672057E+02  0.10005173837E+03  0.00000000000E+00 0. -1.
         21    1    1    2  504  505 -0.41569856520E+02  0.16269400542E+03  0.21089749479E+02  0.16923997727E+03  0.00000000000E+00 0. -1.
         21    1    1    2  505  502  0.38431882679E+02  0.61342702305E+02 -0.34418341103E+02  0.80153346385E+02  0.00000000000E+00 0. -1.
         21    1    1    2  506  504 -0.59947767323E+01 -0.15764402859E+03  0.31645398651E+02  0.16090061639E+03  0.00000000000E+00 0. -1.
<scales pt_clust_3="53.23713" pt_clust_4="71.37308" pt_clust_5="71.37308" pt_clust_6="238.48248"></scales>
<clustering>
<clus scale="   53.237">  3  6 -1 -1</clus>
<clus scale="   71.373">  4  5 -1 -1</clus>
<clus scale="  238.482">  1  3  2 -1</clus>
<clus scale="  238.482">  1  3  2 -1</clus>
</clustering>
</event>
<event>
 6    0  0.1463946E+003  0.1426882E+03  0.7546771E-02  0.1209757E+00
         21   -1    0    0  505  501  0.00000000000E+00  0.00000000000E+00  0.71977235646E+02  0.71977235646E+02  0.00000000000E+00 0.  1.
         21   -1    0    0  501  502 -0.00000000000E+00 -0.00000000000E+00 -0.67421165332E+03  0.67421165332E+03  0.00000000000E+00 0. -1.
         21    1    1    2  503  506  0.75502923599E+02  0.87816644653E+02 -0.48436650446E+03  0.49801944259E+03  0.00000000000E+00 0. -1.
         21    1    1    2  504  503 -0.47171237397E+02 -0.74247724293E+01 -0.30366455492E+02  0.56589526437E+02  0.00000000000E+00 0.  1.
         21    1    1    2  505  504 -0.65927964086E+02 -0.63501631663E+02  0.35803759967E+01  0.91606619656E+02  0.00000000000E+00 0.  1.
         21    1    1    2  506  502  0.37596277885E+02 -0.16890240561E+02 -0.91081833715E+02  0.99973300285E+02  0.00000000000E+00 0.  1.
<scales pt_clust_3="130.14340" pt_clust_4="41.36025" pt_clust_5="41.36025" pt_clust_6="41.21602"></scales>
<clustering>
<clus scale="   41.216">  2  6  1 -1</clus>
<clus scale="   41.360">  4  5 -1 -1</clus>
<clus scale="  130.143">  2  3  1 -1</clus>
<clus scale="  142.688">  1  3  2 -1</clus>
</clustering>
</event>
<event>
 6    0  0.1463946E+003  0.1481324E+03  0.7546771E-02  0.1202787E+00
         21   -1    0    0  505  501  0.00000000000E+00  0.00000000000E+00  0.34703026028E+03  0.34703026028E+03  0.00000000000E+00 0. -1.
         21   -1    0    0  503  502 -0.00000000000E+00 -0.00000000000E+00 -0.28162125555E+03  0.28162125555E+03  0.00000000000E+00 0. -1.
         21    1    1    2  503  506  0.98610991105E+02  0.99139668736E+02 -0.22084010692E+03  0.26138698190E+03  0.00000000000E+00 0. -1.
         21    1    1    2  504  502 -0.13138467826E+02 -0.53625076494E+02  0.13743334625E+03  0.14810871962E+03  0.00000000000E+00 0. -1.
         21    1    1    2  505  504 -0.51181786920E+02 -0.85372164036E+02  0.12906540201E+03  0.16299036690E+03  0.00000000000E+00 0. -1.
         21    1    1    2  506  501 -0.34290736358E+02  0.39857571794E+02  0.19750363386E+02  0.56165447413E+02  0.00000000000E+00 0. -1.
<scales pt_clust_3="140.14092" pt_clust_4="35.74644" pt_clust_5="35.74644" pt_clust_6="52.57833"></scales>
<clustering>
<clus scale="   35.746">  4  5 -1 -1</clus>
<clus scale="   52.578">  1  6  2 -1</clus>
<clus scale="  140.141">  2  3  1 -1</clus>
<clus scale="   52.578">  1  3  2 -1</clus>
</clustering>
</event>
<event>
 6    0  0.1463946E+003  0.1831443E+03  0.7546771E-02  0.1164794E+00
         21   -1    0    0  506  501  0.00000000000E+00  0.00000000000E+00  0.15637107397E+04  0.15637107397E+04  0.00000000000E+00 0.  1.
         21   -1    0    0  504  502 -0.00000000000E+00 -0.00000000000E+00 -0.55752242891E+03  0.55752242891E+03  0.00000000000E+00 0.  1.
         21    1    1    2  503  505 -0.16708388612E+03 -0.19489135359E+03 -0.28335940197E+03  0.38235090609E+03  0.00000000000E+00 0.  1.
         21    1    1    2  504  501  0.15474764132E+03  0.85277066904E+02  0.14321402734E+04  0.14429985354E+04  0.00000000000E+00 0.  1.
         21    1    1    2  505  502 -0.48867491944E+01  0.13439135335E+03 -0.19413161475E+03  0.23616096210E+03  0.00000000000E+00 0.  1.
         21    1    1    2  506  503  0.17222993993E+02 -0.24777066669E+02  0.51539054126E+02  0.59722764965E+02  0.00000000000E+00 0. -1.
<scales pt_clust_3="183.14429" pt_clust_4="14000.00000" pt_clust_5="134.12661" pt_clust_6="30.17507"></scales>
<clustering>
<clus scale="   30.175">  1  6  2 -1</clus>
<clus scale="  134.127">  2  5  1 -1</clus>
<clus scale="  183.144">  2  3  1 -1</clus>
<clus scale="   30.175">  1  3  2 -1</clus>
</clustering>
</event>
<event>
 6    0  0.1463946E+003  0.7274700E+02  0.7546771E-02  0.1350993E+00
         21   -1    0    0  504  501  0.00000000000E+00  0.00000000000E+00  0.13425641533E+04  0.13425641533E+04  0.00000000000E+00 0.  1.
         21   -1    0    0  505  502 -0.00000000000E+00 -0.00000000000E+00 -0.47850570991E+02  0.47850570991E+02  0.00000000000E+00 0.  1.
         21    1    1    2  503  501  0.16990137927E+02  0.71392000572E+02  0.94030853865E+03  0.94316786968E+03  0.00000000000E+00 0.  1.
         21    1    1    2  504  502 -0.43344472622E+02  0.16314523166E+02 -0.69275444268E+00  0.46318321232E+02  0.00000000000E+00 0.  1.
         21    1    1    2  505  506  0.75894844250E+02 -0.28930499134E+02  0.75276465799E+02  0.11074090241E+03  0.00000000000E+00 0.  1.
         21    1    1    2  506  503 -0.49540509555E+02 -0.58776024603E+02  0.27982133226E+03  0.29018763092E+03  0.00000000000E+00 0.  1.
<scales pt_clust_3="14000.00000" pt_clust_4="46.31314" pt_clust_5="47.48928" pt_clust_6="72.74700"></scales>
<clustering>
<clus scale="   46.313">  2  4  1 -1</clus>
<clus scale="   47.489">  2  5  1 -1</clus>
<clus scale="   72.747">  2  6  1 -1</clus>
<clus scale="   72.747">  1  3  2 -1</clus>
</clustering>
</event>
<event>
 6    0  0.1463946E+003  0.1524199E+03  0.7546771E-02  0.1197531E+00
         21   -1    0    0  503  501  0.00000000000E+00  0.00000000000E+00  0.20441200324E+03  0.20441200324E+03  0.00000000000E+00 0. -1.
         21   -1    0    0  501  502 -0.00000000000E+00 -0.00000000000E+00 -0.36290008712E+03  0.36290008712E+03  0.00000000000E+00 0. -1.
         21    1    1    2  503  505  0.34289719887E+02  0.13464820984E+03  0.14929006883E+03  0.20394472279E+03  0.00000000000E+00 0. -1.
         21    1    1    2  504  506 -0.23595967054E+02 -0.55562519639E+02 -0.13560317765E+03  0.14843242584E+03  0.00000000000E+00 0. -1.
         21    1    1    2  505  504  0.29766884697E+02 -0.82681784682E+02 -0.11267399725E+03  0.14289077856E+03  0.00000000000E+00 0. -1.
         21    1    1    2  506  502 -0.40460637530E+02  0.35960944808E+01 -0.59500977814E+02  0.72044163162E+02  0.00000000000E+00 0. -1.
<scales pt_clust_3="138.39707" pt_clust_4="58.49691" pt_clust_5="58.49691" pt_clust_6="40.62013"></scales>
<clustering>
<clus scale="   40.620">  2  6  1 -1</clus>
<clus scale="   58.497">  4  5 -1 -1</clus>
<clus scale="  138.397">  1  3  2 -1</clus>
<clus scale="  138.397">  1  3  2 -1</clus>
</clustering>
</event>
<event>
 6    0  0.3122270E+003  0.9220063E+02  0.7546771E-02  0.1297608E+00
         21   -1    0    0  505  501  0.00000000000E+00  0.00000000000E+00  0.98121005743E+03  0.98121005743E+03  0.00000000000E+00 0. -1.
         21   -1    0    0  503  502 -0.00000000000E+00 -0.00000000000E+00 -0.11243587319E+04  0.11243587319E+04  0.00000000000E+00 0.  1.
         21    1    1    2  503  504 -0.84502782474E+02  0.36973955715E+02 -0.10953858115E+04  0.10992624207E+04  0.00000000000E+00 0.  1.
         21    1    1    2  504  506  0.39332525898E+02 -0.10533350430E+03  0.71967782779E+03  0.72840810713E+03  0.00000000000E+00 0. -1.
         21    1    1    2  505  502  0.55076561813E+02 -0.20840062713E+02  0.64237530620E+02  0.87144685524E+02  0.00000000000E+00 0. -1.
         21    1    1    2  506  501 -0.99063052376E+01  0.89199611294E+02  0.16832177866E+03  0.19075357587E+03  0.00000000000E+00 0.  1.
<scales pt_clust_3="92.20063" pt_clust_4="14000.00000" pt_clust_5="58.88748" pt_clust_6="85.07368"></scales>
<clustering>
<clus scale="   58.887">  1  5  2 -1</clus>
<clus scale="   85.074">  1  6  2 -1</clus>
<clus scale="   92.201">  2  3  1 -1</clus>
<clus scale="   58.887">  1  3  2 -1</clus>
</clustering>
</event>
<event>
 6    0  0.1463946E+003  0.9847909E+02  0.7546771E-02  0.1283527E+00
         21   -1    0    0  504  501  0.00000000000E+00  0.00000000000E+00  0.82087210674E+03  0.82087210674E+03  0.00000000000E+00 0.  1.
         21   -1    0    0  505  502 -0.00000000000E+00 -0.00000000000E+00 -0.19474174616E+03  0.19474174616E+03  0.00000000000E+00 0. -1.
         21    1    1    2  503  501  0.61244787957E+02 -0.24717156005E+02  0.24556727438E+03  0.25429342913E+03  0.00000000000E+00 0.  1.
         21    1    1    2  504  506 -0.10108060113E+02  0.43217052854E+02  0.51301879980E+03  0.51493511774E+03  0.00000000000E+00 0.  1.
         21    1    1    2  505  503 -0.12610208164E+03 -0.34035572103E+02 -0.92293956311E+02  0.15993226546E+03  0.00000000000E+00 0. -1.
         21    1    1    2  506  502  0.74965353800E+02  0.15535675254E+02 -0.40161757285E+02  0.86453040572E+02  0.00000000000E+00 0. -1.
<scales pt_clust_3="54.03854" pt_clust_4="44.38340" pt_clust_5="98.47909" pt_clust_6="14000.00000"></scales>
<clustering>
<clus scale="   44.383">  1  4  2 -1</clus>
<clus scale="   54.039">  1  3  2 -1</clus>
<clus scale="   98.479">  1  5  2 -1</clus>
<clus scale="   44.383">  1  3  2 -1</clus>
</clustering>
</event>
<event>
 6    0  0.1463946E+003  0.8010530E+02  0.7546771E-02  0.1328753E+00
         21   -1    0    0  503  501  0.00000000000E+00  0.00000000000E+00  0.36347963132E+03  0.36347963132E+03  0.00000000000E+00 0.  1.
         21   -1    0    0  505  502 -0.00000000000E+00 -0.00000000000E+00 -0.91414064933E+02  0.91414064933E+02  0.00000000000E+00 0.  1.
         21    1    1    2  503  506  0.36585709894E+02  0.14249505380E+02  0.17032597383E+03  0.17479273422E+03  0.00000000000E+00 0.  1.
         21    1    1    2  504  501 -0.14550104446E+01 -0.51823340697E+02  0.70485990085E+02  0.87498859962E+02  0.00000000000E+00 0.  1.
         21    1    1    2  505  504  0.49137579593E+02 -0.45305189615E+02 -0.96505623271E+01  0.67529218029E+02  0.00000000000E+00 0.  1.
         21    1    1    2  506  502 -0.84268279042E+02  0.82879024933E+02  0.40904164798E+02  0.12507288405E+03  0.00000000000E+00 0.  1.
<scales pt_clust_3="39.26274" pt_clust_4="47.92236" pt_clust_5="80.10530" pt_clust_6="14000.00000"></scales>
<clustering>
<clus scale="   39.263">  1  3  2 -1</clus>
<clus scale="   47.922">  1  4  2 -1</clus>
<clus scale="   80.105">  2  5  1 -1</clus>
<clus scale="   39.263">  1  3  2 -1</clus>
</clustering>
</event>
<event>
 6    0  0.1463946E+003  0.7970221E+02  0.7546771E-02  0.1329899E+00
         21   -1    0    0  503  501  0.00000000000E+00  0.00000000000E+00  0.16016561909E+03  0.16016561909E+03  0.00000000000E+00 0.  1.
         21   -1    0    0  505  502 -0.00000000000E+00 -0.00000000000E+00 -0.26127043455E+04  0.26127043455E+04  0.00000000000E+00 0.  1.
         21    1    1    2  503  506 -0.30994553853E+02 -0.31396357506E+02  0.12736334744E+03  0.13478804066E+03  0.00000000000E+00 0.  1.
         21    1    1    2  504  502 -0.60529994183E+01 -0.76535312750E+02 -0.30553434391E+03  0.31503258277E+03  0.00000000000E+00 0.  1.
         21    1    1    2  505  501  0.75817207601E+02  0.27670875790E+02 -0.22138307585E+04  0.22153014589E+04  0.00000000000E+00 0.  1.
         21    1    1    2  506  504 -0.38769654330E+02  0.80260794466E+02 -0.60536971412E+02  0.10774788227E+03  0.00000000000E+00 0. -1.
<scales pt_clust_3="44.11795" pt_clust_4="77.56259" pt_clust_5="79.70221" pt_clust_6="14000.00000"></scales>
<clustering>
<clus scale="   44.118">  1  3  2 -1</clus>
<clus scale="   79.702">  2  5  1 -1</clus>
<clus scale="   77.563">  2  4  1 -1</clus>
<clus scale="   44.118">  1  3  2 -1</clus>
</clustering>
</event>
<event>
 6    0  0.1463946E+003  0.8889838E+02  0.7546771E-02  0.1305542E+00
         21   -1    0    0  504  501  0.00000000000E+00  0.00000000000E+00  0.13352210015E+03  0.13352210015E+03  0.00000000000E+00 0. -1.
         21   -1    0    0  503  502 -0.00000000000E+00 -0.00000000000E+00 -0.20036273732E+03  0.20036273732E+03  0.00000000000E+00 0.  1.
         21    1    1    2  503  506 -0.62021025345E+02 -0.64834947022E+02 -0.51061459323E+01  0.89867962403E+02  0.00000000000E+00 0. -1.
         21    1    1    2  504  505  0.14045529379E+02  0.45603891913E+02  0.20859092519E+01  0.47763405140E+02  0.00000000000E+00 0.  1.
         21    1    1    2  505  502  0.75353067560E+02  0.47927323153E+02 -0.10583366269E+03  0.13847699178E+03  0.00000000000E+00 0.  1.
         21    1    1    2  506  501 -0.27377571594E+02 -0.28696268043E+02  0.42013262196E+02  0.57776478141E+02  0.00000000000E+00 0. -1.
<scales pt_clust_3="88.89838" pt_clust_4="37.51570" pt_clust_5="14000.00000" pt_clust_6="39.66116"></scales>
<clustering>
<clus scale="   39.661">  1  6  2 -1</clus>
<clus scale="   37.516">  1  4  2 -1</clus>
<clus scale="   88.898">  1  3  2 -1</clus>
<clus scale="   39.661">  1  3  2 -1</clus>
</clustering>
</event>
<event>
 6    0  0.1463946E+003  0.1138175E+03  0.7546771E-02  0.1253659E+00
         21   -1    0    0  503  501  0.00000000000E+00  0.00000000000E+00  0.20122172996E+03  0.20122172996E+03  0.00000000000E+00 0. -1.
         21   -1    0    0  506  502 -0.00000000000E+00 -0.00000000000E+00 -0.26209687047E+03  0.26209687047E+03  0.00000000000E+00 0. -1.
         21    1    1    2  503  505 -0.14957539303E+02 -0.39510576105E+02  0.12112345727E+03  0.12827979384E+03  0.00000000000E+00 0. -1.
         21    1    1    2  504  501 -0.11732905412E+02  0.29171773887E+02  0.74984505893E+01  0.32324607072E+02  0.00000000000E+00 0. -1.
         21    1    1    2  505  502 -0.77089812350E+02 -0.58360256071E+02 -0.31722903944E+02  0.10176001814E+03  0.00000000000E+00 0. -1.
         21    1    1    2  506  504  0.10378025706E+03  0.68699058288E+02 -0.15777414443E+03  0.20095418138E+03  0.00000000000E+00 0. -1.
<scales pt_clust_3="30.14017" pt_clust_4="31.44286" pt_clust_5="14000.00000" pt_clust_6="113.81754"></scales>
<clustering>
<clus scale="   31.443">  1  4  2 -1</clus>
<clus scale="   30.140">  1  3  2 -1</clus>
<clus scale="  113.818">  2  6  1 -1</clus>
<clus scale="   31.443">  1  3  2 -1</clus>
</clustering>
</event>
<event>
 6    0  0.1463946E+003  0.7673951E+02  0.7546771E-02  0.1338567E+00
         21   -1    0    0  504  501  0.00000000000E+00  0.00000000000E+00  0.39597157157E+03  0.39597157157E+03  0.00000000000E+00 0.  1.
         21   -1    0    0  505  502 -0.00000000000E+00 -0.00000000000E+00 -0.19788778091E+04  0.19788778091E+04  0.00000000000E+00 0. -1.
         21    1    1    2  503  502 -0.42952137775E+02 -0.17054516283E+02 -0.49748251514E+03  0.49962445450E+03  0.00000000000E+00 0. -1.
         21    1    1    2  504  503  0.29617226153E+02 -0.36256364448E+02  0.37957577038E+03  0.38245191790E+03  0.00000000000E+00 0.  1.
         21    1    1    2  505  506  0.10867895391E+03  0.24352462461E+02 -0.12592365008E+04  0.12641521753E+04  0.00000000000E+00 0. -1.
         21    1    1    2  506  501 -0.95344042287E+02  0.28958418270E+02 -0.20576299197E+03  0.22862083294E+03  0.00000000000E+00 0. -1.
<scales pt_clust_3="46.21410" pt_clust_4="46.80209" pt_clust_5="14000.00000" pt_clust_6="76.73951"></scales>
<clustering>
<clus scale="   46.214">  2  3  1 -1</clus>
<clus scale="   46.802">  1  4  2 -1</clus>
<clus scale="   76.740">  1  6  2 -1</clus>
<clus scale="   46.802">  1  3  2 -1</clus>
</clustering>
</event>
<event>
 6    0  0.1463946E+003  0.6258223E+02  0.7546771E-02  0.1387304E+00
         21   -1    0    0  503  501  0.00000000000E+00  0.00000000000E+00  0.10951905614E+03  0.10951905614E+03  0.00000000000E+00 0. -1.
         21   -1    0    0  505  502 -0.00000000000E+00 -0.00000000000E+00 -0.23690724156E+04  0.23690724156E+04  0.00000000000E+00 0. -1.
         21    1    1    2  503  506  0.11846256336E+02 -0.59360499714E+02  0.73871852584E+02  0.95504205770E+02  0.00000000000E+00 0. -1.
         21    1    1    2  504  501 -0.62719165870E+02  0.67568550197E+02 -0.71709987245E+02  0.11679693923E+03  0.00000000000E+00 0. -1.
         21    1    1    2  505  504  0.37297456831E+02 -0.48186049788E+02 -0.45270555189E+03  0.45678803880E+03  0.00000000000E+00 0. -1.
         21    1    1    2  506  502  0.13575452704E+02  0.39977999306E+02 -0.18090096729E+04  0.18095022879E+04  0.00000000000E+00 0. -1.
<scales pt_clust_3="62.58223" pt_clust_4="14000.00000" pt_clust_5="50.81487" pt_clust_6="42.22006"></scales>
<clustering>
<clus scale="   42.220">  2  6  1 -1</clus>
<clus scale="   50.815">  2  5  1 -1</clus>
<clus scale="   62.582">  1  3  2 -1</clus>
<clus scale="   62.582">  1  3  2 -1</clus>
</clustering>
</event>
<event>
 6    0  0.1463946E+003  0.1221957E+03  0.7546771E-02  0.1239518E+00
         21   -1    0    0  503  501  0.00000000000E+00  0.00000000000E+00  0.11662013947E+04  0.11662013947E+04  0.00000000000E+00 0. -1.
         21   -1    0    0  506  502 -0.00000000000E+00 -0.00000000000E+00 -0.83490797059E+02  0.83490797059E+02  0.00000000000E+00 0.  1.
         21    1    1    2  503  505 -0.15469324444E+03  0.60871005183E+02  0.55420561474E+03  0.57860102191E+03  0.00000000000E+00 0.  1.
         21    1    1    2  504  501  0.36878601279E+02 -0.17196627014E+02  0.52372512556E+03  0.52530349548E+03  0.00000000000E+00 0. -1.
         21    1    1    2  505  502  0.56019587114E+02 -0.52471877697E+02 -0.18866240861E+02  0.79040667593E+02  0.00000000000E+00 0.  1.
         21    1    1    2  506  504  0.61795056050E+02  0.87974995278E+01  0.23646098157E+02  0.66747006736E+02  0.00000000000E+00 0.  1.
<scales pt_clust_3="122.19573" pt_clust_4="40.69097" pt_clust_5="14000.00000" pt_clust_6="64.83790"></scales>
<clustering>
<clus scale="   40.691">  1  4  2 -1</clus>
<clus scale="   64.838">  2  6  1 -1</clus>
<clus scale="  122.196">  1  3  2 -1</clus>
<clus scale="   40.691">  1  3  2 -1</clus>
</clustering>
</event>
<event>
 6    0  0.1463946E+003  0.1642659E+03  0.7546771E-02  0.1183963E+00
         21   -1    0    0  504  501  0.00000000000E+00  0.00000000000E+00  0.12259572795E+04  0.12259572795E+04  0.00000000000E+00 0.  1.
         21   -1    0    0  506  502 -0.00000000000E+00 -0.00000000000E+00 -0.24377660126E+03  0.24377660126E+03  0.00000000000E+00 0.  1.
         21    1    1    2  503  505 -0.39868613125E+02  0.45394053502E+02 -0.70070147377E+02  0.92520008427E+02  0.00000000000E+00 0.  1.
         21    1    1    2  504  502 -0.82106085218E+01 -0.86526829021E+02  0.16876485493E+03  0.18983119473E+03  0.00000000000E+00 0. -1.
         21    1    1    2  505  501  0.34804487657E+02 -0.73031923877E+02  0.10118523755E+04  0.10150813978E+04  0.00000000000E+00 0.  1.
         21    1    1    2  506  503  0.13274733990E+02  0.11416469940E+03 -0.12836640482E+03  0.17230127985E+03  0.00000000000E+00 0.  1.
<scales pt_clust_3="49.10415" pt_clust_4="149.65379" pt_clust_5="80.90126" pt_clust_6="49.10415"></scales>
<clustering>
<clus scale="   49.104">  3  6 -1 -1</clus>
<clus scale="   80.901">  1  5  2 -1</clus>
<clus scale="  149.654">  1  4  2 -1</clus>
<clus scale="   80.901">  1  3  2 -1</clus>
</clustering>
</event>
<event>
 6    0  0.1463946E+003  0.6738509E+02  0.7546771E-02  0.1369218E+00
         21   -1    0    0  502  501  0.00000000000E+00  0.00000000000E+00  0.21245346475E+03  0.21245346475E+03  0.00000000000E+00 0. -1.
         21   -1    0    0  503  502 -0.00000000000E+00 -0.00000000000E+00 -0.27424886776E+03  0.27424886776E+03  0.00000000000E+00 0. -1.
         21    1    1    2  503  504 -0.17249581057E+02  0.28583349288E+02 -0.99632996385E+02  0.10507754219E+03  0.00000000000E+00 0. -1.
         21    1    1    2  504  505 -0.46802347441E+02 -0.76769974063E+01 -0.11456431661E+03  0.12399346215E+03  0.00000000000E+00 0. -1.
         21    1    1    2  505  506  0.11721102280E+03  0.86169094795E+01  0.30523863151E+02  0.12142644364E+03  0.00000000000E+00 0. -1.
         21    1    1    2  506  501 -0.53159094301E+02 -0.29523261361E+02  0.12187804684E+03  0.13620488453E+03  0.00000000000E+00 0. -1.
<scales pt_clust_3="33.38497" pt_clust_4="60.01626" pt_clust_5="14000.00000" pt_clust_6="67.38509"></scales>
<clustering>
<clus scale="   33.385">  2  3  1 -1</clus>
<clus scale="   60.016">  2  4  1 -1</clus>
<clus scale="   67.385">  1  6  2 -1</clus>
<clus scale="   67.385">  1  3  2 -1</clus>
</clustering>
</event>
<event>
 6    0  0.1463946E+003  0.1014934E+03  0.7546771E-02  0.1277186E+00
         21   -1    0    0  505  501  0.00000000000E+00  0.00000000000E+00  0.18012698990E+03  0.18012698990E+03  0.00000000000E+00 0.  1.
         21   -1    0    0  506  502 -0.00000000000E+00 -0.00000000000E+00 -0.36923527426E+03  0.36923527426E+03  0.00000000000E+00 0.  1.
         21    1    1    2  503  501 -0.16106590413E+02  0.32342773696E+02  0.80965949202E+02  0.88662067398E+02  0.00000000000E+00 0. -1.
         21    1    1    2  504  502 -0.31931552205E+02 -0.49213265986E+02 -0.20952884502E+03  0.21758654938E+03  0.00000000000E+00 0.  1.
         21    1    1    2  505  504  0.10327425800E+03  0.90913827227E+02 -0.61555532995E+02  0.15073148307E+03  0.00000000000E+00 0.  1.
         21    1    1    2  506  503 -0.55236115382E+02 -0.74043334938E+02  0.10101444462E+01  0.92382164312E+02  0.00000000000E+00 0.  1.
<scales pt_clust_3="36.13139" pt_clust_4="57.90355" pt_clust_5="14000.00000" pt_clust_6="101.49342"></scales>
<clustering>
<clus scale="   36.131">  1  3  2 -1</clus>
<clus scale="   57.904">  2  4  1 -1</clus>
<clus scale="  101.493">  1  6  2 -1</clus>
<clus scale="   36.131">  1  3  2 -1</clus>
</clustering>
</event>
<event>
 6    0  0.1463946E+003  0.2149003E+03  0.7546771E-02  0.1137743E+00
         21   -1    0    0  504  501  0.00000000000E+00  0.00000000000E+00  0.38284921605E+03  0.38284921605E+03  0.00000000000E+00 0.  1.
         21   -1    0    0  503  502 -0.00000000000E+00 -0.00000000000E+00 -0.32043078609E+03  0.32043078609E+03  0.00000000000E+00 0.  1.
         21    1    1    2  503  506 -0.76111730149E+02 -0.69249839725E+02 -0.10701432083E+03  0.14846077135E+03  0.00000000000E+00 0.  1.
         21    1    1    2  504  505  0.54468345509E+02  0.19548072743E+02  0.19074063743E+03  0.19932616130E+03  0.00000000000E+00 0.  1.
         21    1    1    2  505  502  0.14454115091E+03  0.78146764541E+02  0.89923266694E+02  0.18731058434E+03  0.00000000000E+00 0.  1.
         21    1    1    2  506  501 -0.12289776627E+03 -0.28444997560E+02 -0.11123115333E+03  0.16818248515E+03  0.00000000000E+00 0.  1.
<scales pt_clust_3="53.30103" pt_clust_4="57.86992" pt_clust_5="206.63820" pt_clust_6="53.30103"></scales>
<clustering>
<clus scale="   53.301">  3  6 -1 -1</clus>
<clus scale="   57.870">  1  4  2 -1</clus>
<clus scale="  206.638">  1  5  2 -1</clus>
<clus scale="   57.870">  1  3  2 -1</clus>
</clustering>
</event>
<event>
 6    0  0.1463946E+003  0.8635565E+02  0.7546771E-02  0.1311925E+00
         21   -1    0    0  505  501  0.00000000000E+00  0.00000000000E+00  0.17037425388E+03  0.17037425388E+03  0.00000000000E+00 0.  1.
         21   -1    0    0  503  502 -0.00000000000E+00 -0.00000000000E+00 -0.10554195785E+04  0.10554195785E+04  0.00000000000E+00 0. -1.
         21    1    1    2  503  504  0.15380792707E+01  0.47355808721E+02 -0.31871112423E+03  0.32221377843E+03  0.00000000000E+00 0. -1.
         21    1    1    2  504  501  0.21474220081E+02  0.92029000003E+02  0.12734698785E+03  0.15858037168E+03  0.00000000000E+00 0.  1.
         21    1    1    2  505  506  0.13959881399E+02 -0.65072632969E+02 -0.24854997703E+02  0.71042921963E+02  0.00000000000E+00 0.  1.
         21    1    1    2  506  502 -0.36972180751E+02 -0.74312175754E+02 -0.66882619054E+03  0.67395676031E+03  0.00000000000E+00 0. -1.
<scales pt_clust_3="47.38078" pt_clust_4="14000.00000" pt_clust_5="86.35565" pt_clust_6="47.21498"></scales>
<clustering>
<clus scale="   47.381">  2  3  1 -1</clus>
<clus scale="   47.215">  2  6  1 -1</clus>
<clus scale="   86.356">  2  5  1 -1</clus>
<clus scale="   86.356">  1  3  2 -1</clus>
</clustering>
</event>
<event>
 6    0  0.1463946E+003  0.8844160E+02  0.7546771E-02  0.1306670E+00
         21   -1    0    0  505  501  0.00000000000E+00  0.00000000000E+00  0.19850683848E+03  0.19850683848E+03  0.00000000000E+00 0.  1.
         21   -1    0    0  504  502 -0.00000000000E+00 -0.00000000000E+00 -0.16913459384E+04  0.16913459384E+04  0.00000000000E+00 0.  1.
         21    1    1    2  503  501  0.77636873435E+02  0.41944923130E+02  0.17528508388E+03  0.19624403513E+03  0.00000000000E+00 0.  1.
         21    1    1    2  504  506 -0.49943067490E+02  0.23590348544E+02 -0.84789242893E+02  0.10119303457E+03  0.00000000000E+00 0.  1.
         21    1    1    2  505  502  0.58835973918E+02  0.33328990796E+01 -0.50637248174E+03  0.50979002570E+03  0.00000000000E+00 0.  1.
         21    1    1    2  506  503 -0.86529779863E+02 -0.68868170754E+02 -0.10769624592E+04  0.10826256815E+04  0.00000000000E+00 0.  1.
<scales pt_clust_3="14000.00000" pt_clust_4="55.23418" pt_clust_5="44.30468" pt_clust_6="88.44160"></scales>
<clustering>
<clus scale="   55.234">  2  4  1 -1</clus>
<clus scale="   44.305">  2  5  1 -1</clus>
<clus scale="   88.442">  2  6  1 -1</clus>
<clus scale="   88.442">  1  3  2 -1</clus>
</clustering>
</event>
<event>
 6    0  0.1463946E+003  0.1082981E+03  0.7546771E-02  0.1263754E+00
         21   -1    0    0  504  501  0.00000000000E+00  0.00000000000E+00  0.27009305581E+03  0.27009305581E+03  0.00000000000E+00 0.  1.
         21   -1    0    0  506  502 -0.00000000000E+00 -0.00000000000E+00 -0.34704051002E+03  0.34704051002E+03  0.00000000000E+00 0. -1.
         21    1    1    2  503  501  0.41857448421E+02 -0.12894720122E+02 -0.53028625689E+02  0.68777575835E+02  0.00000000000E+00 0. -1.
         21    1    1    2  504  505 -0.84887272655E+02 -0.12819652665E+02  0.21814124015E+03  0.23442651985E+03  0.00000000000E+00 0.  1.
         21    1    1    2  505  502 -0.50260925404E+02 -0.20589575296E+02 -0.18977014536E+03  0.19738996758E+03  0.00000000000E+00 0. -1.
         21    1    1    2  506  503  0.93290749638E+02  0.46303948084E+02 -0.52289923320E+02  0.11653950256E+03  0.00000000000E+00 0. -1.
<scales pt_clust_3="40.33777" pt_clust_4="88.65254" pt_clust_5="54.31474" pt_clust_6="40.33777"></scales>
<clustering>
<clus scale="   40.338">  3  6 -1 -1</clus>
<clus scale="   54.315">  2  5  1 -1</clus>
<clus scale="   88.653">  1  4  2 -1</clus>
<clus scale="   88.653">  1  3  2 -1</clus>
</clustering>
</event>
<event>
 6    0  0.1463946E+003  0.8306065E+02  0.7546771E-02  0.1320583E+00
         21   -1    0    0  504  501  0.00000000000E+00  0.00000000000E+00  0.14600460965E+04  0.14600460965E+04  0.00000000000E+00 0.  1.
         21   -1    0    0  505  502 -0.00000000000E+00 -0.00000000000E+00 -0.62395538631E+02  0.62395538631E+02  0.00000000000E+00 0.  1.
         21    1    1    2  503  501  0.33758104790E+02  0.24302122544E+02  0.11149709501E+04  0.11157465762E+04  0.00000000000E+00 0.  1.
         21    1    1    2  504  506  0.56179507684E+02 -0.61081722146E+02  0.17114666397E+03  0.19020592644E+03  0.00000000000E+00 0.  1.
         21    1    1    2  505  503 -0.14909246774E+02  0.87283693862E+02  0.83737004578E+02  0.12187130421E+03  0.00000000000E+00 0.  1.
         21    1    1    2  506  502 -0.75028365699E+02 -0.50504094260E+02  0.27795939292E+02  0.94617828329E+02  0.00000000000E+00 0.  1.
<scales pt_clust_3="41.59571" pt_clust_4="81.48761" pt_clust_5="14000.00000" pt_clust_6="83.06065"></scales>
<clustering>
<clus scale="   41.596">  1  3  2 -1</clus>
<clus scale="   83.061">  2  6  1 -1</clus>
<clus scale="   81.488">  1  4  2 -1</clus>
<clus scale="   41.596">  1  3  2 -1</clus>
</clustering>
</event>
<event>
 6    0  0.1463946E+003  0.1179260E+03  0.7546771E-02  0.1246558E+00
         21   -1    0    0  504  501  0.00000000000E+00  0.00000000000E+00  0.16802349665E+03  0.16802349665E+03  0.00000000000E+00 0. -1.
         21   -1    0    0  505  502 -0.00000000000E+00 -0.00000000000E+00 -0.94495210806E+03  0.94495210806E+03  0.00000000000E+00 0. -1.
         21    1    1    2  503  502 -0.27368247623E+02 -0.94590684606E+02 -0.54793957952E+03  0.55671734426E+03  0.00000000000E+00 0. -1.
         21    1    1    2  504  503 -0.68707587727E+02  0.12041041343E+03  0.62385963252E+02  0.15202436872E+03  0.00000000000E+00 0. -1.
         21    1    1    2  505  506  0.10556498409E+02  0.30845711042E+02 -0.29955058258E+03  0.30131951326E+03  0.00000000000E+00 0. -1.
         21    1    1    2  506  501  0.85519336942E+02 -0.56665439867E+02  0.81755874325E+01  0.10291437847E+03  0.00000000000E+00 0. -1.
<scales pt_clust_3="70.57663" pt_clust_4="117.92601" pt_clust_5="32.60211" pt_clust_6="14000.00000"></scales>
<clustering>
<clus scale="   32.602">  2  5  1 -1</clus>
<clus scale="   70.577">  2  3  1 -1</clus>
<clus scale="  117.926">  1  4  2 -1</clus>
<clus scale="  117.926">  1  3  2 -1</clus>
</clustering>
</event>
<event>
 6    0  0.1463946E+003  0.1140264E+03  0.7546771E-02  0.1253290E+00
         21   -1    0    0  505  501  0.00000000000E+00  0.00000000000E+00  0.14871037013E+04  0.14871037013E+04  0.00000000000E+00 0. -1.
         21   -1    0    0  506  502 -0.00000000000E+00 -0.00000000000E+00 -0.10648658346E+03  0.10648658346E+03  0.00000000000E+00 0. -1.
         21    1    1    2  503  501 -0.34253671422E+02  0.21375678368E+02  0.82702240986E+03  0.82800742753E+03  0.00000000000E+00 0. -1.
         21    1    1    2  504  502  0.29563505421E+02  0.20341139871E+02 -0.68177074524E+02  0.77044638455E+02  0.00000000000E+00 0. -1.
         21    1    1    2  505  504  0.83117639189E+02 -0.72111490833E+02  0.70054689276E+02  0.13044642020E+03  0.00000000000E+00 0. -1.
         21    1    1    2  506  503 -0.78427473187E+02  0.30394672594E+02  0.55171709321E+03  0.55809179855E+03  0.00000000000E+00 0. -1.
<scales pt_clust_3="40.17093" pt_clust_4="35.88541" pt_clust_5="114.02636" pt_clust_6="14000.00000"></scales>
<clustering>
<clus scale="   35.885">  2  4  1 -1</clus>
<clus scale="   40.171">  1  3  2 -1</clus>
<clus scale="  114.026">  2  5  1 -1</clus>
<clus scale="   40.171">  1  3  2 -1</clus>
</clustering>
</event>
<event>
 6    0  0.1463946E+003  0.1025511E+03  0.7546771E-02  0.1275021E+00
         21   -1    0    0  506  501  0.00000000000E+00  0.00000000000E+00  0.54201183111E+03  0.54201183111E+03  0.00000000000E+00 0. -1.
         21   -1    0    0  503  502 -0.00000000000E+00 -0.00000000000E+00 -0.23344006567E+03  0.23344006567E+03  0.00000000000E+00 0. -1.
         21    1    1    2  503  505  0.52961816332E+02 -0.61785294195E+02 -0.59803332727E+02  0.10098918345E+03  0.00000000000E+00 0. -1.
         21    1    1    2  504  502  0.34637425206E+02 -0.62895451574E+01 -0.13890842694E+03  0.14329989769E+03  0.00000000000E+00 0. -1.
         21    1    1    2  505  501 -0.45958490778E+02 -0.12951567985E+02  0.31251744034E+03  0.31614407555E+03  0.00000000000E+00 0. -1.
         21    1    1    2  506  504 -0.41640750760E+02  0.81026407337E+02  0.19476608478E+03  0.21501874009E+03  0.00000000000E+00 0.  1.
<scales pt_clust_3="102.55109" pt_clust_4="35.20383" pt_clust_5="47.12833" pt_clust_6="14000.00000"></scales>
<clustering>
<clus scale="   35.204">  2  4  1 -1</clus>
<clus scale="   47.128">  1  5  2 -1</clus>
<clus scale="  102.551">  2  3  1 -1</clus>
<clus scale="   47.128">  1  3  2 -1</clus>
</clustering>
</event>
<event>
 6    0  0.1463946E+003  0.1246862E+03  0.7546771E-02  0.1235561E+00
         21   -1    0    0  505  501  0.00000000000E+00  0.00000000000E+00  0.28174153557E+03  0.28174153557E+03  0.00000000000E+00 0.  1.
         21   -1    0    0  506  502 -0.00000000000E+00 -0.00000000000E+00 -0.54473429032E+03  0.54473429032E+03  0.00000000000E+00 0.  1.
         21    1    1    2  503  502  0.47788389607E+01  0.38184802638E+02 -0.16862754014E+03  0.17296289703E+03  0.00000000000E+00 0.  1.
         21    1    1    2  504  503  0.97930159921E+02  0.33018450806E+02 -0.30793051352E+03  0.32481030691E+03  0.00000000000E+00 0.  1.
         21    1    1    2  505  504 -0.15920496187E+03 -0.48766325211E+02  0.86023133787E+02  0.18741492444E+03  0.00000000000E+00 0.  1.
         21    1    1    2  506  501  0.56495962987E+02 -0.22436928233E+02  0.12754216513E+03  0.14128769751E+03  0.00000000000E+00 0.  1.
<scales pt_clust_3="38.48268" pt_clust_4="124.68615" pt_clust_5="14000.00000" pt_clust_6="60.61469"></scales>
<clustering>
<clus scale="   38.483">  2  3  1 -1</clus>
<clus scale="   60.615">  1  6  2 -1</clus>
<clus scale="  124.686">  2  4  1 -1</clus>
<clus scale="   60.615">  1  3  2 -1</clus>
</clustering>
</event>
<event>
 6    0  0.1463946E+003  0.8843752E+02  0.7546771E-02  0.1306680E+00
         21   -1    0    0  505  501  0.00000000000E+00  0.00000000000E+00  0.55608199239E+03  0.55608199239E+03  0.00000000000E+00 0. -1.
         21   -1    0    0  503  502 -0.00000000000E+00 -0.00000000000E+00 -0.35035563214E+03  0.35035563214E+03  0.00000000000E+00 0.  1.
         21    1    1    2  503  501  0.29746388990E+02 -0.15646613714E+03  0.10732655943E+03  0.19205595561E+03  0.00000000000E+00 0.  1.
         21    1    1    2  504  502 -0.20592026578E+02  0.22169965174E+02 -0.26148773242E+03  0.26323254570E+03  0.00000000000E+00 0.  1.
         21    1    1    2  505  506 -0.13456865495E+02  0.80191461501E+02  0.38345224462E+03  0.39197880253E+03  0.00000000000E+00 0. -1.
         21    1    1    2  506  504  0.43025030834E+01  0.54104710462E+02 -0.23564711378E+02  0.59170320679E+02  0.00000000000E+00 0.  1.
<scales pt_clust_3="14000.00000" pt_clust_4="30.25787" pt_clust_5="88.43752" pt_clust_6="64.75075"></scales>
<clustering>
<clus scale="   30.258">  2  4  1 -1</clus>
<clus scale="   64.751">  2  6  1 -1</clus>
<clus scale="   88.438">  1  5  2 -1</clus>
<clus scale="   88.438">  1  3  2 -1</clus>
</clustering>
</event>
<event>
 6    0  0.1463946E+003  0.1108883E+03  0.7546771E-02  0.1258934E+00
         21   -1    0    0  503  501  0.00000000000E+00  0.00000000000E+00  0.56650584991E+03  0.56650584991E+03  0.00000000000E+00 0. -1.
         21   -1    0    0  504  502 -0.00000000000E+00 -0.00000000000E+00 -0.12144590119E+03  0.12144590119E+03  0.00000000000E+00 0. -1.
         21    1    1    2  503  502  0.38652166662E+02  0.82188794100E+01  0.58723758183E+02  0.70781492932E+02  0.00000000000E+00 0.  1.
         21    1    1    2  504  505  0.81326249648E+02 -0.92634901839E+02 -0.56149948957E+02  0.13545479205E+03  0.00000000000E+00 0. -1.
         21    1    1    2  505  506 -0.53874164650E+02  0.59138622047E+02  0.82801267674E+02  0.11513406170E+03  0.00000000000E+00 0.  1.
         21    1    1    2  506  501 -0.66104251660E+02  0.25277400382E+02  0.35968487182E+03  0.36658140443E+03  0.00000000000E+00 0. -1.
<scales pt_clust_3="39.51633" pt_clust_4="14000.00000" pt_clust_5="110.88826" pt_clust_6="49.28470"></scales>
<clustering>
<clus scale="   39.516">  1  3  2 -1</clus>
<clus scale="   49.285">  1  6  2 -1</clus>
<clus scale="  110.888">  1  5  2 -1</clus>
<clus scale="   39.516">  1  3  2 -1</clus>
</clustering>
</event>
<event>
 6    0  0.1463946E+003  0.1296970E+03  0.7546771E-02  0.1227906E+00
         21   -1    0    0  502  501  0.00000000000E+00  0.00000000000E+00  0.17116257147E+02  0.17116257147E+02  0.00000000000E+00 0. -1.
         21   -1    0    0  503  502 -0.00000000000E+00 -0.00000000000E+00 -0.23187425999E+04  0.23187425999E+04  0.00000000000E+00 0. -1.
         21    1    1    2  503  504  0.39409020300E+02 -0.13261616698E+02 -0.68493252044E+03  0.68619348504E+03  0.00000000000E+00 0. -1.
         21    1    1    2  504  506 -0.19731450772E+02  0.28717421077E+02 -0.16549423450E+03  0.16912232873E+03  0.00000000000E+00 0. -1.
         21    1    1    2  505  501  0.25298609971E+02 -0.11100787110E+03 -0.24994130187E+03  0.27465145456E+03  0.00000000000E+00 0. -1.
         21    1    1    2  506  505 -0.44976179499E+02  0.95552066722E+02 -0.12012582859E+04  0.12058915887E+04  0.00000000000E+00 0. -1.
<scales pt_clust_3="41.58054" pt_clust_4="31.56980" pt_clust_5="117.47542" pt_clust_6="31.56980"></scales>
<clustering>
<clus scale="   31.570">  4  6 -1 -1</clus>
<clus scale="   41.581">  2  3  1 -1</clus>
<clus scale="  117.475">  1  5  2 -1</clus>
<clus scale="  117.475">  1  3  2 -1</clus>
</clustering>
</event>
<event>
 6    0  0.1463946E+003  0.1367413E+03  0.7546771E-02  0.1217782E+00
         21   -1    0    0  503  501  0.00000000000E+00  0.00000000000E+00  0.73538554202E+03  0.73538554202E+03  0.00000000000E+00 0.  1.
         21   -1    0    0  504  502 -0.00000000000E+00 -0.00000000000E+00 -0.76732829066E+03  0.76732829066E+03  0.00000000000E+00 0. -1.
         21    1    1    2  503  502 -0.69252575958E+02  0.90275120345E+02 -0.75133080381E+02  0.13634697062E+03  0.00000000000E+00 0.  1.
         21    1    1    2  504  506 -0.38349064039E+02 -0.41289006112E+01 -0.64361437296E+03  0.64476907464E+03  0.00000000000E+00 0. -1.
         21    1    1    2  505  501 -0.43824782159E+02 -0.65256409594E+01  0.22029720917E+03  0.22470882468E+03  0.00000000000E+00 0.  1.
         21    1    1    2  506  505  0.15142642216E+03 -0.79620578774E+02  0.46650749553E+03  0.49688896273E+03  0.00000000000E+00 0.  1.
<scales pt_clust_3="136.74127" pt_clust_4="38.57070" pt_clust_5="44.99834" pt_clust_6="14000.00000"></scales>
<clustering>
<clus scale="   38.571">  2  4  1 -1</clus>
<clus scale="   44.998">  1  5  2 -1</clus>
<clus scale="  136.741">  2  3  1 -1</clus>
<clus scale="   44.998">  1  3  2 -1</clus>
</clustering>
</event>
<event>
 6    0  0.1463946E+003  0.1328644E+03  0.7546771E-02  0.1223266E+00
         21   -1    0    0  503  501  0.00000000000E+00  0.00000000000E+00  0.64708415154E+03  0.64708415154E+03  0.00000000000E+00 0.  1.
         21   -1    0    0  505  502 -0.00000000000E+00 -0.00000000000E+00 -0.43194855435E+03  0.43194855435E+03  0.00000000000E+00 0.  1.
         21    1    1    2  503  504 -0.53195606131E+02  0.11864010049E+02  0.37820983978E+03  0.38211674937E+03  0.00000000000E+00 0.  1.
         21    1    1    2  504  502  0.16932071252E+03 -0.35640065019E+02  0.10259022624E+02  0.17333483628E+03  0.00000000000E+00 0.  1.
         21    1    1    2  505  506 -0.53790946761E+02  0.12541671932E+03 -0.31209722790E+03  0.34062809500E+03  0.00000000000E+00 0.  1.
         21    1    1    2  506  501 -0.62334159625E+02 -0.10164066435E+03  0.13876396269E+03  0.18295302525E+03  0.00000000000E+00 0.  1.
<scales pt_clust_3="54.50254" pt_clust_4="14000.00000" pt_clust_5="132.86444" pt_clust_6="133.56054"></scales>
<clustering>
<clus scale="   54.503">  1  3  2 -1</clus>
<clus scale="  133.561">  1  6  2 -1</clus>
<clus scale="  132.864">  2  5  1 -1</clus>
<clus scale="   54.503">  1  3  2 -1</clus>
</clustering>
</event>
<event>
 6    0  0.1463946E+003  0.1429961E+03  0.7546771E-02  0.1209353E+00
         21   -1    0    0  505  501  0.00000000000E+00  0.00000000000E+00  0.34810204652E+03  0.34810204652E+03  0.00000000000E+00 0.  1.
         21   -1    0    0  503  502 -0.00000000000E+00 -0.00000000000E+00 -0.18406645598E+03  0.18406645598E+03  0.00000000000E+00 0. -1.
         21    1    1    2  503  501  0.18870067432E+02 -0.11965790279E+03 -0.84368121042E+02  0.14762138393E+03  0.00000000000E+00 0. -1.
         21    1    1    2  504  506 -0.48280038927E+01  0.30276365371E+02  0.25768268933E+02  0.40049614299E+02  0.00000000000E+00 0. -1.
         21    1    1    2  505  504 -0.49084128508E+02  0.91769781612E+02  0.26778362081E+03  0.28729603559E+03  0.00000000000E+00 0.  1.
         21    1    1    2  506  502  0.35042064969E+02 -0.23882441926E+01 -0.45148178161E+02  0.57201468677E+02  0.00000000000E+00 0. -1.
<scales pt_clust_3="131.40468" pt_clust_4="30.61060" pt_clust_5="30.61060" pt_clust_6="35.12335"></scales>
<clustering>
<clus scale="   30.611">  4  5 -1 -1</clus>
<clus scale="   35.123">  2  6  1 -1</clus>
<clus scale="  131.405">  2  3  1 -1</clus>
<clus scale="  142.996">  1  3  2 -1</clus>
</clustering>
</event>
<event>
 6    0  0.1463946E+003  0.1703588E+03  0.7546771E-02  0.1177474E+00
         21   -1    0    0  503  501  0.00000000000E+00  0.00000000000E+00  0.17021580437E+03  0.17021580437E+03  0.00000000000E+00 0.  1.
         21   -1    0    0  506  502 -0.00000000000E+00 -0.00000000000E+00 -0.14992388834E+04  0.14992388834E+04  0.00000000000E+00 0.  1.
         21    1    1    2  503  505  0.65502344555E+02 -0.11504346329E+03 -0.16377576723E+03  0.21058978493E+03  0.00000000000E+00 0.  1.
         21    1    1    2  504  501 -0.39058015154E+02  0.10718823865E+03  0.89786191597E+02  0.14517715817E+03  0.00000000000E+00 0.  1.
         21    1    1    2  505  502 -0.28748701696E+01 -0.42528873947E+02 -0.12572950015E+04  0.12580173651E+04  0.00000000000E+00 0.  1.
         21    1    1    2  506  504 -0.23569459231E+02  0.50384098580E+02  0.22614980500E+01  0.55670379662E+02  0.00000000000E+00 0.  1.
<scales pt_clust_3="160.95469" pt_clust_4="38.97641" pt_clust_5="42.62593" pt_clust_6="38.97641"></scales>
<clustering>
<clus scale="   38.976">  4  6 -1 -1</clus>
<clus scale="   42.626">  2  5  1 -1</clus>
<clus scale="  160.955">  2  3  1 -1</clus>
<clus scale="  170.359">  1  3  2 -1</clus>
</clustering>
</event>
<event>
 6    0  0.1463946E+003  0.1695465E+03  0.7546771E-02  0.1178322E+00
         21   -1    0    0  506  501  0.00000000000E+00  0.00000000000E+00  0.98517390835E+03  0.98517390835E+03  0.00000000000E+00 0. -1.
         21   -1    0    0  504  502 -0.00000000000E+00 -0.00000000000E+00 -0.15917123897E+03  0.15917123897E+03  0.00000000000E+00 0. -1.
         21    1    1    2  503  502  0.42724450415E+02 -0.19089057970E+02 -0.62685187362E+02  0.78225338044E+02  0.00000000000E+00 0. -1.
         21    1    1    2  504  505  0.51291872581E+02 -0.48502425092E+02  0.31474165577E+03  0.32256108152E+03  0.00000000000E+00 0. -1.
         21    1    1    2  505  501 -0.12508214574E+01 -0.95016590066E+02  0.54608245207E+03  0.55428851820E+03  0.00000000000E+00 0. -1.
         21    1    1    2  506  503 -0.92765501538E+02  0.16260807313E+03  0.27863748893E+02  0.18927020955E+03  0.00000000000E+00 0. -1.
<scales pt_clust_3="46.79499" pt_clust_4="59.91158" pt_clust_5="59.91158" pt_clust_6="154.92179"></scales>
<clustering>
<clus scale="   46.795">  2  3  1 -1</clus>
<clus scale="   59.912">  4  5 -1 -1</clus>
<clus scale="  154.922">  2  6  1 -1</clus>
<clus scale="  169.547">  1  3  2 -1</clus>
</clustering>
</event>
<event>
 6    0  0.1463946E+003  0.6858388E+02  0.7546771E-02  0.1364976E+00
         21   -1    0    0  503  501  0.00000000000E+00  0.00000000000E+00  0.22989313696E+03  0.22989313696E+03  0.00000000000E+00 0.  1.
         21   -1    0    0  504  502 -0.00000000000E+00 -0.00000000000E+00 -0.91600559664E+02  0.91600559664E+02  0.00000000000E+00 0.  1.
         21    1    1    2  503  505  0.59767621812E+02 -0.82672420799E+02  0.33843505438E+02  0.10748153627E+03  0.00000000000E+00 0.  1.
         21    1    1    2  504  506  0.33664314618E+02  0.36241763924E+02  0.13429698603E+02  0.51255324948E+02  0.00000000000E+00 0.  1.
         21    1    1    2  505  502 -0.45788956410E+02  0.79575761317E+01 -0.71814326438E+01  0.47026848946E+02  0.00000000000E+00 0.  1.
         21    1    1    2  506  501 -0.47642980020E+02  0.38473080743E+02  0.98200805895E+02  0.11572998646E+03  0.00000000000E+00 0.  1.
<scales pt_clust_3="14000.00000" pt_clust_4="43.56139" pt_clust_5="46.47528" pt_clust_6="68.58388"></scales>
<clustering>
<clus scale="   46.475">  2  5  1 -1</clus>
<clus scale="   43.561">  2  4  1 -1</clus>
<clus scale="   68.584">  1  6  2 -1</clus>
<clus scale="   68.584">  1  3  2 -1</clus>
</clustering>
</event>
<event>
 6    0  0.1463946E+003  0.1762739E+03  0.7546771E-02  0.1171459E+00
         21   -1    0    0  505  501  0.00000000000E+00  0.00000000000E+00  0.47549810956E+03  0.47549810956E+03  0.00000000000E+00 0.  1.
         21   -1    0    0  503  502 -0.00000000000E+00 -0.00000000000E+00 -0.18108157029E+03  0.18108157029E+03  0.00000000000E+00 0.  1.
         21    1    1    2  503  501 -0.18552110098E+03  0.57305363373E+02  0.34247911386E+03  0.39369268092E+03  0.00000000000E+00 0.  1.
         21    1    1    2  504  506  0.72496587671E+02 -0.27558186749E+02  0.12570127592E+02  0.78569822378E+02  0.00000000000E+00 0.  1.
         21    1    1    2  505  504  0.53409186009E+02  0.90894443900E+01  0.35460670544E+02  0.64750430925E+02  0.00000000000E+00 0.  1.
         21    1    1    2  506  502  0.59615327297E+02 -0.38836621014E+02 -0.96093372722E+02  0.11956674563E+03  0.00000000000E+00 0.  1.
<scales pt_clust_3="170.38815" pt_clust_4="37.75293" pt_clust_5="37.75293" pt_clust_6="71.14963"></scales>
<clustering>
<clus scale="   37.753">  4  5 -1 -1</clus>
<clus scale="   71.150">  2  6  1 -1</clus>
<clus scale="  170.388">  1  3  2 -1</clus>
<clus scale="  170.388">  1  3  2 -1</clus>
</clustering>
</event>
<event>
 6    0  0.1463946E+003  0.1429449E+03  0.7546771E-02  0.1209420E+00
         21   -1    0    0  503  501  0.00000000000E+00  0.00000000000E+00  0.15629810954E+04  0.15629810954E+04  0.00000000000E+00 0. -1.
         21   -1    0    0  504  502 -0.00000000000E+00 -0.00000000000E+00 -0.24000180866E+03  0.24000180866E+03  0.00000000000E+00 0.  1.
         21    1    1    2  503  502  0.71040243802E+02 -0.46495241468E+02 -0.19919590834E+03  0.21653529416E+03  0.00000000000E+00 0.  1.
         21    1    1    2  504  505  0.72518832172E+02  0.39573465697E+02  0.47405289981E+02  0.95248631093E+02  0.00000000000E+00 0. -1.
         21    1    1    2  505  506 -0.15903249362E+03  0.39647092100E+02  0.86725943010E+03  0.88261098171E+03  0.00000000000E+00 0. -1.
         21    1    1    2  506  501  0.15473417646E+02 -0.32725316329E+02  0.60751047498E+03  0.60858799709E+03  0.00000000000E+00 0.  1.
<scales pt_clust_3="142.94492" pt_clust_4="82.50161" pt_clust_5="14000.00000" pt_clust_6="36.19907"></scales>
<clustering>
<clus scale="   36.199">  1  6  2 -1</clus>
<clus scale="   82.502">  2  4  1 -1</clus>
<clus scale="  142.945">  2  3  1 -1</clus>
<clus scale="   36.199">  1  3  2 -1</clus>
</clustering>
</event>
<event>
 6    0  0.1463946E+003  0.9441953E+02  0.7546771E-02  0.1292489E+00
         21   -1    0    0  503  501  0.00000000000E+00  0.00000000000E+00  0.25651056306E+03  0.25651056306E+03  0.00000000000E+00 0. -1.
         21   -1    0    0  504  502 -0.00000000000E+00 -0.00000000000E+00 -0.23284402963E+04  0.23284402963E+04  0.00000000000E+00 0.  1.
         21    1    1    2  503  505  0.93297611975E+02  0.97657551437E+02  0.17838935916E+03  0.22375031892E+03  0.00000000000E+00 0. -1.
         21    1    1    2  504  501 -0.40418173855E+02  0.12381362746E+02 -0.43149769192E+02  0.60405541985E+02  0.00000000000E+00 0. -1.
         21    1    1    2  505  506 -0.64663852085E+02 -0.34744721970E+02  0.16975890609E+02  0.75344477789E+02  0.00000000000E+00 0. -1.
         21    1    1    2  506  502  0.11784413966E+02 -0.75294192213E+02 -0.22241452138E+04  0.22254505207E+04  0.00000000000E+00 0.  1.
<scales pt_clust_3="94.41953" pt_clust_4="42.27206" pt_clust_5="14000.00000" pt_clust_6="76.16222"></scales>
<clustering>
<clus scale="   42.272">  1  4  2 -1</clus>
<clus scale="   76.162">  2  6  1 -1</clus>
<clus scale="   94.420">  1  3  2 -1</clus>
<clus scale="   42.272">  1  3  2 -1</clus>
</clustering>
</event>
<event>
 6    0  0.1463946E+003  0.1188086E+03  0.7546771E-02  0.1245075E+00
         21   -1    0    0  506  501  0.00000000000E+00  0.00000000000E+00  0.93247564782E+03  0.93247564782E+03  0.00000000000E+00 0. -1.
         21   -1    0    0  505  502 -0.00000000000E+00 -0.00000000000E+00 -0.30284696345E+03  0.30284696345E+03  0.00000000000E+00 0. -1.
         21    1    1    2  503  504 -0.82746005549E+01 -0.56341072004E+02 -0.29402817157E+02  0.64088306778E+02  0.00000000000E+00 0. -1.
         21    1    1    2  504  502  0.26034641826E+02 -0.93220207357E+02 -0.17502065607E+03  0.20000009921E+03  0.00000000000E+00 0. -1.
         21    1    1    2  505  501 -0.21354103463E+02  0.56152783316E+02 -0.52490440802E+02  0.79777059262E+02  0.00000000000E+00 0. -1.
         21    1    1    2  506  503  0.35940621926E+01  0.93408496045E+02  0.88654259840E+03  0.89145714602E+03  0.00000000000E+00 0. -1.
<scales pt_clust_3="55.68195" pt_clust_4="55.68195" pt_clust_5="60.07606" pt_clust_6="94.05189"></scales>
<clustering>
<clus scale="   55.682">  3  4 -1 -1</clus>
<clus scale="   60.076">  2  5  1 -1</clus>
<clus scale="   94.052">  1  6  2 -1</clus>
<clus scale="   94.052">  1  3  2 -1</clus>
</clustering>
</event>
<event>
 6    0  0.1463946E+003  0.1577166E+03  0.7546771E-02  0.1191299E+00
         21   -1    0    0  506  501  0.00000000000E+00  0.00000000000E+00  0.16569962376E+03  0.16569962376E+03  0.00000000000E+00 0.  1.
         21   -1    0    0  504  502 -0.00000000000E+00 -0.00000000000E+00 -0.14237606793E+04  0.14237606793E+04  0.00000000000E+00 0. -1.
         21    1    1    2  503  505  0.12764589392E+01 -0.81206647348E+02 -0.50002571985E+03  0.50657859157E+03  0.00000000000E+00 0. -1.
         21    1    1    2  504  501 -0.49311949622E+02 -0.57707993906E+01  0.10889032995E+03  0.11967486978E+03  0.00000000000E+00 0.  1.
         21    1    1    2  505  502  0.32561860387E+02 -0.61941770479E+02 -0.79326711872E+03  0.79634777536E+03  0.00000000000E+00 0. -1.
         21    1    1    2  506  503  0.15473630296E+02  0.14891921722E+03 -0.73658546922E+02  0.16685906636E+03  0.00000000000E+00 0. -1.
<scales pt_clust_3="53.59418" pt_clust_4="49.64847" pt_clust_5="53.59418" pt_clust_6="146.62971"></scales>
<clustering>
<clus scale="   49.648">  1  4  2 -1</clus>
<clus scale="   53.594">  3  5 -1 -1</clus>
<clus scale="  146.630">  1  6  2 -1</clus>
<clus scale="   49.648">  1  3  2 -1</clus>
</clustering>
</event>
<event>
 6    0  0.1463946E+003  0.1769322E+03  0.7546771E-02  0.1170805E+00
         21   -1    0    0  502  501  0.00000000000E+00  0.00000000000E+00  0.45684055042E+03  0.45684055042E+03  0.00000000000E+00 0.  1.
         21   -1    0    0  503  502 -0.00000000000E+00 -0.00000000000E+00 -0.15153473497E+03  0.15153473497E+03  0.00000000000E+00 0. -1.
         21    1    1    2  503  504 -0.26880457177E+02  0.21269021730E+02 -0.31698258781E+02  0.46687363099E+02  0.00000000000E+00 0. -1.
         21    1    1    2  504  505 -0.76362220891E+02 -0.69678414401E+02  0.64737865807E+01  0.10357692854E+03  0.00000000000E+00 0. -1.
         21    1    1    2  505  506 -0.55876919333E+02 -0.21715772238E+02 -0.22937782382E+02  0.64186811252E+02  0.00000000000E+00 0. -1.
         21    1    1    2  506  501  0.15911959740E+03  0.70125164908E+02  0.35346807003E+03  0.39392418250E+03  0.00000000000E+00 0.  1.
<scales pt_clust_3="34.27726" pt_clust_4="35.89682" pt_clust_5="35.89682" pt_clust_6="171.08915"></scales>
<clustering>
<clus scale="   34.277">  2  3  1 -1</clus>
<clus scale="   35.897">  4  5 -1 -1</clus>
<clus scale="  171.089">  1  6  2 -1</clus>
<clus scale="  171.089">  1  3  2 -1</clus>
</clustering>
</event>
<event>
 6    0  0.1463946E+003  0.1000757E+03  0.7546771E-02  0.1280137E+00
         21   -1    0    0  505  501  0.00000000000E+00  0.00000000000E+00  0.16066352254E+04  0.16066352254E+04  0.00000000000E+00 0. -1.
         21   -1    0    0  503  502 -0.00000000000E+00 -0.00000000000E+00 -0.61003747425E+02  0.61003747425E+02  0.00000000000E+00 0.  1.
         21    1    1    2  503  501 -0.11453540800E+03  0.10654466182E+03  0.66623481718E+03  0.68435294715E+03  0.00000000000E+00 0. -1.
         21    1    1    2  504  506  0.58303446206E+02 -0.26729984574E+02  0.97497635083E+02  0.11670292525E+03  0.00000000000E+00 0.  1.
         21    1    1    2  505  504  0.20406559061E+02 -0.50461959992E+02  0.81038400069E+03  0.81220998863E+03  0.00000000000E+00 0. -1.
         21    1    1    2  506  502  0.35825402731E+02 -0.29352717254E+02 -0.28484974954E+02  0.54373111821E+02  0.00000000000E+00 0.  1.
<scales pt_clust_3="14000.00000" pt_clust_4="100.07569" pt_clust_5="56.33712" pt_clust_6="46.31459"></scales>
<clustering>
<clus scale="   46.315">  2  6  1 -1</clus>
<clus scale="   56.337">  1  5  2 -1</clus>
<clus scale="  100.076">  2  4  1 -1</clus>
<clus scale="   56.337">  1  3  2 -1</clus>
</clustering>
</event>
<event>
 6    0  0.1463946E+003  0.1263810E+03  0.7546771E-02  0.1232927E+00
         21   -1    0    0  505  501  0.00000000000E+00  0.00000000000E+00  0.16795220554E+03  0.16795220554E+03  0.00000000000E+00 0. -1.
         21   -1    0    0  506  502 -0.00000000000E+00 -0.00000000000E+00 -0.52694169411E+03  0.52694169411E+03  0.00000000000E+00 0. -1.
         21    1    1    2  503  502 -0.26925174209E+02  0.66147632830E+02 -0.86960537697E+02  0.11252826068E+03  0.00000000000E+00 0. -1.
         21    1    1    2  504  501 -0.10383099203E+03 -0.10110868595E+03  0.89256612606E+02  0.17020747391E+03  0.00000000000E+00 0. -1.
         21    1    1    2  505  503  0.85205907775E+02  0.33373001289E+02 -0.64651367233E+02  0.11204286332E+03  0.00000000000E+00 0. -1.
         21    1    1    2  506  504  0.45550258458E+02  0.15880518352E+01 -0.29663419625E+03  0.30011530174E+03  0.00000000000E+00 0. -1.
<scales pt_clust_3="67.21115" pt_clust_4="14000.00000" pt_clust_5="126.38102" pt_clust_6="45.57793"></scales>
<clustering>
<clus scale="   45.578">  2  6  1 -1</clus>
<clus scale="   67.211">  2  3  1 -1</clus>
<clus scale="  126.381">  2  5  1 -1</clus>
<clus scale="  126.381">  1  3  2 -1</clus>
</clustering>
</event>
<event>
 6    0  0.1463946E+003  0.9742296E+02  0.7546771E-02  0.1285810E+00
         21   -1    0    0  504  501  0.00000000000E+00  0.00000000000E+00  0.97603839190E+03  0.97603839190E+03  0.00000000000E+00 0. -1.
         21   -1    0    0  506  502 -0.00000000000E+00 -0.00000000000E+00 -0.76985503657E+02  0.76985503657E+02  0.00000000000E+00 0.  1.
         21    1    1    2  503  501  0.47783393676E+02  0.61372539238E+02  0.68275404111E+03  0.68717022777E+03  0.00000000000E+00 0. -1.
         21    1    1    2  504  505 -0.18376961593E+02  0.29657434102E+02  0.11251266393E+03  0.11779802910E+03  0.00000000000E+00 0.  1.
         21    1    1    2  505  502 -0.19716967001E+02  0.64955574779E+02  0.20214228101E+02  0.70827964112E+02  0.00000000000E+00 0.  1.
         21    1    1    2  506  503 -0.96894650820E+01 -0.15598554812E+03  0.83571955102E+02  0.17722767457E+03  0.00000000000E+00 0.  1.
<scales pt_clust_3="97.42296" pt_clust_4="34.88948" pt_clust_5="69.66660" pt_clust_6="14000.00000"></scales>
<clustering>
<clus scale="   34.889">  1  4  2 -1</clus>
<clus scale="   69.667">  2  5  1 -1</clus>
<clus scale="   97.423">  1  3  2 -1</clus>
<clus scale="   34.889">  1  3  2 -1</clus>
</clustering>
</event>
<event>
 6    0  0.1463946E+003  0.7606648E+02  0.7546771E-02  0.1340600E+00
         21   -1    0    0  506  501  0.00000000000E+00  0.00000000000E+00  0.34322320505E+03  0.34322320505E+03  0.00000000000E+00 0. -1.
         21   -1    0    0  503  502 -0.00000000000E+00 -0.00000000000E+00 -0.36433475234E+03  0.36433475234E+03  0.00000000000E+00 0.  1.
         21    1    1    2  503  501  0.59068245264E+02  0.58226457428E+02 -0.16262741894E+03  0.18255699201E+03  0.00000000000E+00 0.  1.
         21    1    1    2  504  505 -0.64773746426E+02 -0.18650877665E+02  0.42535727438E+02  0.79704338479E+02  0.00000000000E+00 0. -1.
         21    1    1    2  505  502 -0.19415548093E+02 -0.72877131755E+02 -0.16321835893E+03  0.17980064664E+03  0.00000000000E+00 0.  1.
         21    1    1    2  506  504  0.25121049255E+02  0.33301551992E+02  0.26219850314E+03  0.26549598025E+03  0.00000000000E+00 0. -1.
<scales pt_clust_3="76.06648" pt_clust_4="45.96520" pt_clust_5="14000.00000" pt_clust_6="41.71403"></scales>
<clustering>
<clus scale="   41.714">  1  6  2 -1</clus>
<clus scale="   45.965">  1  4  2 -1</clus>
<clus scale="   76.066">  1  3  2 -1</clus>
<clus scale="   41.714">  1  3  2 -1</clus>
</clustering>
</event>
<event>
 6    0  0.1463946E+003  0.1240941E+03  0.7546771E-02  0.1236492E+00
         21   -1    0    0  504  501  0.00000000000E+00  0.00000000000E+00  0.54712571072E+03  0.54712571072E+03  0.00000000000E+00 0. -1.
         21   -1    0    0  505  502 -0.00000000000E+00 -0.00000000000E+00 -0.56298021512E+02  0.56298021512E+02  0.00000000000E+00 0. -1.
         21    1    1    2  503  506 -0.34356996962E+02  0.45937957780E+02  0.11163306554E+03  0.12550952365E+03  0.00000000000E+00 0. -1.
         21    1    1    2  504  503  0.24640224534E+02  0.19820087311E+02  0.25990838906E+03  0.26182503171E+03  0.00000000000E+00 0. -1.
         21    1    1    2  505  501  0.68876678103E+02 -0.90789663464E+02  0.60551022349E+02  0.12904722425E+03  0.00000000000E+00 0. -1.
         21    1    1    2  506  502 -0.59159905674E+02  0.25031618372E+02  0.58735212264E+02  0.87041952629E+02  0.00000000000E+00 0. -1.
<scales pt_clust_3="48.06484" pt_clust_4="31.62241" pt_clust_5="114.14314" pt_clust_6="48.06484"></scales>
<clustering>
<clus scale="   31.622">  1  4  2 -1</clus>
<clus scale="   48.065">  3  6 -1 -1</clus>
<clus scale="  114.143">  2  5  1 -1</clus>
<clus scale="   31.622">  1  3  2 -1</clus>
</clustering>
</event>
<event>
 6    0  0.1463946E+003  0.1643915E+03  0.7546771E-02  0.1183826E+00
         21   -1    0    0  506  501  0.00000000000E+00  0.00000000000E+00  0.13308365060E+04  0.13308365060E+04  0.00000000000E+00 0.  1.
         21   -1    0    0  503  502 -0.00000000000E+00 -0.00000000000E+00 -0.66843309464E+02  0.66843309464E+02  0.00000000000E+00 0.  1.
         21    1    1    2  503  501 -0.58262978842E+02 -0.16786587788E+03  0.25694985689E+03  0.31240479608E+03  0.00000000000E+00 0.  1.
         21    1    1    2  504  502  0.66630574296E+02 -0.50645825756E+02  0.88746825832E+02  0.12198619673E+03  0.00000000000E+00 0.  1.
         21    1    1    2  505  504  0.90724732318E+02  0.10801651739E+03  0.49604002059E+03  0.51570752090E+03  0.00000000000E+00 0.  1.
         21    1    1    2  506  505 -0.99092327772E+02  0.11049518625E+03  0.42225649328E+03  0.44758130180E+03  0.00000000000E+00 0.  1.
<scales pt_clust_3="164.39147" pt_clust_4="83.69369" pt_clust_5="14000.00000" pt_clust_6="127.76009"></scales>
<clustering>
<clus scale="   83.694">  2  4  1 -1</clus>
<clus scale="  127.760">  1  6  2 -1</clus>
<clus scale="  164.391">  2  3  1 -1</clus>
<clus scale="  127.760">  1  3  2 -1</clus>
</clustering>
</event>
<event>
 6    0  0.1463946E+003  0.8627188E+02  0.7546771E-02  0.1312140E+00
         21   -1    0    0  502  501  0.00000000000E+00  0.00000000000E+00  0.45441275994E+03  0.45441275994E+03  0.00000000000E+00 0. -1.
         21   -1    0    0  506  502 -0.00000000000E+00 -0.00000000000E+00 -0.51575258576E+02  0.51575258576E+02  0.00000000000E+00 0. -1.
         21    1    1    2  503  504 -0.47250543780E+02 -0.27558234813E+01  0.41168652606E+02  0.62730107667E+02  0.00000000000E+00 0. -1.
         21    1    1    2  504  505 -0.35656124311E+02 -0.16634139087E+01  0.95775737459E+02  0.10221114437E+03  0.00000000000E+00 0.  1.
         21    1    1    2  505  501  0.34737266532E+02  0.76642209064E+02  0.23381707452E+03  0.24849774694E+03  0.00000000000E+00 0. -1.
         21    1    1    2  506  503  0.48169401558E+02 -0.72222971674E+02  0.32076036782E+02  0.92549019549E+02  0.00000000000E+00 0. -1.
<scales pt_clust_3="34.28680" pt_clust_4="34.28680" pt_clust_5="84.14693" pt_clust_6="76.70745"></scales>
<clustering>
<clus scale="   34.287">  3  4 -1 -1</clus>
<clus scale="   84.147">  1  5  2 -1</clus>
<clus scale="   76.707">  2  6  1 -1</clus>
<clus scale="   84.147">  1  3  2 -1</clus>
</clustering>
</event>
<event>
 6    0  0.1463946E+003  0.8323945E+02  0.7546771E-02  0.1320102E+00
         21   -1    0    0  503  501  0.00000000000E+00  0.00000000000E+00  0.35897269606E+03  0.35897269606E+03  0.00000000000E+00 0.  1.
         21   -1    0    0  505  502 -0.00000000000E+00 -0.00000000000E+00 -0.17678776113E+03  0.17678776113E+03  0.00000000000E+00 0. -1.
         21    1    1    2  503  506  0.20417797297E+02 -0.22222933600E+02  0.52511550725E+02  0.60565734404E+02  0.00000000000E+00 0. -1.
         21    1    1    2  504  502  0.30912863769E+02 -0.59865275521E+02 -0.55478880322E+02  0.87277502951E+02  0.00000000000E+00 0. -1.
         21    1    1    2  505  501  0.34682492748E+02 -0.86389261078E+01  0.24620605845E+03  0.24878691598E+03  0.00000000000E+00 0.  1.
         21    1    1    2  506  504 -0.86013153814E+02  0.90727135229E+02 -0.61053793927E+02  0.13913030385E+03  0.00000000000E+00 0. -1.
<scales pt_clust_3="30.17856" pt_clust_4="83.23945" pt_clust_5="57.97116" pt_clust_6="14000.00000"></scales>
<clustering>
<clus scale="   30.179">  1  3  2 -1</clus>
<clus scale="   57.971">  1  5  2 -1</clus>
<clus scale="   83.239">  2  4  1 -1</clus>
<clus scale="   30.179">  1  3  2 -1</clus>
</clustering>
</event>
<event>
 6    0  0.1463946E+003  0.1142854E+03  0.7546771E-02  0.1252834E+00
         21   -1    0    0  505  501  0.00000000000E+00  0.00000000000E+00  0.33702703553E+03  0.33702703553E+03  0.00000000000E+00 0.  1.
         21   -1    0    0  503  502 -0.00000000000E+00 -0.00000000000E+00 -0.38885922449E+03  0.38885922449E+03  0.00000000000E+00 0.  1.
         21    1    1    2  503  501  0.23295148729E+02  0.34809863652E+02  0.27811135747E+03  0.28124778704E+03  0.00000000000E+00 0.  1.
         21    1    1    2  504  506 -0.10528504392E+03  0.18966061035E+02 -0.25655828680E+03  0.27796907466E+03  0.00000000000E+00 0.  1.
         21    1    1    2  505  504  0.10144450838E+03 -0.28823723330E+02 -0.24223816142E+02  0.10820623168E+03  0.00000000000E+00 0.  1.
         21    1    1    2  506  502 -0.19454613188E+02 -0.24952201357E+02 -0.49161443486E+02  0.58463166630E+02  0.00000000000E+00 0.  1.
<scales pt_clust_3="41.73774" pt_clust_4="114.28542" pt_clust_5="14000.00000" pt_clust_6="31.64007"></scales>
<clustering>
<clus scale="   31.640">  2  6  1 -1</clus>
<clus scale="   41.738">  1  3  2 -1</clus>
<clus scale="  114.285">  2  4  1 -1</clus>
<clus scale="   41.738">  1  3  2 -1</clus>
</clustering>
</event>
<event>
 6    0  0.1463946E+003  0.8880071E+02  0.7546771E-02  0.1305782E+00
         21   -1    0    0  505  501  0.00000000000E+00  0.00000000000E+00  0.34137504781E+03  0.34137504781E+03  0.00000000000E+00 0. -1.
         21   -1    0    0  503  502 -0.00000000000E+00 -0.00000000000E+00 -0.14762243464E+03  0.14762243464E+03  0.00000000000E+00 0.  1.
         21    1    1    2  503  506 -0.36268793877E+02 -0.43197686959E+02 -0.19459350598E+02  0.59666840822E+02  0.00000000000E+00 0.  1.
         21    1    1    2  504  501 -0.35260518164E+02  0.10191043580E+03  0.22120275194E+03  0.24608880213E+03  0.00000000000E+00 0. -1.
         21    1    1    2  505  502 -0.13737514605E+02 -0.28364430887E+02  0.61519819491E+02  0.69122705657E+02  0.00000000000E+00 0. -1.
         21    1    1    2  506  504  0.85266826647E+02 -0.30348317956E+02 -0.69510607672E+02  0.11411913384E+03  0.00000000000E+00 0.  1.
<scales pt_clust_3="58.63246" pt_clust_4="88.80071" pt_clust_5="31.51603" pt_clust_6="14000.00000"></scales>
<clustering>
<clus scale="   31.516">  1  5  2 -1</clus>
<clus scale="   58.632">  2  3  1 -1</clus>
<clus scale="   88.801">  1  4  2 -1</clus>
<clus scale="   31.516">  1  3  2 -1</clus>
</clustering>
</event>
<event>
 6    0  0.1463946E+003  0.8819223E+02  0.7546771E-02  0.1307289E+00
         21   -1    0    0  502  501  0.00000000000E+00  0.00000000000E+00  0.36760799145E+03  0.36760799145E+03  0.00000000000E+00 0. -1.
         21   -1    0    0  506  502 -0.00000000000E+00 -0.00000000000E+00 -0.10459397753E+03  0.10459397753E+03  0.00000000000E+00 0. -1.
         21    1    1    2  503  504 -0.75663346322E+02  0.15980825931E+02  0.21638108188E+01  0.77362851883E+02  0.00000000000E+00 0. -1.
         21    1    1    2  504  505 -0.63358314178E+00  0.89261773297E+02  0.12151156255E+03  0.15077508227E+03  0.00000000000E+00 0. -1.
         21    1    1    2  505  501  0.39532728245E+02 -0.82184688853E+02  0.16862699730E+03  0.19170869543E+03  0.00000000000E+00 0. -1.
         21    1    1    2  506  503  0.36764201220E+02 -0.23057910375E+02 -0.29288356747E+02  0.52355339395E+02  0.00000000000E+00 0. -1.
<scales pt_clust_3="54.04018" pt_clust_4="14000.00000" pt_clust_5="88.19223" pt_clust_6="43.39670"></scales>
<clustering>
<clus scale="   43.397">  2  6  1 -1</clus>
<clus scale="   54.040">  2  3  1 -1</clus>
<clus scale="   88.192">  1  5  2 -1</clus>
<clus scale="   88.192">  1  3  2 -1</clus>
</clustering>
</event>
<event>
 6    0  0.1463946E+003  0.1166451E+03  0.7546771E-02  0.1248737E+00
         21   -1    0    0  503  501  0.00000000000E+00  0.00000000000E+00  0.84959801994E+03  0.84959801994E+03  0.00000000000E+00 0.  1.
         21   -1    0    0  504  502 -0.00000000000E+00 -0.00000000000E+00 -0.24458937026E+03  0.24458937026E+03  0.00000000000E+00 0. -1.
         21    1    1    2  503  502  0.57445074334E+02 -0.13642422312E+03 -0.69194202456E+02  0.16339933559E+03  0.00000000000E+00 0. -1.
         21    1    1    2  504  505 -0.43983808944E+00  0.41205483235E+02 -0.27145282790E+02  0.49345229596E+02  0.00000000000E+00 0. -1.
         21    1    1    2  505  506  0.45680070034E+02  0.52809738963E+02 -0.71916893673E+02  0.10023760234E+03  0.00000000000E+00 0. -1.
         21    1    1    2  506  501 -0.10268530628E+03  0.42409000918E+02  0.77326502860E+03  0.78120522268E+03  0.00000000000E+00 0.  1.
<scales pt_clust_3="109.22410" pt_clust_4="31.45162" pt_clust_5="31.45162" pt_clust_6="111.09813"></scales>
<clustering>
<clus scale="   31.452">  4  5 -1 -1</clus>
<clus scale="  111.098">  1  6  2 -1</clus>
<clus scale="  109.224">  1  3  2 -1</clus>
<clus scale="  111.098">  1  3  2 -1</clus>
</clustering>
</event>
<event>
 6    0  0.1463946E+003  0.5363679E+03  0.7546771E-02  0.1004699E+00
         21   -1    0    0  504  501  0.00000000000E+00  0.00000000000E+00  0.72593059865E+03  0.72593059865E+03  0.00000000000E+00 0. -1.
         21   -1    0    0  505  502 -0.00000000000E+00 -0.00000000000E+00 -0.90692983691E+03  0.90692983691E+03  0.00000000000E+00 0. -1.
         21    1    1    2  503  502  0.57562187288E+02 -0.28221947018E+03 -0.36547512594E+03  0.46533138991E+03  0.00000000000E+00 0. -1.
         21    1    1    2  504  503 -0.15529381424E+03 -0.23417373220E+03 -0.25875216975E+03  0.38197668901E+03  0.00000000000E+00 0. -1.
         21    1    1    2  505  506 -0.88740907411E+01  0.48100681601E+02 -0.68226560446E+02  0.83948130457E+02  0.00000000000E+00 0. -1.
         21    1    1    2  506  501  0.10660571769E+03  0.46829252078E+03  0.51145461787E+03  0.70160422619E+03  0.00000000000E+00 0. -1.
<scales pt_clust_3="226.38161" pt_clust_4="226.38161" pt_clust_5="48.91242" pt_clust_6="485.42010"></scales>
<clustering>
<clus scale="   48.912">  2  5  1 -1</clus>
<clus scale="  226.382">  3  4 -1 -1</clus>
<clus scale="  485.420">  1  6  2 -1</clus>
<clus scale="  485.420">  1  3  2 -1</clus>
</clustering>
</event>
<event>
 6    0  0.1463946E+003  0.6397357E+02  0.7546771E-02  0.1381875E+00
         21   -1    0    0  503  501  0.00000000000E+00  0.00000000000E+00  0.51737108560E+03  0.51737108560E+03  0.00000000000E+00 0.  1.
         21   -1    0    0  504  502 -0.00000000000E+00 -0.00000000000E+00 -0.67801797878E+02  0.67801797878E+02  0.00000000000E+00 0.  1.
         21    1    1    2  503  505 -0.11960011460E+02 -0.62868843701E+02  0.32630076879E+03  0.33251725534E+03  0.00000000000E+00 0.  1.
         21    1    1    2  504  506  0.50289096772E+02  0.44569295305E+02 -0.74427446061E+01  0.67607764239E+02  0.00000000000E+00 0.  1.
         21    1    1    2  505  502 -0.58202938853E+01 -0.49688167415E+02  0.27002167802E+02  0.56849862515E+02  0.00000000000E+00 0.  1.
         21    1    1    2  506  501 -0.32508791427E+02  0.67987715811E+02  0.10370909573E+03  0.12819800138E+03  0.00000000000E+00 0.  1.
<scales pt_clust_3="63.97357" pt_clust_4="47.08776" pt_clust_5="50.02789" pt_clust_6="14000.00000"></scales>
<clustering>
<clus scale="   50.028">  2  5  1 -1</clus>
<clus scale="   47.088">  2  4  1 -1</clus>
<clus scale="   63.974">  1  3  2 -1</clus>
<clus scale="   63.974">  1  3  2 -1</clus>
</clustering>
</event>
<event>
 6    0  0.1463946E+003  0.9224057E+02  0.7546771E-02  0.1297515E+00
         21   -1    0    0  503  501  0.00000000000E+00  0.00000000000E+00  0.45292030663E+03  0.45292030663E+03  0.00000000000E+00 0.  1.
         21   -1    0    0  506  502 -0.00000000000E+00 -0.00000000000E+00 -0.37371179056E+03  0.37371179056E+03  0.00000000000E+00 0.  1.
         21    1    1    2  503  504 -0.64430203204E+02  0.10101284098E+03  0.31945025129E+03  0.34117929037E+03  0.00000000000E+00 0.  1.
         21    1    1    2  504  502  0.22467009121E+02 -0.85077984914E+02 -0.28096860317E+03  0.29442551857E+03  0.00000000000E+00 0.  1.
         21    1    1    2  505  501  0.72424544074E+02 -0.85972259461E+01  0.10012489527E+03  0.12387179474E+03  0.00000000000E+00 0.  1.
         21    1    1    2  506  505 -0.30461349990E+02 -0.73376301215E+01 -0.59398027319E+02  0.67155493509E+02  0.00000000000E+00 0. -1.
<scales pt_clust_3="14000.00000" pt_clust_4="92.24057" pt_clust_5="71.81036" pt_clust_6="31.33265"></scales>
<clustering>
<clus scale="   31.333">  2  6  1 -1</clus>
<clus scale="   71.810">  1  5  2 -1</clus>
<clus scale="   92.241">  2  4  1 -1</clus>
<clus scale="   71.810">  1  3  2 -1</clus>
</clustering>
</event>
<event>
 6    0  0.1463946E+003  0.1408296E+03  0.7546771E-02  0.1212217E+00
         21   -1    0    0  503  501  0.00000000000E+00  0.00000000000E+00  0.24180763100E+03  0.24180763100E+03  0.00000000000E+00 0.  1.
         21   -1    0    0  506  502 -0.00000000000E+00 -0.00000000000E+00 -0.74654406951E+03  0.74654406951E+03  0.00000000000E+00 0. -1.
         21    1    1    2  503  504 -0.85795976901E+02  0.10555867790E+03 -0.60938223024E+02  0.14905385321E+03  0.00000000000E+00 0.  1.
         21    1    1    2  504  502 -0.42588514378E+02 -0.39729116128E+02 -0.47140545982E+02  0.74929402112E+02  0.00000000000E+00 0.  1.
         21    1    1    2  505  501  0.10588033206E+03 -0.95283856965E+02  0.15555133512E+03  0.21091675129E+03  0.00000000000E+00 0.  1.
         21    1    1    2  506  505  0.22504159220E+02  0.29454295197E+02 -0.55220900463E+03  0.55345169390E+03  0.00000000000E+00 0. -1.
<scales pt_clust_3="140.82957" pt_clust_4="46.76781" pt_clust_5="14000.00000" pt_clust_6="37.06741"></scales>
<clustering>
<clus scale="   37.067">  2  6  1 -1</clus>
<clus scale="   46.768">  2  4  1 -1</clus>
<clus scale="  140.830">  2  3  1 -1</clus>
<clus scale="  140.830">  1  3  2 -1</clus>
</clustering>
</event>
<event>
 6    0  0.1463946E+003  0.1192514E+03  0.7546771E-02  0.1244337E+00
         21   -1    0    0  502  501  0.00000000000E+00  0.00000000000E+00  0.23237161095E+03  0.23237161095E+03  0.00000000000E+00 0.  1.
         21   -1    0    0  503  502 -0.00000000000E+00 -0.00000000000E+00 -0.41254226685E+03  0.41254226685E+03  0.00000000000E+00 0. -1.
         21    1    1    2  503  505  0.13949288877E+02 -0.52518526092E+02 -0.16150904605E+03  0.17040525285E+03  0.00000000000E+00 0. -1.
         21    1    1    2  504  506 -0.88811960609E+02  0.51738221726E+02  0.10165339439E+03  0.14456078488E+03  0.00000000000E+00 0.  1.
         21    1    1    2  505  504  0.10520201009E+03  0.10049948660E+02 -0.20985017628E+03  0.23495863652E+03  0.00000000000E+00 0. -1.
         21    1    1    2  506  501 -0.30339338355E+02 -0.92696442942E+01  0.89535172036E+02  0.94989203537E+02  0.00000000000E+00 0.  1.
<scales pt_clust_3="54.38595" pt_clust_4="119.25136" pt_clust_5="14000.00000" pt_clust_6="31.72384"></scales>
<clustering>
<clus scale="   31.724">  1  6  2 -1</clus>
<clus scale="   54.386">  2  3  1 -1</clus>
<clus scale="  119.251">  1  4  2 -1</clus>
<clus scale="   31.724">  1  3  2 -1</clus>
</clustering>
</event>
<event>
 6    0  0.1463946E+003  0.1435642E+03  0.7546771E-02  0.1208612E+00
         21   -1    0    0  506  501  0.00000000000E+00  0.00000000000E+00  0.78727754658E+02  0.78727754658E+02  0.00000000000E+00 0. -1.
         21   -1    0    0  505  502 -0.00000000000E+00 -0.00000000000E+00 -0.13035274228E+04  0.13035274228E+04  0.00000000000E+00 0. -1.
         21    1    1    2  503  502 -0.46007210295E+00 -0.52742970747E+02 -0.61495011757E+03  0.61720797121E+03  0.00000000000E+00 0. -1.
         21    1    1    2  504  501  0.30581388791E+02  0.26443099945E+02  0.28183713095E+02  0.49282659820E+02  0.00000000000E+00 0. -1.
         21    1    1    2  505  504  0.16903459244E+01  0.10942139197E+03 -0.48756181076E+02  0.11980427155E+03  0.00000000000E+00 0. -1.
         21    1    1    2  506  503 -0.31811662613E+02 -0.83121521165E+02 -0.58927708258E+03  0.59596027486E+03  0.00000000000E+00 0. -1.
<scales pt_clust_3="35.39044" pt_clust_4="40.42844" pt_clust_5="136.00459" pt_clust_6="35.39044"></scales>
<clustering>
<clus scale="   35.390">  3  6 -1 -1</clus>
<clus scale="   40.428">  1  4  2 -1</clus>
<clus scale="  136.005">  1  5  2 -1</clus>
<clus scale="   40.428">  1  3  2 -1</clus>
</clustering>
</event>
<event>
 6    0  0.1463946E+003  0.8897007E+02  0.7546771E-02  0.1305365E+00
         21   -1    0    0  504  501  0.00000000000E+00  0.00000000000E+00  0.96541107368E+03  0.96541107368E+03  0.00000000000E+00 0. -1.
         21   -1    0    0  506  502 -0.00000000000E+00 -0.00000000000E+00 -0.35375828206E+03  0.35375828206E+03  0.00000000000E+00 0. -1.
         21    1    1    2  503  502 -0.92229385722E+02  0.28855650846E+02  0.63744074074E+02  0.11576793665E+03  0.00000000000E+00 0. -1.
         21    1    1    2  504  505  0.35486845667E+02  0.19705887069E+02  0.71836962135E+03  0.71951549745E+03  0.00000000000E+00 0. -1.
         21    1    1    2  505  503 -0.31173841632E+02 -0.63084583083E+02  0.14226310254E+03  0.15871440820E+03  0.00000000000E+00 0. -1.
         21    1    1    2  506  501  0.87916381688E+02  0.14523045167E+02 -0.31272400635E+03  0.32517151344E+03  0.00000000000E+00 0. -1.
<scales pt_clust_3="88.97007" pt_clust_4="40.59111" pt_clust_5="51.93008" pt_clust_6="14000.00000"></scales>
<clustering>
<clus scale="   40.591">  1  4  2 -1</clus>
<clus scale="   51.930">  1  5  2 -1</clus>
<clus scale="   88.970">  1  3  2 -1</clus>
<clus scale="   40.591">  1  3  2 -1</clus>
</clustering>
</event>
<event>
 6    0  0.1463946E+003  0.2558426E+03  0.7546771E-02  0.1109667E+00
         21   -1    0    0  505  501  0.00000000000E+00  0.00000000000E+00  0.33630823337E+04  0.33630823337E+04  0.00000000000E+00 0.  1.
         21   -1    0    0  506  502 -0.00000000000E+00 -0.00000000000E+00 -0.40251197100E+02  0.40251197100E+02  0.00000000000E+00 0.  1.
         21    1    1    2  503  502 -0.30363316160E+02  0.20436603779E+02  0.21533108965E+03  0.21841946780E+03  0.00000000000E+00 0.  1.
         21    1    1    2  504  501  0.23072476362E+03 -0.61897577412E+02  0.53123855539E+03  0.58247714923E+03  0.00000000000E+00 0.  1.
         21    1    1    2  505  503 -0.21201579538E+03  0.13723872969E+02  0.25588919873E+04  0.25676968755E+04  0.00000000000E+00 0.  1.
         21    1    1    2  506  504  0.11654347919E+02  0.27737100664E+02  0.17369504336E+02  0.34740038278E+02  0.00000000000E+00 0. -1.
<scales pt_clust_3="32.96692" pt_clust_4="243.39144" pt_clust_5="32.96692" pt_clust_6="30.08605"></scales>
<clustering>
<clus scale="   30.086">  2  6  1 -1</clus>
<clus scale="   32.967">  3  5 -1 -1</clus>
<clus scale="  243.391">  2  4  1 -1</clus>
<clus scale="  255.843">  1  3  2 -1</clus>
</clustering>
</event>
<event>
 6    0  0.1463946E+003  0.1083039E+03  0.7546771E-02  0.1263743E+00
         21   -1    0    0  504  501  0.00000000000E+00  0.00000000000E+00  0.20597529392E+03  0.20597529392E+03  0.00000000000E+00 0. -1.
         21   -1    0    0  503  502 -0.00000000000E+00 -0.00000000000E+00 -0.33274626566E+03  0.33274626566E+03  0.00000000000E+00 0. -1.
         21    1    1    2  503  505  0.26472300247E+02  0.14519969171E+02 -0.21772506692E+03  0.21980859162E+03  0.00000000000E+00 0. -1.
         21    1    1    2  504  506  0.33578009821E+02  0.89566588980E+00  0.87144871818E+02  0.93394398361E+02  0.00000000000E+00 0. -1.
         21    1    1    2  505  501 -0.25544519326E+02 -0.11564738210E+03  0.12843536821E+02  0.11912932423E+03  0.00000000000E+00 0. -1.
         21    1    1    2  506  502 -0.34505790742E+02  0.10023174704E+03 -0.90343134642E+01  0.10638924536E+03  0.00000000000E+00 0. -1.
<scales pt_clust_3="30.19292" pt_clust_4="34.32814" pt_clust_5="108.30393" pt_clust_6="14000.00000"></scales>
<clustering>
<clus scale="   30.193">  2  3  1 -1</clus>
<clus scale="   34.328">  1  4  2 -1</clus>
<clus scale="  108.304">  1  5  2 -1</clus>
<clus scale="   34.328">  1  3  2 -1</clus>
</clustering>
</event>
<event>
 6    0  0.1463946E+003  0.1222202E+03  0.7546771E-02  0.1239479E+00
         21   -1    0    0  503  501  0.00000000000E+00  0.00000000000E+00  0.32112762963E+03  0.32112762963E+03  0.00000000000E+00 0.  1.
         21   -1    0    0  504  502 -0.00000000000E+00 -0.00000000000E+00 -0.18277188550E+03  0.18277188550E+03  0.00000000000E+00 0.  1.
         21    1    1    2  503  502 -0.54753177967E+02 -0.14223335679E+03  0.97759555046E+02  0.18106675256E+03  0.00000000000E+00 0.  1.
         21    1    1    2  504  505  0.47310236351E+01  0.43886224626E+02  0.14140625111E+01  0.44163139260E+02  0.00000000000E+00 0.  1.
         21    1    1    2  505  506  0.23866479975E+02  0.79839446975E+02 -0.10324770868E+03  0.13268020013E+03  0.00000000000E+00 0.  1.
         21    1    1    2  506  501  0.26155674357E+02  0.18507685187E+02  0.14242983525E+03  0.14598942318E+03  0.00000000000E+00 0.  1.
<scales pt_clust_3="122.22016" pt_clust_4="46.97383" pt_clust_5="14000.00000" pt_clust_6="32.04144"></scales>
<clustering>
<clus scale="   32.041">  1  6  2 -1</clus>
<clus scale="   46.974">  2  4  1 -1</clus>
<clus scale="  122.220">  1  3  2 -1</clus>
<clus scale="   32.041">  1  3  2 -1</clus>
</clustering>
</event>
<event>
 6    0  0.1463946E+003  0.8370494E+02  0.7546771E-02  0.1318854E+00
         21   -1    0    0  506  501  0.00000000000E+00  0.00000000000E+00  0.35520406933E+03  0.35520406933E+03  0.00000000000E+00 0.  1.
         21   -1    0    0  504  502 -0.00000000000E+00 -0.00000000000E+00 -0.48468100401E+03  0.48468100401E+03  0.00000000000E+00 0.  1.
         21    1    1    2  503  502  0.44689210687E+02 -0.10635677941E+02 -0.27833242276E+03  0.28209782125E+03  0.00000000000E+00 0.  1.
         21    1    1    2  504  501  0.26174732737E+02 -0.14897564531E+02  0.30706909993E+03  0.30854251927E+03  0.00000000000E+00 0.  1.
         21    1    1    2  505  503  0.43434255408E+02  0.41412483161E+02 -0.10766923295E+03  0.12326472337E+03  0.00000000000E+00 0.  1.
         21    1    1    2  506  505 -0.11429819883E+03 -0.15879240689E+02 -0.50544378915E+02  0.12598000945E+03  0.00000000000E+00 0.  1.
<scales pt_clust_3="47.08701" pt_clust_4="30.11734" pt_clust_5="83.70494" pt_clust_6="14000.00000"></scales>
<clustering>
<clus scale="   30.117">  1  4  2 -1</clus>
<clus scale="   47.087">  2  3  1 -1</clus>
<clus scale="   83.705">  2  5  1 -1</clus>
<clus scale="   30.117">  1  3  2 -1</clus>
</clustering>
</event>
<event>
 6    0  0.1463946E+003  0.9735079E+02  0.7546771E-02  0.1285968E+00
         21   -1    0    0  503  501  0.00000000000E+00  0.00000000000E+00  0.49211876518E+03  0.49211876518E+03  0.00000000000E+00 0.  1.
         21   -1    0    0  505  502 -0.00000000000E+00 -0.00000000000E+00 -0.10177733216E+03  0.10177733216E+03  0.00000000000E+00 0.  1.
         21    1    1    2  503  506 -0.20924300865E-01 -0.31719332589E+02  0.11218804940E+03  0.11658591221E+03  0.00000000000E+00 0.  1.
         21    1    1    2  504  501  0.32305829348E+02  0.41466175881E+02  0.25847097759E+03  0.26376193169E+03  0.00000000000E+00 0.  1.
         21    1    1    2  505  504  0.68304356624E+02  0.29212316559E+02  0.62901556820E+02  0.97341925309E+02  0.00000000000E+00 0. -1.
         21    1    1    2  506  502 -0.10058926167E+03 -0.38959159851E+02 -0.43219150802E+02  0.11620632812E+03  0.00000000000E+00 0.  1.
<scales pt_clust_3="31.71934" pt_clust_4="37.74282" pt_clust_5="14000.00000" pt_clust_6="97.35079"></scales>
<clustering>
<clus scale="   31.719">  1  3  2 -1</clus>
<clus scale="   37.743">  1  4  2 -1</clus>
<clus scale="   97.351">  2  6  1 -1</clus>
<clus scale="   31.719">  1  3  2 -1</clus>
</clustering>
</event>
<event>
 6    0  0.1463946E+003  0.1145293E+03  0.7546771E-02  0.1252405E+00
         21   -1    0    0  504  501  0.00000000000E+00  0.00000000000E+00  0.37994906035E+03  0.37994906035E+03  0.00000000000E+00 0. -1.
         21   -1    0    0  505  502 -0.00000000000E+00 -0.00000000000E+00 -0.22920929646E+03  0.22920929646E+03  0.00000000000E+00 0. -1.
         21    1    1    2  503  502 -0.11136957425E+03 -0.10688923702E+03 -0.80099935559E+02  0.17390943257E+03  0.00000000000E+00 0. -1.
         21    1    1    2  504  503  0.59524337339E+02  0.82020255790E+02  0.16096088613E+03  0.19020745506E+03  0.00000000000E+00 0. -1.
         21    1    1    2  505  506  0.72242915209E+02 -0.64863669152E+00 -0.70480558596E+02  0.10093051406E+03  0.00000000000E+00 0. -1.
         21    1    1    2  506  501 -0.20397678294E+02  0.25517617921E+02  0.14035937191E+03  0.14411095512E+03  0.00000000000E+00 0. -1.
<scales pt_clust_3="14000.00000" pt_clust_4="114.52927" pt_clust_5="70.94334" pt_clust_6="32.66824"></scales>
<clustering>
<clus scale="   32.668">  1  6  2 -1</clus>
<clus scale="   70.943">  2  5  1 -1</clus>
<clus scale="  114.529">  1  4  2 -1</clus>
<clus scale="   32.668">  1  3  2 -1</clus>
</clustering>
</event>
<event>
 6    0  0.1463946E+003  0.9981294E+02  0.7546771E-02  0.1280690E+00
         21   -1    0    0  505  501  0.00000000000E+00  0.00000000000E+00  0.64305292563E+03  0.64305292563E+03  0.00000000000E+00 0.  1.
         21   -1    0    0  503  502 -0.00000000000E+00 -0.00000000000E+00 -0.43988848746E+03  0.43988848746E+03  0.00000000000E+00 0. -1.
         21    1    1    2  503  506 -0.96161005574E+02 -0.12960038586E+03 -0.25914672974E+03  0.30528712148E+03  0.00000000000E+00 0. -1.
         21    1    1    2  504  502  0.11117070109E+01  0.96982164483E+02 -0.13125241668E+03  0.16319918200E+03  0.00000000000E+00 0. -1.
         21    1    1    2  505  504  0.26194377925E+02  0.27218047228E+02  0.34554361321E+02  0.51195423780E+02  0.00000000000E+00 0. -1.
         21    1    1    2  506  501  0.68854920638E+02  0.54001741465E+01  0.55900922327E+03  0.56325968582E+03  0.00000000000E+00 0.  1.
<scales pt_clust_3="99.81294" pt_clust_4="97.72330" pt_clust_5="37.77522" pt_clust_6="14000.00000"></scales>
<clustering>
<clus scale="   37.775">  1  5  2 -1</clus>
<clus scale="   97.723">  2  4  1 -1</clus>
<clus scale="   99.813">  2  3  1 -1</clus>
<clus scale="   37.775">  1  3  2 -1</clus>
</clustering>
</event>
<event>
 6    0  0.1463946E+003  0.7958121E+02  0.7546771E-02  0.1330244E+00
         21   -1    0    0  503  501  0.00000000000E+00  0.00000000000E+00  0.89709900464E+02  0.89709900464E+02  0.00000000000E+00 0. -1.
         21   -1    0    0  506  502 -0.00000000000E+00 -0.00000000000E+00 -0.15634215691E+04  0.15634215691E+04  0.00000000000E+00 0. -1.
         21    1    1    2  503  505 -0.29261437067E+02 -0.87166019042E+02 -0.38545899489E+03  0.39627362178E+03  0.00000000000E+00 0. -1.
         21    1    1    2  504  501 -0.20553403576E+01  0.35209039667E+02  0.68574755814E+02  0.77112891485E+02  0.00000000000E+00 0. -1.
         21    1    1    2  505  502 -0.57399232014E+02  0.45271942034E+02 -0.97068553620E+03  0.97343445119E+03  0.00000000000E+00 0. -1.
         21    1    1    2  506  504  0.88716009439E+02  0.66850373408E+01 -0.18614189332E+03  0.20631050507E+03  0.00000000000E+00 0. -1.
<scales pt_clust_3="79.58121" pt_clust_4="35.26898" pt_clust_5="75.04335" pt_clust_6="14000.00000"></scales>
<clustering>
<clus scale="   35.269">  1  4  2 -1</clus>
<clus scale="   75.043">  2  5  1 -1</clus>
<clus scale="   79.581">  2  3  1 -1</clus>
<clus scale="   35.269">  1  3  2 -1</clus>
</clustering>
</event>
<event>
 6    0  0.1463946E+003  0.7913321E+02  0.7546771E-02  0.1331529E+00
         21   -1    0    0  504  501  0.00000000000E+00  0.00000000000E+00  0.29699769831E+03  0.29699769831E+03  0.00000000000E+00 0. -1.
         21   -1    0    0  505  502 -0.00000000000E+00 -0.00000000000E+00 -0.26301052907E+03  0.26301052907E+03  0.00000000000E+00 0.  1.
         21    1    1    2  503  502  0.15070211635E+02  0.27697048205E+02 -0.11133825454E+03  0.11571708898E+03  0.00000000000E+00 0.  1.
         21    1    1    2  504  506 -0.71914111334E+02 -0.30521049446E+02  0.22382601278E+03  0.23706804480E+03  0.00000000000E+00 0. -1.
         21    1    1    2  505  501 -0.16599386046E+02 -0.69105361876E+02  0.97530408114E+01  0.71737106591E+02  0.00000000000E+00 0.  1.
         21    1    1    2  506  503  0.73443285745E+02  0.71929363117E+02 -0.88253629821E+02  0.13548598701E+03  0.00000000000E+00 0.  1.
<scales pt_clust_3="31.53154" pt_clust_4="14000.00000" pt_clust_5="64.77994" pt_clust_6="79.13321"></scales>
<clustering>
<clus scale="   31.532">  2  3  1 -1</clus>
<clus scale="   64.780">  2  5  1 -1</clus>
<clus scale="   79.133">  2  6  1 -1</clus>
<clus scale="   79.133">  1  3  2 -1</clus>
</clustering>
</event>
<event>
 6    0  0.1463946E+003  0.1545079E+03  0.7546771E-02  0.1195041E+00
         21   -1    0    0  503  501  0.00000000000E+00  0.00000000000E+00  0.37590028716E+03  0.37590028716E+03  0.00000000000E+00 0.  1.
         21   -1    0    0  504  502 -0.00000000000E+00 -0.00000000000E+00 -0.16983653822E+03  0.16983653822E+03  0.00000000000E+00 0.  1.
         21    1    1    2  503  502  0.16133409245E+02 -0.11216098346E+03  0.81713806633E+02  0.13970511551E+03  0.00000000000E+00 0.  1.
         21    1    1    2  504  505 -0.49650553226E+02  0.70102154179E+02 -0.33819347209E+02  0.92321382690E+02  0.00000000000E+00 0.  1.
         21    1    1    2  505  506  0.20069295514E+02  0.72311665507E+02 -0.58109071544E+02  0.94912685067E+02  0.00000000000E+00 0.  1.
         21    1    1    2  506  501  0.13447848467E+02 -0.30252836225E+02  0.21627836107E+03  0.21879764211E+03  0.00000000000E+00 0.  1.
<scales pt_clust_3="135.73390" pt_clust_4="70.12255" pt_clust_5="70.12255" pt_clust_6="33.10708"></scales>
<clustering>
<clus scale="   33.107">  1  6  2 -1</clus>
<clus scale="   70.123">  4  5 -1 -1</clus>
<clus scale="  135.734">  1  3  2 -1</clus>
<clus scale="   33.107">  1  3  2 -1</clus>
</clustering>
</event>
<event>
 6    0  0.1463946E+003  0.1127593E+03  0.7546771E-02  0.1255544E+00
         21   -1    0    0  505  501  0.00000000000E+00  0.00000000000E+00  0.25259121345E+03  0.25259121345E+03  0.00000000000E+00 0.  1.
         21   -1    0    0  506  502 -0.00000000000E+00 -0.00000000000E+00 -0.23517208499E+03  0.23517208499E+03  0.00000000000E+00 0.  1.
         21    1    1    2  503  502  0.12645096687E+02 -0.28440413451E+02 -0.28669583769E+02  0.42316670722E+02  0.00000000000E+00 0. -1.
         21    1    1    2  504  501 -0.34855635797E+02 -0.11701174122E+03  0.15818943067E+03  0.19982632186E+03  0.00000000000E+00 0.  1.
         21    1    1    2  505  503  0.43499528458E+02  0.10203320048E+02  0.25552798478E+02  0.51470984313E+02  0.00000000000E+00 0. -1.
         21    1    1    2  506  504 -0.21288989348E+02  0.13524883462E+03 -0.13765351692E+03  0.19414932154E+03  0.00000000000E+00 0.  1.
<scales pt_clust_3="31.12484" pt_clust_4="112.75926" pt_clust_5="45.10131" pt_clust_6="14000.00000"></scales>
<clustering>
<clus scale="   31.125">  2  3  1 -1</clus>
<clus scale="   45.101">  1  5  2 -1</clus>
<clus scale="  112.759">  1  4  2 -1</clus>
<clus scale="   45.101">  1  3  2 -1</clus>
</clustering>
</event>
<event>
 6    0  0.1463946E+003  0.9825392E+02  0.7546771E-02  0.1284011E+00
         21   -1    0    0  503  501  0.00000000000E+00  0.00000000000E+00  0.61071802351E+03  0.61071802351E+03  0.00000000000E+00 0.  1.
         21   -1    0    0  504  502 -0.00000000000E+00 -0.00000000000E+00 -0.22516154877E+03  0.22516154877E+03  0.00000000000E+00 0.  1.
         21    1    1    2  503  502  0.41551395462E+01 -0.36575118986E+02  0.44721177706E+01  0.37081051102E+02  0.00000000000E+00 0.  1.
         21    1    1    2  504  506  0.55754518312E+02 -0.39850743802E+02 -0.14786699464E+03  0.16297636699E+03  0.00000000000E+00 0.  1.
         21    1    1    2  505  501 -0.83688730804E+02 -0.52486075060E+02  0.48886087577E+03  0.49874196494E+03  0.00000000000E+00 0.  1.
         21    1    1    2  506  505  0.23779072945E+02  0.12891193785E+03  0.40090475844E+02  0.13708018924E+03  0.00000000000E+00 0.  1.
<scales pt_clust_3="36.81039" pt_clust_4="89.22482" pt_clust_5="98.25392" pt_clust_6="14000.00000"></scales>
<clustering>
<clus scale="   36.810">  2  3  1 -1</clus>
<clus scale="   89.225">  2  4  1 -1</clus>
<clus scale="   98.254">  1  5  2 -1</clus>
<clus scale="   98.254">  1  3  2 -1</clus>
</clustering>
</event>
<event>
 6    0  0.1463946E+003  0.9279656E+02  0.7546771E-02  0.1296217E+00
         21   -1    0    0  504  501  0.00000000000E+00  0.00000000000E+00  0.68292995230E+03  0.68292995230E+03  0.00000000000E+00 0. -1.
         21   -1    0    0  505  502 -0.00000000000E+00 -0.00000000000E+00 -0.60526984431E+02  0.60526984431E+02  0.00000000000E+00 0. -1.
         21    1    1    2  503  502  0.12419356867E+02  0.72886397428E+02  0.46495479284E+02  0.87341267158E+02  0.00000000000E+00 0. -1.
         21    1    1    2  504  503  0.69555432237E+02  0.79011869993E+02  0.26211850539E+03  0.28246582912E+03  0.00000000000E+00 0. -1.
         21    1    1    2  505  506 -0.60560056853E+02 -0.66432261882E+02  0.68503647636E+02  0.11301997896E+03  0.00000000000E+00 0. -1.
         21    1    1    2  506  501 -0.21414732251E+02 -0.85466005538E+02  0.24528533556E+03  0.26062986149E+03  0.00000000000E+00 0. -1.
<scales pt_clust_3="73.93691" pt_clust_4="14000.00000" pt_clust_5="59.62472" pt_clust_6="92.79656"></scales>
<clustering>
<clus scale="   73.937">  2  3  1 -1</clus>
<clus scale="   59.625">  2  5  1 -1</clus>
<clus scale="   92.797">  1  6  2 -1</clus>
<clus scale="   92.797">  1  3  2 -1</clus>
</clustering>
</event>
<event>
 6    0  0.1463946E+003  0.2303462E+03  0.7546771E-02  0.1126396E+00
         21   -1    0    0  505  501  0.00000000000E+00  0.00000000000E+00  0.70221239431E+03  0.70221239431E+03  0.00000000000E+00 0. -1.
         21   -1    0    0  504  502 -0.00000000000E+00 -0.00000000000E+00 -0.23312043234E+03  0.23312043234E+03  0.00000000000E+00 0. -1.
         21    1    1    2  503  501 -0.22137722982E+03  0.36172563763E+02  0.34108888917E+03  0.40823763002E+03  0.00000000000E+00 0. -1.
         21    1    1    2  504  503 -0.65422302630E+02  0.98121087104E+02 -0.21443603624E+02  0.11986514736E+03  0.00000000000E+00 0. -1.
         21    1    1    2  505  506  0.21359902453E+03 -0.14078058976E+03  0.19420594736E+03  0.32118478750E+03  0.00000000000E+00 0. -1.
         21    1    1    2  506  502  0.73200507919E+02  0.64869388933E+01 -0.44759270939E+02  0.86045261757E+02  0.00000000000E+00 0. -1.
<scales pt_clust_3="14000.00000" pt_clust_4="106.61911" pt_clust_5="230.34616" pt_clust_6="73.48738"></scales>
<clustering>
<clus scale="   73.487">  2  6  1 -1</clus>
<clus scale="  106.619">  2  4  1 -1</clus>
<clus scale="  230.346">  2  5  1 -1</clus>
<clus scale="  230.346">  1  3  2 -1</clus>
</clustering>
</event>
<event>
 6    0  0.1463946E+003  0.1668064E+03  0.7546771E-02  0.1181220E+00
         21   -1    0    0  505  501  0.00000000000E+00  0.00000000000E+00  0.59544874981E+03  0.59544874981E+03  0.00000000000E+00 0. -1.
         21   -1    0    0  503  502 -0.00000000000E+00 -0.00000000000E+00 -0.58867653221E+03  0.58867653221E+03  0.00000000000E+00 0. -1.
         21    1    1    2  503  504  0.57217963427E+02  0.43657280870E+02  0.19144769061E+03  0.20452890199E+03  0.00000000000E+00 0. -1.
         21    1    1    2  504  501  0.86160237220E+02 -0.41964066788E+00  0.38059605175E+03  0.39022700724E+03  0.00000000000E+00 0. -1.
         21    1    1    2  505  506 -0.73517917035E+02  0.15645406508E+02 -0.27211052686E+03  0.28230090630E+03  0.00000000000E+00 0. -1.
         21    1    1    2  506  502 -0.69860283612E+02 -0.58883046710E+02 -0.29316099790E+03  0.30706846648E+03  0.00000000000E+00 0. -1.
<scales pt_clust_3="58.33381" pt_clust_4="162.78989" pt_clust_5="66.63662" pt_clust_6="66.63662"></scales>
<clustering>
<clus scale="   58.334">  3  4 -1 -1</clus>
<clus scale="   66.637">  5  6 -1 -1</clus>
<clus scale="  162.790">  1  3  2 -1</clus>
<clus scale="  162.790">  1  3  2 -1</clus>
</clustering>
</event>
<event>
 6    0  0.1463946E+003  0.1487744E+03  0.7546771E-02  0.1201987E+00
         21   -1    0    0  506  501  0.00000000000E+00  0.00000000000E+00  0.99037171090E+03  0.99037171090E+03  0.00000000000E+00 0. -1.
         21   -1    0    0  505  502 -0.00000000000E+00 -0.00000000000E+00 -0.82302613879E+03  0.82302613879E+03  0.00000000000E+00 0.  1.
         21    1    1    2  503  502 -0.72315509832E+02  0.12802920215E+02 -0.34460947686E+03  0.35234803714E+03  0.00000000000E+00 0.  1.
         21    1    1    2  504  501 -0.13274247303E+02 -0.69385514384E+02  0.54610652923E+03  0.55065678649E+03  0.00000000000E+00 0. -1.
         21    1    1    2  505  504  0.15059379582E+03  0.91352725293E+02  0.41730676068E+03  0.45295556545E+03  0.00000000000E+00 0. -1.
         21    1    1    2  506  503 -0.65004038686E+02 -0.34770131125E+02 -0.45145824093E+03  0.45743746061E+03  0.00000000000E+00 0.  1.
<scales pt_clust_3="51.76244" pt_clust_4="70.64386" pt_clust_5="139.44281" pt_clust_6="51.76244"></scales>
<clustering>
<clus scale="   51.762">  3  6 -1 -1</clus>
<clus scale="   70.644">  1  4  2 -1</clus>
<clus scale="  139.443">  1  5  2 -1</clus>
<clus scale="   70.644">  1  3  2 -1</clus>
</clustering>
</event>
<event>
 6    0  0.1463946E+003  0.7534546E+02  0.7546771E-02  0.1342805E+00
         21   -1    0    0  505  501  0.00000000000E+00  0.00000000000E+00  0.11497678680E+03  0.11497678680E+03  0.00000000000E+00 0. -1.
         21   -1    0    0  503  502 -0.00000000000E+00 -0.00000000000E+00 -0.34182630710E+03  0.34182630710E+03  0.00000000000E+00 0.  1.
         21    1    1    2  503  504 -0.49617925562E+02  0.96814544061E+01 -0.65847950120E+02  0.83015791459E+02  0.00000000000E+00 0.  1.
         21    1    1    2  504  501  0.55588900520E+02  0.84066556379E+02 -0.14770131257E+03  0.17880992561E+03  0.00000000000E+00 0.  1.
         21    1    1    2  505  506 -0.27244500852E+02 -0.67875919873E+02  0.72430959668E+02  0.10293516039E+03  0.00000000000E+00 0. -1.
         21    1    1    2  506  502  0.21273525893E+02 -0.25872090912E+02 -0.85731217281E+02  0.92042216447E+02  0.00000000000E+00 0.  1.
<scales pt_clust_3="43.40712" pt_clust_4="75.34546" pt_clust_5="14000.00000" pt_clust_6="33.49519"></scales>
<clustering>
<clus scale="   33.495">  2  6  1 -1</clus>
<clus scale="   43.407">  2  3  1 -1</clus>
<clus scale="   75.345">  2  4  1 -1</clus>
<clus scale="   75.345">  1  3  2 -1</clus>
</clustering>
</event>
<event>
 6    0  0.1463946E+003  0.8637489E+02  0.7546771E-02  0.1311876E+00
         21   -1    0    0  504  501  0.00000000000E+00  0.00000000000E+00  0.14333059112E+03  0.14333059112E+03  0.00000000000E+00 0.  1.
         21   -1    0    0  506  502 -0.00000000000E+00 -0.00000000000E+00 -0.41474891409E+03  0.41474891409E+03  0.00000000000E+00 0.  1.
         21    1    1    2  503  501  0.37485018529E+02 -0.15151487426E+02 -0.10783680731E+03  0.11516714461E+03  0.00000000000E+00 0.  1.
         21    1    1    2  504  505 -0.81636079880E+02 -0.30302366843E+02  0.10574150842E+03  0.13698156656E+03  0.00000000000E+00 0.  1.
         21    1    1    2  505  502  0.51253315246E+02  0.84084435697E+02 -0.14287904412E+03  0.17352670083E+03  0.00000000000E+00 0.  1.
         21    1    1    2  506  503 -0.71022538953E+01 -0.38630581427E+02 -0.12644397996E+03  0.13240409321E+03  0.00000000000E+00 0. -1.
<scales pt_clust_3="46.04007" pt_clust_4="14000.00000" pt_clust_5="86.37489" pt_clust_6="39.27803"></scales>
<clustering>
<clus scale="   39.278">  2  6  1 -1</clus>
<clus scale="   46.040">  2  3  1 -1</clus>
<clus scale="   86.375">  2  5  1 -1</clus>
<clus scale="   86.375">  1  3  2 -1</clus>
</clustering>
</event>
<event>
 6    0  0.2746811E+003  0.1256091E+03  0.7546771E-02  0.1234120E+00
         21   -1    0    0  503  501  0.00000000000E+00  0.00000000000E+00  0.56219984924E+03  0.56219984924E+03  0.00000000000E+00 0. -1.
         21   -1    0    0  506  502 -0.00000000000E+00 -0.00000000000E+00 -0.27738432932E+03  0.27738432932E+03  0.00000000000E+00 0.  1.
         21    1    1    2  503  504  0.42219916410E+02 -0.23024918476E+02  0.35306900681E+03  0.35632904987E+03  0.00000000000E+00 0. -1.
         21    1    1    2  504  502  0.40687266123E+01 -0.84392738482E+02  0.18280239181E+03  0.20138372153E+03  0.00000000000E+00 0. -1.
         21    1    1    2  505  501 -0.39614419311E+02  0.69091083642E+02 -0.11168664533E+03  0.13717429351E+03  0.00000000000E+00 0.  1.
         21    1    1    2  506  505 -0.66742237116E+01  0.38326573316E+02 -0.13936923338E+03  0.14469711365E+03  0.00000000000E+00 0.  1.
<scales pt_clust_3="48.09021" pt_clust_4="114.17710" pt_clust_5="36.59281" pt_clust_6="36.59281"></scales>
<clustering>
<clus scale="   36.593">  5  6 -1 -1</clus>
<clus scale="   48.090">  1  3  2 -1</clus>
<clus scale="  114.177">  1  4  2 -1</clus>
<clus scale="   48.090">  1  3  2 -1</clus>
</clustering>
</event>
<event>
 6    0  0.1463946E+003  0.9403543E+02  0.7546771E-02  0.1293363E+00
         21   -1    0    0  504  501  0.00000000000E+00  0.00000000000E+00  0.13669002040E+03  0.13669002040E+03  0.00000000000E+00 0. -1.
         21   -1    0    0  506  502 -0.00000000000E+00 -0.00000000000E+00 -0.95590713444E+03  0.95590713444E+03  0.00000000000E+00 0. -1.
         21    1    1    2  503  502  0.46184258106E+02 -0.28729989245E+02 -0.63676585273E+03  0.63908461817E+03  0.00000000000E+00 0. -1.
         21    1    1    2  504  503  0.68053947503E+02  0.17810689688E+02  0.14717201827E+02  0.71869023003E+02  0.00000000000E+00 0. -1.
         21    1    1    2  505  501 -0.14024715258E+03 -0.58302613787E+01  0.37222615786E+02  0.14521976064E+03  0.00000000000E+00 0. -1.
         21    1    1    2  506  505  0.26008946975E+02  0.16749560936E+02 -0.23439107892E+03  0.23642375302E+03  0.00000000000E+00 0. -1.
<scales pt_clust_3="70.59438" pt_clust_4="94.03543" pt_clust_5="14000.00000" pt_clust_6="30.93563"></scales>
<clustering>
<clus scale="   30.936">  2  6  1 -1</clus>
<clus scale="   70.594">  2  3  1 -1</clus>
<clus scale="   94.035">  1  4  2 -1</clus>
<clus scale="   94.035">  1  3  2 -1</clus>
</clustering>
</event>
<event>
 6    0  0.1463946E+003  0.1291969E+03  0.7546771E-02  0.1228652E+00
         21   -1    0    0  506  501  0.00000000000E+00  0.00000000000E+00  0.14597225857E+04  0.14597225857E+04  0.00000000000E+00 0.  1.
         21   -1    0    0  505  502 -0.00000000000E+00 -0.00000000000E+00 -0.14648270917E+03  0.14648270917E+03  0.00000000000E+00 0.  1.
         21    1    1    2  503  504  0.92439824789E+02  0.61653447869E+02  0.23431113396E+03  0.25932214780E+03  0.00000000000E+00 0.  1.
         21    1    1    2  504  501  0.50654823444E+02  0.12641499164E+02  0.10714394105E+04  0.10727106455E+04  0.00000000000E+00 0.  1.
         21    1    1    2  505  503 -0.16155135849E+02 -0.33712506387E+02 -0.97561091997E+02  0.10447817080E+03  0.00000000000E+00 0.  1.
         21    1    1    2  506  502 -0.12693951238E+03 -0.40582440646E+02  0.10505042404E+03  0.16969433073E+03  0.00000000000E+00 0. -1.
<scales pt_clust_3="14000.00000" pt_clust_4="51.87671" pt_clust_5="37.38344" pt_clust_6="129.19694"></scales>
<clustering>
<clus scale="   37.383">  2  5  1 -1</clus>
<clus scale="   51.877">  1  4  2 -1</clus>
<clus scale="  129.197">  2  6  1 -1</clus>
<clus scale="   51.877">  1  3  2 -1</clus>
</clustering>
</event>
<event>
 6    0  0.1463946E+003  0.1610993E+03  0.7546771E-02  0.1187461E+00
         21   -1    0    0  504  501  0.00000000000E+00  0.00000000000E+00  0.51830367480E+02  0.51830367480E+02  0.00000000000E+00 0.  1.
         21   -1    0    0  505  502 -0.00000000000E+00 -0.00000000000E+00 -0.64383017453E+03  0.64383017453E+03  0.00000000000E+00 0.  1.
         21    1    1    2  503  506 -0.44812363605E+02 -0.35829661712E+02 -0.21265923625E+03  0.22026316840E+03  0.00000000000E+00 0.  1.
         21    1    1    2  504  502 -0.30095553412E+02  0.71900623317E+01 -0.11678072075E+02  0.33072899766E+02  0.00000000000E+00 0.  1.
         21    1    1    2  505  503 -0.66687345533E+02 -0.50527751804E+02 -0.12210192146E+03  0.14801734690E+03  0.00000000000E+00 0.  1.
         21    1    1    2  506  501  0.14159526255E+03  0.79167351185E+02 -0.24556057727E+03  0.29430712696E+03  0.00000000000E+00 0.  1.
<scales pt_clust_3="49.11444" pt_clust_4="30.94252" pt_clust_5="49.11444" pt_clust_6="149.25575"></scales>
<clustering>
<clus scale="   30.943">  1  4  2 -1</clus>
<clus scale="   49.114">  3  5 -1 -1</clus>
<clus scale="  149.256">  1  6  2 -1</clus>
<clus scale="   30.943">  1  3  2 -1</clus>
</clustering>
</event>
<event>
 6    0  0.1463946E+003  0.1548965E+03  0.7546771E-02  0.1194582E+00
         21   -1    0    0  503  501  0.00000000000E+00  0.00000000000E+00  0.32996203096E+03  0.32996203096E+03  0.00000000000E+00 0.  1.
         21   -1    0    0  506  502 -0.00000000000E+00 -0.00000000000E+00 -0.34530754628E+03  0.34530754628E+03  0.00000000000E+00 0. -1.
         21    1    1    2  503  505  0.14694507718E+03 -0.60004785156E+01  0.19931607226E+03  0.24770094492E+03  0.00000000000E+00 0.  1.
         21    1    1    2  504  501  0.13932632345E+02 -0.70160777035E+02 -0.35617764631E+02  0.79907934747E+02  0.00000000000E+00 0. -1.
         21    1    1    2  505  502 -0.19117095561E+03  0.78889448073E+02 -0.46898011702E+02  0.21205966799E+03  0.00000000000E+00 0. -1.
         21    1    1    2  506  504  0.30293246085E+02 -0.27281925226E+01 -0.13214581125E+03  0.13560102958E+03  0.00000000000E+00 0.  1.
<scales pt_clust_3="154.89649" pt_clust_4="74.30275" pt_clust_5="14000.00000" pt_clust_6="30.41585"></scales>
<clustering>
<clus scale="   30.416">  2  6  1 -1</clus>
<clus scale="   74.303">  2  4  1 -1</clus>
<clus scale="  154.896">  1  3  2 -1</clus>
<clus scale="  154.896">  1  3  2 -1</clus>
</clustering>
</event>
<event>
 6    0  0.1463946E+003  0.1523233E+03  0.7546771E-02  0.1197647E+00
         21   -1    0    0  506  501  0.00000000000E+00  0.00000000000E+00  0.30953743220E+03  0.30953743220E+03  0.00000000000E+00 0. -1.
         21   -1    0    0  504  502 -0.00000000000E+00 -0.00000000000E+00 -0.29968458815E+03  0.29968458815E+03  0.00000000000E+00 0.  1.
         21    1    1    2  503  505  0.26570039018E+02  0.69423669529E+02 -0.49978266526E+02  0.89573656782E+02  0.00000000000E+00 0.  1.
         21    1    1    2  504  501  0.51586752746E+01 -0.15072179098E+03  0.24462434131E+03  0.28737560538E+03  0.00000000000E+00 0. -1.
         21    1    1    2  505  502 -0.17682699138E+02  0.40239157593E+02 -0.18367773918E+03  0.18886338852E+03  0.00000000000E+00 0.  1.
         21    1    1    2  506  503 -0.14046015154E+02  0.41058963860E+02 -0.11154915530E+01  0.43409369684E+02  0.00000000000E+00 0.  1.
<scales pt_clust_3="39.77971" pt_clust_4="143.14939" pt_clust_5="43.95302" pt_clust_6="39.77971"></scales>
<clustering>
<clus scale="   39.780">  3  6 -1 -1</clus>
<clus scale="   43.953">  2  5  1 -1</clus>
<clus scale="  143.149">  1  4  2 -1</clus>
<clus scale="  143.149">  1  3  2 -1</clus>
</clustering>
</event>
<event>
 6    0  0.1463946E+003  0.1050426E+03  0.7546771E-02  0.1270036E+00
         21   -1    0    0  506  501  0.00000000000E+00  0.00000000000E+00  0.11542430398E+03  0.11542430398E+03  0.00000000000E+00 0.  1.
         21   -1    0    0  503  502 -0.00000000000E+00 -0.00000000000E+00 -0.10463485543E+04  0.10463485543E+04  0.00000000000E+00 0.  1.
         21    1    1    2  503  501  0.12627844849E+03  0.31765873804E+01  0.39187190819E+02  0.13225722356E+03  0.00000000000E+00 0.  1.
         21    1    1    2  504  505 -0.15186027605E+03  0.46913941798E+02 -0.71755183655E+03  0.73494428327E+03  0.00000000000E+00 0.  1.
         21    1    1    2  505  502  0.59516628663E+02 -0.16489071076E+02 -0.23612306991E+03  0.24406602119E+03  0.00000000000E+00 0. -1.
         21    1    1    2  506  504 -0.33934801107E+02 -0.33601458102E+02 -0.16436534686E+02  0.50505330265E+02  0.00000000000E+00 0.  1.
<scales pt_clust_3="105.04260" pt_clust_4="14000.00000" pt_clust_5="60.82364" pt_clust_6="47.75593"></scales>
<clustering>
<clus scale="   47.756">  1  6  2 -1</clus>
<clus scale="   60.824">  2  5  1 -1</clus>
<clus scale="  105.043">  1  3  2 -1</clus>
<clus scale="   47.756">  1  3  2 -1</clus>
</clustering>
</event>
<event>
 6    0  0.1463946E+003  0.5792103E+02  0.7546771E-02  0.1406769E+00
         21   -1    0    0  504  501  0.00000000000E+00  0.00000000000E+00  0.59836827087E+02  0.59836827087E+02  0.00000000000E+00 0. -1.
         21   -1    0    0  503  502 -0.00000000000E+00 -0.00000000000E+00 -0.18792250015E+04  0.18792250015E+04  0.00000000000E+00 0.  1.
         21    1    1    2  503  501 -0.46647915245E+02 -0.11074171715E+03 -0.15685786068E+03  0.19759591183E+03  0.00000000000E+00 0. -1.
         21    1    1    2  504  506 -0.94136578005E+01  0.39289486673E+02  0.24685113497E+02  0.47345913706E+02  0.00000000000E+00 0. -1.
         21    1    1    2  505  502  0.10133957093E+02  0.55442175216E+02 -0.14874973535E+04  0.14885647142E+04  0.00000000000E+00 0.  1.
         21    1    1    2  506  505  0.45927615953E+02  0.16010055260E+02 -0.19971807381E+03  0.20555528887E+03  0.00000000000E+00 0. -1.
<scales pt_clust_3="57.92103" pt_clust_4="40.40149" pt_clust_5="14000.00000" pt_clust_6="49.37981"></scales>
<clustering>
<clus scale="   40.401">  1  4  2 -1</clus>
<clus scale="   49.380">  1  6  2 -1</clus>
<clus scale="   57.921">  1  3  2 -1</clus>
<clus scale="   40.401">  1  3  2 -1</clus>
</clustering>
</event>
<event>
 6    0  0.1600030E+003  0.1425252E+03  0.7546771E-02  0.1209971E+00
         21   -1    0    0  505  501  0.00000000000E+00  0.00000000000E+00  0.11468575757E+04  0.11468575757E+04  0.00000000000E+00 0. -1.
         21   -1    0    0  503  502 -0.00000000000E+00 -0.00000000000E+00 -0.38208389909E+04  0.38208389909E+04  0.00000000000E+00 0. -1.
         21    1    1    2  503  501  0.89900185240E+01 -0.88278966717E+02 -0.32943405667E+04  0.32955354293E+04  0.00000000000E+00 0. -1.
         21    1    1    2  504  506  0.14029404897E+02  0.12180812292E+03  0.18202088875E+03  0.21946673314E+03  0.00000000000E+00 0. -1.
         21    1    1    2  505  504 -0.23517095371E+02  0.21073744880E+02  0.94378174108E+03  0.94430987038E+03  0.00000000000E+00 0. -1.
         21    1    1    2  506  502  0.49767195019E+00 -0.54602901079E+02 -0.50544347828E+03  0.50838453381E+03  0.00000000000E+00 0. -1.
<scales pt_clust_3="142.52516" pt_clust_4="14000.00000" pt_clust_5="31.57778" pt_clust_6="54.45108"></scales>
<clustering>
<clus scale="   31.578">  1  5  2 -1</clus>
<clus scale="   54.451">  2  6  1 -1</clus>
<clus scale="  142.525">  2  3  1 -1</clus>
<clus scale="   31.578">  1  3  2 -1</clus>
</clustering>
</event>
<event>
 6    0  0.1463946E+003  0.9557351E+02  0.7546771E-02  0.1289890E+00
         21   -1    0    0  503  501  0.00000000000E+00  0.00000000000E+00  0.10633402825E+03  0.10633402825E+03  0.00000000000E+00 0.  1.
         21   -1    0    0  504  502 -0.00000000000E+00 -0.00000000000E+00 -0.25144416088E+03  0.25144416088E+03  0.00000000000E+00 0.  1.
         21    1    1    2  503  505 -0.49050690524E+02 -0.37102400783E+02  0.23981909451E+02  0.66012804558E+02  0.00000000000E+00 0.  1.
         21    1    1    2  504  506  0.87375141832E+02  0.17973655774E+01 -0.15979422647E+03  0.18213138320E+03  0.00000000000E+00 0.  1.
         21    1    1    2  505  502 -0.47846640005E+02 -0.20679178294E+02 -0.86829298485E+01  0.52842432244E+02  0.00000000000E+00 0.  1.
         21    1    1    2  506  501  0.95221886973E+01  0.55984213499E+02 -0.61488576534E+00  0.56791569121E+02  0.00000000000E+00 0.  1.
<scales pt_clust_3="31.41819" pt_clust_4="89.27257" pt_clust_5="31.41819" pt_clust_6="56.78824"></scales>
<clustering>
<clus scale="   31.418">  3  5 -1 -1</clus>
<clus scale="   56.788">  1  6  2 -1</clus>
<clus scale="   89.273">  2  4  1 -1</clus>
<clus scale="   56.788">  1  3  2 -1</clus>
</clustering>
</event>
<event>
 6    0  0.1463946E+003  0.1077589E+03  0.7546771E-02  0.1264777E+00
         21   -1    0    0  503  501  0.00000000000E+00  0.00000000000E+00  0.64140454215E+03  0.64140454215E+03  0.00000000000E+00 0.  1.
         21   -1    0    0  506  502 -0.00000000000E+00 -0.00000000000E+00 -0.50291963052E+02  0.50291963052E+02  0.00000000000E+00 0.  1.
         21    1    1    2  503  504 -0.22632815287E+02  0.12101076120E+03  0.29821582500E+03  0.32262753592E+03  0.00000000000E+00 0.  1.
         21    1    1    2  504  502  0.32193643759E+02  0.11637473087E+02  0.26483196681E+02  0.43280725326E+02  0.00000000000E+00 0.  1.
         21    1    1    2  505  501  0.46154394025E+02 -0.85451426956E+02  0.21665624750E+03  0.23742810288E+03  0.00000000000E+00 0.  1.
         21    1    1    2  506  505 -0.55715222497E+02 -0.47196807333E+02  0.49757309917E+02  0.88360141074E+02  0.00000000000E+00 0.  1.
<scales pt_clust_3="14000.00000" pt_clust_4="34.23246" pt_clust_5="107.75893" pt_clust_6="58.49417"></scales>
<clustering>
<clus scale="   34.232">  2  4  1 -1</clus>
<clus scale="   58.494">  2  6  1 -1</clus>
<clus scale="  107.759">  1  5  2 -1</clus>
<clus scale="  107.759">  1  3  2 -1</clus>
</clustering>
</event>
<event>
 6    0  0.1463946E+003  0.1108860E+03  0.7546771E-02  0.1258938E+00
         21   -1    0    0  505  501  0.00000000000E+00  0.00000000000E+00  0.55829348372E+02  0.55829348372E+02  0.00000000000E+00 0. -1.
         21   -1    0    0  503  502 -0.00000000000E+00 -0.00000000000E+00 -0.24761629738E+04  0.24761629738E+04  0.00000000000E+00 0. -1.
         21    1    1    2  503  504  0.10457839357E+02 -0.12071346453E+03 -0.79848367987E+03  0.80762447582E+03  0.00000000000E+00 0. -1.
         21    1    1    2  504  506 -0.23955622913E+02  0.72447180292E+02 -0.29771806406E+03  0.30734103447E+03  0.00000000000E+00 0. -1.
         21    1    1    2  505  502 -0.37258411818E+02  0.10071227067E+03 -0.13383659835E+04  0.13426669939E+04  0.00000000000E+00 0. -1.
         21    1    1    2  506  501  0.50756195374E+02 -0.52445986436E+02  0.14234102051E+02  0.74359817935E+02  0.00000000000E+00 0. -1.
<scales pt_clust_3="110.88605" pt_clust_4="50.64226" pt_clust_5="14000.00000" pt_clust_6="72.98474"></scales>
<clustering>
<clus scale="   72.985">  1  6  2 -1</clus>
<clus scale="   50.642">  1  4  2 -1</clus>
<clus scale="  110.886">  1  3  2 -1</clus>
<clus scale="   72.985">  1  3  2 -1</clus>
</clustering>
</event>
<event>
 6    0  0.1463946E+003  0.5663438E+02  0.7546771E-02  0.1412524E+00
         21   -1    0    0  506  501  0.00000000000E+00  0.00000000000E+00  0.27323895861E+03  0.27323895861E+03  0.00000000000E+00 0. -1.
         21   -1    0    0  504  502 -0.00000000000E+00 -0.00000000000E+00 -0.20043739191E+03  0.20043739191E+03  0.00000000000E+00 0.  1.
         21    1    1    2  503  501 -0.41025783606E+02  0.25273086855E+02  0.87733485020E+02  0.10009499605E+03  0.00000000000E+00 0. -1.
         21    1    1    2  504  503  0.20467126682E+02 -0.33079163233E+02 -0.67356274457E+02  0.77781758939E+02  0.00000000000E+00 0.  1.
         21    1    1    2  505  502 -0.17729742028E+02  0.83290177789E+02 -0.93897735088E+02  0.12676112229E+03  0.00000000000E+00 0.  1.
         21    1    1    2  506  505  0.38288398951E+02 -0.75484101412E+02  0.14632209122E+03  0.16903847325E+03  0.00000000000E+00 0. -1.
<scales pt_clust_3="46.51219" pt_clust_4="38.89903" pt_clust_5="14000.00000" pt_clust_6="56.63438"></scales>
<clustering>
<clus scale="   38.899">  2  4  1 -1</clus>
<clus scale="   46.512">  1  3  2 -1</clus>
<clus scale="   56.634">  1  6  2 -1</clus>
<clus scale="   46.512">  1  3  2 -1</clus>
</clustering>
</event>
<event>
 6    0  0.1463946E+003  0.1331280E+03  0.7546771E-02  0.1222887E+00
         21   -1    0    0  504  501  0.00000000000E+00  0.00000000000E+00  0.11496283339E+03  0.11496283339E+03  0.00000000000E+00 0. -1.
         21   -1    0    0  505  502 -0.00000000000E+00 -0.00000000000E+00 -0.68976113334E+03  0.68976113334E+03  0.00000000000E+00 0.  1.
         21    1    1    2  503  501  0.50213053482E+01 -0.43411258066E+02 -0.33950686908E+02  0.55338955319E+02  0.00000000000E+00 0. -1.
         21    1    1    2  504  506  0.59037520333E+02  0.49064721354E+02  0.37910761160E+02  0.85615427935E+02  0.00000000000E+00 0. -1.
         21    1    1    2  505  503 -0.14636265601E+02 -0.13440241082E+03 -0.46726017908E+03  0.48642605117E+03  0.00000000000E+00 0.  1.
         21    1    1    2  506  502 -0.49422560081E+02  0.12874894754E+03 -0.11149819512E+03  0.17734353231E+03  0.00000000000E+00 0. -1.
<scales pt_clust_3="43.70070" pt_clust_4="66.26241" pt_clust_5="14000.00000" pt_clust_6="133.12797"></scales>
<clustering>
<clus scale="   43.701">  1  3  2 -1</clus>
<clus scale="   66.262">  1  4  2 -1</clus>
<clus scale="  133.128">  1  6  2 -1</clus>
<clus scale="   43.701">  1  3  2 -1</clus>
</clustering>
</event>
<event>
 6    0  0.1463946E+003  0.9010376E+02  0.7546771E-02  0.1302601E+00
         21   -1    0    0  505  501  0.00000000000E+00  0.00000000000E+00  0.95672029958E+03  0.95672029958E+03  0.00000000000E+00 0. -1.
         21   -1    0    0  503  502 -0.00000000000E+00 -0.00000000000E+00 -0.26240838845E+03  0.26240838845E+03  0.00000000000E+00 0.  1.
         21    1    1    2  503  506 -0.63440514080E+02  0.31634076768E+02  0.22972542989E+02  0.74519469745E+02  0.00000000000E+00 0.  1.
         21    1    1    2  504  502  0.90774609145E+02 -0.10003945013E+03 -0.20079197663E+03  0.24200276677E+03  0.00000000000E+00 0.  1.
         21    1    1    2  505  504 -0.60243563961E+02 -0.57306702350E+02  0.53271153889E+03  0.53916131983E+03  0.00000000000E+00 0. -1.
         21    1    1    2  506  501  0.32909468895E+02  0.12571207572E+03  0.33941980588E+03  0.36344513169E+03  0.00000000000E+00 0.  1.
<scales pt_clust_3="70.89015" pt_clust_4="77.13167" pt_clust_5="14000.00000" pt_clust_6="90.10376"></scales>
<clustering>
<clus scale="   70.890">  2  3  1 -1</clus>
<clus scale="   77.132">  2  4  1 -1</clus>
<clus scale="   90.104">  2  6  1 -1</clus>
<clus scale="   90.104">  1  3  2 -1</clus>
</clustering>
</event>
<event>
 6    0  0.1463946E+003  0.1533850E+03  0.7546771E-02  0.1196374E+00
         21   -1    0    0  505  501  0.00000000000E+00  0.00000000000E+00  0.75151650904E+02  0.75151650904E+02  0.00000000000E+00 0. -1.
         21   -1    0    0  504  502 -0.00000000000E+00 -0.00000000000E+00 -0.11670639647E+04  0.11670639647E+04  0.00000000000E+00 0. -1.
         21    1    1    2  503  501  0.50433616508E+02 -0.77103568179E+02 -0.52921223046E+01  0.92284974175E+02  0.00000000000E+00 0. -1.
         21    1    1    2  504  506 -0.46480880286E+02  0.15519733436E+02 -0.12905788474E+03  0.13804807848E+03  0.00000000000E+00 0. -1.
         21    1    1    2  505  502  0.11773951014E+02  0.19257854109E+03 -0.50984741428E+03  0.54513255843E+03  0.00000000000E+00 0. -1.
         21    1    1    2  506  503 -0.15726687235E+02 -0.13099470634E+03 -0.44771489247E+03  0.46675000452E+03  0.00000000000E+00 0. -1.
<scales pt_clust_3="90.33029" pt_clust_4="49.00341" pt_clust_5="14000.00000" pt_clust_6="153.38495"></scales>
<clustering>
<clus scale="   49.003">  2  4  1 -1</clus>
<clus scale="   90.330">  1  3  2 -1</clus>
<clus scale="  153.385">  2  6  1 -1</clus>
<clus scale="   90.330">  1  3  2 -1</clus>
</clustering>
</event>
<event>
 6    0  0.1463946E+003  0.7599038E+02  0.7546771E-02  0.1340831E+00
         21   -1    0    0  505  501  0.00000000000E+00  0.00000000000E+00  0.11602919235E+04  0.11602919235E+04  0.00000000000E+00 0. -1.
         21   -1    0    0  503  502 -0.00000000000E+00 -0.00000000000E+00 -0.65893762328E+03  0.65893762328E+03  0.00000000000E+00 0.  1.
         21    1    1    2  503  506 -0.64052439216E+01 -0.31485597497E+02 -0.56911193141E+03  0.57001821065E+03  0.00000000000E+00 0.  1.
         21    1    1    2  504  501 -0.99420416657E+02 -0.34913573211E+02  0.87244727091E+02  0.13680284810E+03  0.00000000000E+00 0.  1.
         21    1    1    2  505  502  0.54338378828E+02  0.51483467349E+02  0.10351046377E+04  0.10378076979E+04  0.00000000000E+00 0. -1.
         21    1    1    2  506  504  0.51487281751E+02  0.14915703358E+02 -0.51883133134E+02  0.74600790160E+02  0.00000000000E+00 0.  1.
<scales pt_clust_3="32.13052" pt_clust_4="14000.00000" pt_clust_5="75.99038" pt_clust_6="47.52877"></scales>
<clustering>
<clus scale="   32.131">  2  3  1 -1</clus>
<clus scale="   47.529">  2  6  1 -1</clus>
<clus scale="   75.990">  1  5  2 -1</clus>
<clus scale="   75.990">  1  3  2 -1</clus>
</clustering>
</event>
<event>
 6    0  0.1463946E+003  0.7356431E+02  0.7546771E-02  0.1348375E+00
         21   -1    0    0  503  501  0.00000000000E+00  0.00000000000E+00  0.15105375626E+03  0.15105375626E+03  0.00000000000E+00 0.  1.
         21   -1    0    0  504  502 -0.00000000000E+00 -0.00000000000E+00 -0.28292239317E+03  0.28292239317E+03  0.00000000000E+00 0.  1.
         21    1    1    2  503  506 -0.52585687129E+02  0.43555418783E+02  0.38514387597E+02  0.78394432508E+02  0.00000000000E+00 0.  1.
         21    1    1    2  504  501  0.28677599559E+02 -0.20953068714E+02 -0.86301569049E+01  0.36550176650E+02  0.00000000000E+00 0. -1.
         21    1    1    2  505  502 -0.50378250965E+02 -0.53553317545E+02 -0.21184326739E+03  0.22423981789E+03  0.00000000000E+00 0.  1.
         21    1    1    2  506  505  0.74286338535E+02  0.30950967475E+02  0.50090399790E+02  0.94791722380E+02  0.00000000000E+00 0.  1.
<scales pt_clust_3="53.17343" pt_clust_4="35.51670" pt_clust_5="73.56431" pt_clust_6="14000.00000"></scales>
<clustering>
<clus scale="   35.517">  1  4  2 -1</clus>
<clus scale="   53.173">  1  3  2 -1</clus>
<clus scale="   73.564">  2  5  1 -1</clus>
<clus scale="   35.517">  1  3  2 -1</clus>
</clustering>
</event>
<event>
 6    0  0.1463946E+003  0.1324207E+03  0.7546771E-02  0.1223907E+00
         21   -1    0    0  505  501  0.00000000000E+00  0.00000000000E+00  0.15695937051E+04  0.15695937051E+04  0.00000000000E+00 0.  1.
         21   -1    0    0  504  502 -0.00000000000E+00 -0.00000000000E+00 -0.58779086577E+02  0.58779086577E+02  0.00000000000E+00 0.  1.
         21    1    1    2  503  502 -0.43825944882E+02  0.14409255888E+03  0.35283675996E+03  0.38363675287E+03  0.00000000000E+00 0.  1.
         21    1    1    2  504  506  0.69940794598E+02 -0.10807644185E+03  0.56921786711E+02  0.14075624972E+03  0.00000000000E+00 0.  1.
         21    1    1    2  505  503  0.11090026979E+02 -0.30421801757E+02  0.24941568799E+03  0.25150876751E+03  0.00000000000E+00 0.  1.
         21    1    1    2  506  501 -0.37204876695E+02 -0.55943152658E+01  0.85164038382E+03  0.85247102154E+03  0.00000000000E+00 0.  1.
<scales pt_clust_3="14000.00000" pt_clust_4="132.42069" pt_clust_5="32.38016" pt_clust_6="39.24000"></scales>
<clustering>
<clus scale="   32.380">  1  5  2 -1</clus>
<clus scale="   39.240">  1  6  2 -1</clus>
<clus scale="  132.421">  2  4  1 -1</clus>
<clus scale="   32.380">  1  3  2 -1</clus>
</clustering>
</event>
<event>
 6    0  0.1463946E+003  0.1415002E+03  0.7546771E-02  0.1211324E+00
         21   -1    0    0  506  501  0.00000000000E+00  0.00000000000E+00  0.65815231569E+03  0.65815231569E+03  0.00000000000E+00 0. -1.
         21   -1    0    0  505  502 -0.00000000000E+00 -0.00000000000E+00 -0.12185633275E+03  0.12185633275E+03  0.00000000000E+00 0. -1.
         21    1    1    2  503  504 -0.37197128418E+01  0.44773793637E+02  0.32313623239E+02  0.55341657972E+02  0.00000000000E+00 0. -1.
         21    1    1    2  504  501 -0.26034132520E+02  0.52798916790E+02  0.48560083527E+03  0.48915608234E+03  0.00000000000E+00 0. -1.
         21    1    1    2  505  503 -0.19584985056E+02  0.61245208678E+02 -0.14670971612E+02  0.65952897083E+02  0.00000000000E+00 0. -1.
         21    1    1    2  506  502  0.49338830418E+02 -0.15881791910E+03  0.33052496037E+02  0.16955801105E+03  0.00000000000E+00 0. -1.
<scales pt_clust_3="42.76948" pt_clust_4="58.86851" pt_clust_5="42.76948" pt_clust_6="131.92551"></scales>
<clustering>
<clus scale="   42.769">  3  5 -1 -1</clus>
<clus scale="   58.869">  1  4  2 -1</clus>
<clus scale="  131.926">  1  6  2 -1</clus>
<clus scale="   58.869">  1  3  2 -1</clus>
</clustering>
</event>
<event>
 6    0  0.1463946E+003  0.8570372E+02  0.7546771E-02  0.1313602E+00
         21   -1    0    0  503  501  0.00000000000E+00  0.00000000000E+00  0.15058032539E+04  0.15058032539E+04  0.00000000000E+00 0.  1.
         21   -1    0    0  504  502 -0.00000000000E+00 -0.00000000000E+00 -0.45777913835E+03  0.45777913835E+03  0.00000000000E+00 0.  1.
         21    1    1    2  503  505 -0.77373186122E+02  0.37019239535E+02  0.14820029685E+04  0.14844830187E+04  0.00000000000E+00 0.  1.
         21    1    1    2  504  501  0.51950168738E+02  0.22706948823E+02 -0.14200305978E+03  0.15290289252E+03  0.00000000000E+00 0.  1.
         21    1    1    2  505  506  0.44567400953E+02 -0.85557290967E+02 -0.13478228450E+03  0.16574850672E+03  0.00000000000E+00 0.  1.
         21    1    1    2  506  502 -0.19144383569E+02  0.25831102609E+02 -0.15719350871E+03  0.16044797433E+03  0.00000000000E+00 0.  1.
<scales pt_clust_3="14000.00000" pt_clust_4="55.34824" pt_clust_5="85.70372" pt_clust_6="32.15203"></scales>
<clustering>
<clus scale="   32.152">  2  6  1 -1</clus>
<clus scale="   55.348">  2  4  1 -1</clus>
<clus scale="   85.704">  2  5  1 -1</clus>
<clus scale="   85.704">  1  3  2 -1</clus>
</clustering>
</event>
<event>
 6    0  0.1463946E+003  0.1402893E+03  0.7546771E-02  0.1212940E+00
         21   -1    0    0  503  501  0.00000000000E+00  0.00000000000E+00  0.20711911041E+03  0.20711911041E+03  0.00000000000E+00 0.  1.
         21   -1    0    0  506  502 -0.00000000000E+00 -0.00000000000E+00 -0.34981283299E+03  0.34981283299E+03  0.00000000000E+00 0.  1.
         21    1    1    2  503  505  0.23404679452E+02  0.52576233163E+02  0.22557634893E+01  0.57594511742E+02  0.00000000000E+00 0.  1.
         21    1    1    2  504  501  0.75308635845E+02  0.63110569838E+02  0.13492828112E+03  0.16691307829E+03  0.00000000000E+00 0.  1.
         21    1    1    2  505  502  0.95177132903E+01 -0.38041678346E+02 -0.30414926655E+02  0.49626846777E+02  0.00000000000E+00 0.  1.
         21    1    1    2  506  504 -0.10823102859E+03 -0.77645124655E+02 -0.24946284053E+03  0.28279750660E+03  0.00000000000E+00 0.  1.
<scales pt_clust_3="54.83447" pt_clust_4="14000.00000" pt_clust_5="39.21423" pt_clust_6="140.28925"></scales>
<clustering>
<clus scale="   39.214">  2  5  1 -1</clus>
<clus scale="   54.834">  1  3  2 -1</clus>
<clus scale="  140.289">  2  6  1 -1</clus>
<clus scale="   54.834">  1  3  2 -1</clus>
</clustering>
</event>
<event>
 6    0  0.1463946E+003  0.7575081E+02  0.7546771E-02  0.1341562E+00
         21   -1    0    0  506  501  0.00000000000E+00  0.00000000000E+00  0.22052436810E+03  0.22052436810E+03  0.00000000000E+00 0. -1.
         21   -1    0    0  504  502 -0.00000000000E+00 -0.00000000000E+00 -0.58155329521E+03  0.58155329521E+03  0.00000000000E+00 0.  1.
         21    1    1    2  503  501  0.10071476952E+03 -0.44360742307E+02 -0.12133126130E+03  0.16380663975E+03  0.00000000000E+00 0.  1.
         21    1    1    2  504  503  0.11749990172E+02  0.30757355440E+02 -0.40559713424E+03  0.40693133633E+03  0.00000000000E+00 0.  1.
         21    1    1    2  505  502 -0.50088096039E+02 -0.25917473319E+02  0.79138812380E+01  0.56948769120E+02  0.00000000000E+00 0.  1.
         21    1    1    2  506  505 -0.62376663655E+02  0.39520860186E+02  0.15798558719E+03  0.17439091811E+03  0.00000000000E+00 0. -1.
<scales pt_clust_3="75.75081" pt_clust_4="32.92533" pt_clust_5="53.04821" pt_clust_6="14000.00000"></scales>
<clustering>
<clus scale="   32.925">  2  4  1 -1</clus>
<clus scale="   53.048">  2  5  1 -1</clus>
<clus scale="   75.751">  2  3  1 -1</clus>
<clus scale="   75.751">  1  3  2 -1</clus>
</clustering>
</event>
<event>
 6    0  0.1463946E+003  0.6838623E+02  0.7546771E-02  0.1365668E+00
         21   -1    0    0  504  501  0.00000000000E+00  0.00000000000E+00  0.11992307098E+04  0.11992307098E+04  0.00000000000E+00 0. -1.
         21   -1    0    0  505  502 -0.00000000000E+00 -0.00000000000E+00 -0.78700654147E+02  0.78700654147E+02  0.00000000000E+00 0. -1.
         21    1    1    2  503  506 -0.79816982040E+02  0.10763849158E+02  0.49748638531E+02  0.94665400788E+02  0.00000000000E+00 0. -1.
         21    1    1    2  504  503  0.73497288165E+02  0.74194972899E+02  0.56474478127E+03  0.57431995729E+03  0.00000000000E+00 0. -1.
         21    1    1    2  505  501 -0.22778832307E+02 -0.35403883755E+02  0.54036791132E+03  0.54200534109E+03  0.00000000000E+00 0. -1.
         21    1    1    2  506  502  0.29098526181E+02 -0.49554938301E+02 -0.34331275417E+02  0.66940664829E+02  0.00000000000E+00 0. -1.
<scales pt_clust_3="68.38623" pt_clust_4="14000.00000" pt_clust_5="42.09881" pt_clust_6="57.94479"></scales>
<clustering>
<clus scale="   42.099">  1  5  2 -1</clus>
<clus scale="   57.945">  2  6  1 -1</clus>
<clus scale="   68.386">  2  3  1 -1</clus>
<clus scale="   42.099">  1  3  2 -1</clus>
</clustering>
</event>
<event>
 6    0  0.1463946E+003  0.8764965E+02  0.7546771E-02  0.1308645E+00
         21   -1    0    0  504  501  0.00000000000E+00  0.00000000000E+00  0.33891554254E+03  0.33891554254E+03  0.00000000000E+00 0. -1.
         21   -1    0    0  503  502 -0.00000000000E+00 -0.00000000000E+00 -0.36854382876E+03  0.36854382876E+03  0.00000000000E+00 0. -1.
         21    1    1    2  503  505  0.95852778192E+02 -0.26224163512E+02  0.10058112347E+02  0.99883068950E+02  0.00000000000E+00 0. -1.
         21    1    1    2  504  506  0.22108590591E+02  0.35056821200E+02  0.50268957173E+02  0.65151658043E+02  0.00000000000E+00 0. -1.
         21    1    1    2  505  501 -0.88926576909E+02  0.17941578250E+02  0.21581886510E+03  0.23411027070E+03  0.00000000000E+00 0. -1.
         21    1    1    2  506  502 -0.29034791874E+02 -0.26774235938E+02 -0.30577422083E+03  0.30831437361E+03  0.00000000000E+00 0. -1.
<scales pt_clust_3="87.64965" pt_clust_4="36.85272" pt_clust_5="14000.00000" pt_clust_6="39.49530"></scales>
<clustering>
<clus scale="   39.495">  2  6  1 -1</clus>
<clus scale="   36.853">  1  4  2 -1</clus>
<clus scale="   87.650">  2  3  1 -1</clus>
<clus scale="   36.853">  1  3  2 -1</clus>
</clustering>
</event>
<event>
 6    0  0.1463946E+003  0.1060403E+03  0.7546771E-02  0.1268083E+00
         21   -1    0    0  503  501  0.00000000000E+00  0.00000000000E+00  0.19328041163E+03  0.19328041163E+03  0.00000000000E+00 0. -1.
         21   -1    0    0  504  502 -0.00000000000E+00 -0.00000000000E+00 -0.53127117410E+03  0.53127117410E+03  0.00000000000E+00 0. -1.
         21    1    1    2  503  506 -0.15676703901E+02 -0.25809745601E+02  0.11914880355E+03  0.12291598513E+03  0.00000000000E+00 0. -1.
         21    1    1    2  504  505 -0.29016426715E+02  0.10408556029E+03 -0.45300943494E+03  0.46571805314E+03  0.00000000000E+00 0. -1.
         21    1    1    2  505  501  0.36307153236E+02  0.11221887413E+02 -0.22509527123E+02  0.44168076079E+02  0.00000000000E+00 0. -1.
         21    1    1    2  506  502  0.83859773801E+01 -0.89497702103E+02  0.18379396039E+02  0.91749471372E+02  0.00000000000E+00 0.  1.
<scales pt_clust_3="30.19772" pt_clust_4="106.04030" pt_clust_5="34.74440" pt_clust_6="14000.00000"></scales>
<clustering>
<clus scale="   30.198">  1  3  2 -1</clus>
<clus scale="   34.744">  1  5  2 -1</clus>
<clus scale="  106.040">  2  4  1 -1</clus>
<clus scale="   30.198">  1  3  2 -1</clus>
</clustering>
</event>
<event>
 6    0  0.1463946E+003  0.2271119E+03  0.7546771E-02  0.1128689E+00
         21   -1    0    0  506  501  0.00000000000E+00  0.00000000000E+00  0.40539002501E+03  0.40539002501E+03  0.00000000000E+00 0.  1.
         21   -1    0    0  504  502 -0.00000000000E+00 -0.00000000000E+00 -0.12038614277E+04  0.12038614277E+04  0.00000000000E+00 0. -1.
         21    1    1    2  503  501 -0.98277031814E+01 -0.43149352112E+02  0.12764239245E+03  0.13509637555E+03  0.00000000000E+00 0.  1.
         21    1    1    2  504  505 -0.15272346361E+03  0.15341670799E+03 -0.88548903676E+03  0.91156567336E+03  0.00000000000E+00 0. -1.
         21    1    1    2  505  503  0.16635397007E+03 -0.24439959336E+03 -0.19796358390E+03  0.35580104714E+03  0.00000000000E+00 0.  1.
         21    1    1    2  506  502 -0.38028032729E+01  0.13413223749E+03  0.15733882550E+03  0.20678835667E+03  0.00000000000E+00 0.  1.
<scales pt_clust_3="44.25438" pt_clust_4="227.11191" pt_clust_5="14000.00000" pt_clust_6="105.96808"></scales>
<clustering>
<clus scale="   44.254">  1  3  2 -1</clus>
<clus scale="  105.968">  1  6  2 -1</clus>
<clus scale="  227.112">  2  4  1 -1</clus>
<clus scale="   44.254">  1  3  2 -1</clus>
</clustering>
</event>
<event>
 6    0  0.1463946E+003  0.1217126E+03  0.7546771E-02  0.1240298E+00
         21   -1    0    0  503  501  0.00000000000E+00  0.00000000000E+00  0.46830833003E+03  0.46830833003E+03  0.00000000000E+00 0.  1.
         21   -1    0    0  504  502 -0.00000000000E+00 -0.00000000000E+00 -0.10056272637E+03  0.10056272637E+03  0.00000000000E+00 0.  1.
         21    1    1    2  503  502  0.19765925799E+01 -0.97676823044E+02  0.13556026777E+03  0.16709654358E+03  0.00000000000E+00 0.  1.
         21    1    1    2  504  506 -0.21440365374E+02 -0.21756270195E+02 -0.55779401975E+00  0.30550543274E+02  0.00000000000E+00 0.  1.
         21    1    1    2  505  501  0.12086102963E+02  0.15102029300E+03  0.27737256613E+03  0.31605180465E+03  0.00000000000E+00 0.  1.
         21    1    1    2  506  505  0.73776698308E+01 -0.31587199758E+02 -0.44629436223E+02  0.55172164886E+02  0.00000000000E+00 0. -1.
<scales pt_clust_3="121.71265" pt_clust_4="30.54545" pt_clust_5="14000.00000" pt_clust_6="44.66301"></scales>
<clustering>
<clus scale="   30.545">  2  4  1 -1</clus>
<clus scale="   44.663">  2  6  1 -1</clus>
<clus scale="  121.713">  1  3  2 -1</clus>
<clus scale="  121.713">  1  3  2 -1</clus>
</clustering>
</event>
<event>
 6    0  0.1463946E+003  0.1139240E+03  0.7546771E-02  0.1253471E+00
         21   -1    0    0  503  501  0.00000000000E+00  0.00000000000E+00  0.33619657971E+03  0.33619657971E+03  0.00000000000E+00 0. -1.
         21   -1    0    0  504  502 -0.00000000000E+00 -0.00000000000E+00 -0.13577817772E+03  0.13577817772E+03  0.00000000000E+00 0.  1.
         21    1    1    2  503  502  0.12206096335E+03 -0.21874750090E+02  0.19129912295E+03  0.22797530109E+03  0.00000000000E+00 0. -1.
         21    1    1    2  504  505 -0.39618527894E+02 -0.33576029655E+02 -0.25106208157E+02  0.57682746189E+02  0.00000000000E+00 0.  1.
         21    1    1    2  505  506 -0.58454720675E+02  0.60327486096E+01 -0.55682071717E+02  0.80955799890E+02  0.00000000000E+00 0.  1.
         21    1    1    2  506  501 -0.23987714784E+02  0.49418031135E+02  0.89907558916E+02  0.10536091027E+03  0.00000000000E+00 0. -1.
<scales pt_clust_3="103.25585" pt_clust_4="45.24946" pt_clust_5="45.24946" pt_clust_6="54.93225"></scales>
<clustering>
<clus scale="   45.249">  4  5 -1 -1</clus>
<clus scale="   54.932">  1  6  2 -1</clus>
<clus scale="  103.256">  1  3  2 -1</clus>
<clus scale="   54.932">  1  3  2 -1</clus>
</clustering>
</event>
<event>
 6    0  0.1463946E+003  0.7748609E+02  0.7546771E-02  0.1336341E+00
         21   -1    0    0  505  501  0.00000000000E+00  0.00000000000E+00  0.37714514308E+03  0.37714514308E+03  0.00000000000E+00 0.  1.
         21   -1    0    0  504  502 -0.00000000000E+00 -0.00000000000E+00 -0.19712225855E+03  0.19712225855E+03  0.00000000000E+00 0. -1.
         21    1    1    2  503  501  0.39962073200E+01  0.34030877830E+02  0.88466997657E+02  0.94870859558E+02  0.00000000000E+00 0.  1.
         21    1    1    2  504  503 -0.24235305759E+02  0.20325006501E+02 -0.45512153980E+02  0.55423930701E+02  0.00000000000E+00 0. -1.
         21    1    1    2  505  506 -0.67959922078E+02 -0.73866991057E+02  0.25579801454E+03  0.27478629445E+03  0.00000000000E+00 0.  1.
         21    1    1    2  506  502  0.88199020517E+02  0.19511106726E+02 -0.11872997368E+03  0.14918631692E+03  0.00000000000E+00 0. -1.
<scales pt_clust_3="34.64854" pt_clust_4="31.62998" pt_clust_5="14000.00000" pt_clust_6="77.48609"></scales>
<clustering>
<clus scale="   31.630">  2  4  1 -1</clus>
<clus scale="   34.649">  1  3  2 -1</clus>
<clus scale="   77.486">  2  6  1 -1</clus>
<clus scale="   34.649">  1  3  2 -1</clus>
</clustering>
</event>
<event>
 6    0  0.1463946E+003  0.9334370E+02  0.7546771E-02  0.1294951E+00
         21   -1    0    0  503  501  0.00000000000E+00  0.00000000000E+00  0.22311922752E+04  0.22311922752E+04  0.00000000000E+00 0.  1.
         21   -1    0    0  506  502 -0.00000000000E+00 -0.00000000000E+00 -0.41896905196E+02  0.41896905196E+02  0.00000000000E+00 0. -1.
         21    1    1    2  503  504 -0.36166578431E+02  0.18778539068E+02  0.13708751997E+04  0.13714807574E+04  0.00000000000E+00 0.  1.
         21    1    1    2  504  502  0.10189042672E+03 -0.72234687436E+01  0.24860098650E+03  0.26876809343E+03  0.00000000000E+00 0.  1.
         21    1    1    2  505  501 -0.66853301742E+02 -0.41919189857E+02  0.59071600246E+03  0.59596306764E+03  0.00000000000E+00 0.  1.
         21    1    1    2  506  505  0.11294534563E+01  0.30364119533E+02 -0.20896818592E+02  0.36877261929E+02  0.00000000000E+00 0. -1.
<scales pt_clust_3="41.05842" pt_clust_4="93.34370" pt_clust_5="14000.00000" pt_clust_6="30.38512"></scales>
<clustering>
<clus scale="   30.385">  2  6  1 -1</clus>
<clus scale="   41.058">  1  3  2 -1</clus>
<clus scale="   93.344">  2  4  1 -1</clus>
<clus scale="   41.058">  1  3  2 -1</clus>
</clustering>
</event>
<event>
 6    0  0.1463946E+003  0.9665937E+02  0.7546771E-02  0.1287482E+00
         21   -1    0    0  503  501  0.00000000000E+00  0.00000000000E+00  0.45525215345E+03  0.45525215345E+03  0.00000000000E+00 0. -1.
         21   -1    0    0  505  502 -0.00000000000E+00 -0.00000000000E+00 -0.23777142187E+03  0.23777142187E+03  0.00000000000E+00 0. -1.
         21    1    1    2  503  506  0.73922130048E+01  0.31397388580E+02  0.27731694271E+03  0.27918654613E+03  0.00000000000E+00 0. -1.
         21    1    1    2  504  502  0.82384489982E+02  0.31621881871E+02 -0.11363840919E+03  0.14387784974E+03  0.00000000000E+00 0. -1.
         21    1    1    2  505  501  0.15104983337E+02 -0.33680357209E+02 -0.85505492582E+02  0.93132788238E+02  0.00000000000E+00 0. -1.
         21    1    1    2  506  504 -0.10488168632E+03 -0.29338913242E+02  0.13930769065E+03  0.17682639121E+03  0.00000000000E+00 0. -1.
<scales pt_clust_3="32.25586" pt_clust_4="14000.00000" pt_clust_5="36.36280" pt_clust_6="96.65937"></scales>
<clustering>
<clus scale="   32.256">  1  3  2 -1</clus>
<clus scale="   36.363">  2  5  1 -1</clus>
<clus scale="   96.659">  1  6  2 -1</clus>
<clus scale="   32.256">  1  3  2 -1</clus>
</clustering>
</event>
<event>
 6    0  0.1463946E+003  0.7711832E+02  0.7546771E-02  0.1337434E+00
         21   -1    0    0  504  501  0.00000000000E+00  0.00000000000E+00  0.21278602038E+04  0.21278602038E+04  0.00000000000E+00 0.  1.
         21   -1    0    0  506  502 -0.00000000000E+00 -0.00000000000E+00 -0.96368764522E+02  0.96368764522E+02  0.00000000000E+00 0.  1.
         21    1    1    2  503  502 -0.16106875058E+02  0.40615680342E+02  0.15035860771E+04  0.15042207804E+04  0.00000000000E+00 0.  1.
         21    1    1    2  504  503 -0.19360227778E+02  0.28018747886E+02  0.45217966829E+03  0.45346038533E+03  0.00000000000E+00 0.  1.
         21    1    1    2  505  501  0.61891486844E+02 -0.11265053416E+03  0.13616487756E+03  0.18724735745E+03  0.00000000000E+00 0.  1.
         21    1    1    2  506  505 -0.26424384009E+02  0.44016105929E+02 -0.60439183768E+02  0.79300445055E+02  0.00000000000E+00 0.  1.
<scales pt_clust_3="14000.00000" pt_clust_4="34.05684" pt_clust_5="77.11832" pt_clust_6="51.53009"></scales>
<clustering>
<clus scale="   34.057">  1  4  2 -1</clus>
<clus scale="   51.530">  2  6  1 -1</clus>
<clus scale="   77.118">  2  5  1 -1</clus>
<clus scale="   34.057">  1  3  2 -1</clus>
</clustering>
</event>
<event>
 6    0  0.1463946E+003  0.6668478E+02  0.7546771E-02  0.1371744E+00
         21   -1    0    0  505  501  0.00000000000E+00  0.00000000000E+00  0.59050400008E+03  0.59050400008E+03  0.00000000000E+00 0. -1.
         21   -1    0    0  503  502 -0.00000000000E+00 -0.00000000000E+00 -0.33698661095E+03  0.33698661095E+03  0.00000000000E+00 0. -1.
         21    1    1    2  503  504 -0.68724429976E+02 -0.33014702106E+02 -0.25267632333E+03  0.26392866878E+03  0.00000000000E+00 0. -1.
         21    1    1    2  504  506  0.54645996963E+02 -0.29321710231E+02 -0.51145745614E+02  0.80385539554E+02  0.00000000000E+00 0. -1.
         21    1    1    2  505  502 -0.25334998757E+02  0.78059375472E+02  0.13001260330E+03  0.15374786268E+03  0.00000000000E+00 0. -1.
         21    1    1    2  506  501  0.39413431770E+02 -0.15722963135E+02  0.42732685477E+03  0.42942854002E+03  0.00000000000E+00 0. -1.
<scales pt_clust_3="14000.00000" pt_clust_4="66.68478" pt_clust_5="64.94856" pt_clust_6="42.43383"></scales>
<clustering>
<clus scale="   42.434">  1  6  2 -1</clus>
<clus scale="   64.949">  1  5  2 -1</clus>
<clus scale="   66.685">  1  4  2 -1</clus>
<clus scale="   42.434">  1  3  2 -1</clus>
</clustering>
</event>
<event>
 6    0  0.1463946E+003  0.1318756E+03  0.7546771E-02  0.1224699E+00
         21   -1    0    0  506  501  0.00000000000E+00  0.00000000000E+00  0.32940106165E+03  0.32940106165E+03  0.00000000000E+00 0. -1.
         21   -1    0    0  504  502 -0.00000000000E+00 -0.00000000000E+00 -0.14100493903E+04  0.14100493903E+04  0.00000000000E+00 0.  1.
         21    1    1    2  503  501  0.79386525592E+02  0.49007197643E+02 -0.45740523399E+03  0.46682274361E+03  0.00000000000E+00 0.  1.
         21    1    1    2  504  503 -0.19424009090E+02  0.58545581508E+02 -0.93325948765E+03  0.93529575458E+03  0.00000000000E+00 0. -1.
         21    1    1    2  505  502 -0.27342251627E+02 -0.73667124893E+02  0.13597300863E+03  0.15704490788E+03  0.00000000000E+00 0. -1.
         21    1    1    2  506  505 -0.32620264875E+02 -0.33885654257E+02  0.17404338440E+03  0.18028704585E+03  0.00000000000E+00 0. -1.
<scales pt_clust_3="121.94914" pt_clust_4="61.68369" pt_clust_5="38.83529" pt_clust_6="38.83529"></scales>
<clustering>
<clus scale="   38.835">  5  6 -1 -1</clus>
<clus scale="   61.684">  2  4  1 -1</clus>
<clus scale="  121.949">  2  3  1 -1</clus>
<clus scale="  131.876">  1  3  2 -1</clus>
</clustering>
</event>
<event>
 6    0  0.1463946E+003  0.6958517E+02  0.7546771E-02  0.1361509E+00
         21   -1    0    0  506  501  0.00000000000E+00  0.00000000000E+00  0.27840576498E+03  0.27840576498E+03  0.00000000000E+00 0. -1.
         21   -1    0    0  504  502 -0.00000000000E+00 -0.00000000000E+00 -0.63904205323E+03  0.63904205323E+03  0.00000000000E+00 0. -1.
         21    1    1    2  503  502 -0.64689221375E+02 -0.25673454463E+01 -0.35328364043E+02  0.73752152041E+02  0.00000000000E+00 0. -1.
         21    1    1    2  504  501  0.13120280432E+03  0.35449684853E+01 -0.53489776815E+03  0.55076525402E+03  0.00000000000E+00 0. -1.
         21    1    1    2  505  503 -0.36821769263E+02 -0.67612281959E+02  0.66480289751E+01  0.77275220172E+02  0.00000000000E+00 0. -1.
         21    1    1    2  506  505 -0.29691813678E+02  0.66634658920E+02  0.20294181496E+03  0.21565519198E+03  0.00000000000E+00 0. -1.
<scales pt_clust_3="64.74015" pt_clust_4="71.13487" pt_clust_5="14000.00000" pt_clust_6="69.58517"></scales>
<clustering>
<clus scale="   64.740">  2  3  1 -1</clus>
<clus scale="   71.135">  2  4  1 -1</clus>
<clus scale="   69.585">  1  6  2 -1</clus>
<clus scale="   69.585">  1  3  2 -1</clus>
</clustering>
</event>
<event>
 6    0  0.1463946E+003  0.9226817E+02  0.7546771E-02  0.1297450E+00
         21   -1    0    0  505  501  0.00000000000E+00  0.00000000000E+00  0.74193168568E+02  0.74193168568E+02  0.00000000000E+00 0.  1.
         21   -1    0    0  506  502 -0.00000000000E+00 -0.00000000000E+00 -0.13412907929E+04  0.13412907929E+04  0.00000000000E+00 0.  1.
         21    1    1    2  503  501 -0.21584360608E+02  0.26232339541E+02 -0.21229940916E+02  0.40059089505E+02  0.00000000000E+00 0.  1.
         21    1    1    2  504  503 -0.14664538844E+02  0.78244115900E+02 -0.11386761527E+04  0.11414554617E+04  0.00000000000E+00 0.  1.
         21    1    1    2  505  502  0.48740010330E+01 -0.11664428334E+03  0.49865710438E+01  0.11685251650E+03  0.00000000000E+00 0.  1.
         21    1    1    2  506  504  0.31374898418E+02  0.12167827894E+02 -0.11217810185E+03  0.11711689383E+03  0.00000000000E+00 0.  1.
<scales pt_clust_3="33.71704" pt_clust_4="92.26817" pt_clust_5="14000.00000" pt_clust_6="33.65175"></scales>
<clustering>
<clus scale="   33.652">  2  6  1 -1</clus>
<clus scale="   33.717">  1  3  2 -1</clus>
<clus scale="   92.268">  2  4  1 -1</clus>
<clus scale="   33.717">  1  3  2 -1</clus>
</clustering>
</event>
<event>
 6    0  0.1463946E+003  0.1559672E+03  0.7546771E-02  0.1193326E+00
         21   -1    0    0  506  501  0.00000000000E+00  0.00000000000E+00  0.65340522963E+03  0.65340522963E+03  0.00000000000E+00 0. -1.
         21   -1    0    0  504  502 -0.00000000000E+00 -0.00000000000E+00 -0.72436927095E+03  0.72436927095E+03  0.00000000000E+00 0. -1.
         21    1    1    2  503  502 -0.29857001284E+02 -0.19892640717E+03 -0.64025572338E+01  0.20125642532E+03  0.00000000000E+00 0. -1.
         21    1    1    2  504  501 -0.25620743418E+02  0.83008064855E+02 -0.56391581117E+03  0.57056796564E+03  0.00000000000E+00 0. -1.
         21    1    1    2  505  503  0.19407602453E+02  0.14107927059E+03  0.44821948548E+02  0.14929508597E+03  0.00000000000E+00 0. -1.
         21    1    1    2  506  505  0.36070142249E+02 -0.25160928278E+02  0.45453237855E+03  0.45665502365E+03  0.00000000000E+00 0. -1.
<scales pt_clust_3="14000.00000" pt_clust_4="86.29018" pt_clust_5="155.96720" pt_clust_6="43.97872"></scales>
<clustering>
<clus scale="   43.979">  1  6  2 -1</clus>
<clus scale="   86.290">  2  4  1 -1</clus>
<clus scale="  155.967">  1  5  2 -1</clus>
<clus scale="   43.979">  1  3  2 -1</clus>
</clustering>
</event>
<event>
 6    0  0.1463946E+003  0.6909080E+02  0.7546771E-02  0.1363212E+00
         21   -1    0    0  503  501  0.00000000000E+00  0.00000000000E+00  0.90891941282E+02  0.90891941282E+02  0.00000000000E+00 0. -1.
         21   -1    0    0  504  502 -0.00000000000E+00 -0.00000000000E+00 -0.11417661607E+04  0.11417661607E+04  0.00000000000E+00 0. -1.
         21    1    1    2  503  505 -0.55632509920E+02 -0.40539810319E+02  0.60887132228E+02  0.91900463827E+02  0.00000000000E+00 0. -1.
         21    1    1    2  504  501 -0.42306030164E+02 -0.41989400274E+02 -0.32721624068E+03  0.33260092918E+03  0.00000000000E+00 0. -1.
         21    1    1    2  505  506  0.24250658662E+02  0.87517179813E+02 -0.20880984438E+03  0.22770354042E+03  0.00000000000E+00 0. -1.
         21    1    1    2  506  502  0.73687881422E+02 -0.49879692193E+01 -0.57573526658E+03  0.58045316856E+03  0.00000000000E+00 0. -1.
<scales pt_clust_3="69.09080" pt_clust_4="59.60629" pt_clust_5="14000.00000" pt_clust_6="55.81102"></scales>
<clustering>
<clus scale="   59.606">  2  4  1 -1</clus>
<clus scale="   55.811">  2  6  1 -1</clus>
<clus scale="   69.091">  1  3  2 -1</clus>
<clus scale="   69.091">  1  3  2 -1</clus>
</clustering>
</event>
<event>
 6    0  0.1463946E+003  0.6794552E+02  0.7546771E-02  0.1367222E+00
         21   -1    0    0  505  501  0.00000000000E+00  0.00000000000E+00  0.41753496448E+03  0.41753496448E+03  0.00000000000E+00 0.  1.
         21   -1    0    0  506  502 -0.00000000000E+00 -0.00000000000E+00 -0.77432161787E+03  0.77432161787E+03  0.00000000000E+00 0.  1.
         21    1    1    2  503  502 -0.18351204030E+02  0.27606537548E+02 -0.72347074051E+03  0.72422979777E+03  0.00000000000E+00 0.  1.
         21    1    1    2  504  501 -0.62045273731E+02  0.17392834783E+02  0.27107820001E+03  0.27863150793E+03  0.00000000000E+00 0.  1.
         21    1    1    2  505  503  0.49038617601E+01  0.45055242464E+02  0.30824614163E+02  0.54810396568E+02  0.00000000000E+00 0.  1.
         21    1    1    2  506  504  0.75492616001E+02 -0.90054614795E+02  0.64781272954E+02  0.13418488008E+03  0.00000000000E+00 0.  1.
<scales pt_clust_3="33.14947" pt_clust_4="14000.00000" pt_clust_5="51.61791" pt_clust_6="67.94552"></scales>
<clustering>
<clus scale="   33.149">  2  3  1 -1</clus>
<clus scale="   51.618">  2  5  1 -1</clus>
<clus scale="   67.946">  2  6  1 -1</clus>
<clus scale="   67.946">  1  3  2 -1</clus>
</clustering>
</event>
<event>
 6    0  0.1463946E+003  0.1178303E+03  0.7546771E-02  0.1246720E+00
         21   -1    0    0  504  501  0.00000000000E+00  0.00000000000E+00  0.26621338724E+04  0.26621338724E+04  0.00000000000E+00 0.  1.
         21   -1    0    0  505  502 -0.00000000000E+00 -0.00000000000E+00 -0.17205921765E+03  0.17205921765E+03  0.00000000000E+00 0.  1.
         21    1    1    2  503  502 -0.18985680312E+02 -0.36807358029E+02 -0.11534698263E+03  0.12255677894E+03  0.00000000000E+00 0.  1.
         21    1    1    2  504  503  0.10664257390E+03  0.31034431929E+02  0.36432712513E+03  0.38088059630E+03  0.00000000000E+00 0.  1.
         21    1    1    2  505  506 -0.46023019105E+02 -0.84087335645E+02  0.87955020497E+01  0.96260891123E+02  0.00000000000E+00 0.  1.
         21    1    1    2  506  501 -0.41633874484E+02  0.89860261745E+02  0.22322990102E+04  0.22344948237E+04  0.00000000000E+00 0.  1.
<scales pt_clust_3="41.41543" pt_clust_4="14000.00000" pt_clust_5="117.83030" pt_clust_6="98.51348"></scales>
<clustering>
<clus scale="   41.415">  2  3  1 -1</clus>
<clus scale="   98.513">  1  6  2 -1</clus>
<clus scale="  117.830">  2  5  1 -1</clus>
<clus scale="   98.513">  1  3  2 -1</clus>
</clustering>
</event>
<event>
 6    0  0.1463946E+003  0.1453473E+03  0.7546771E-02  0.1206310E+00
         21   -1    0    0  503  501  0.00000000000E+00  0.00000000000E+00  0.51418849248E+03  0.51418849248E+03  0.00000000000E+00 0. -1.
         21   -1    0    0  505  502 -0.00000000000E+00 -0.00000000000E+00 -0.12237168184E+04  0.12237168184E+04  0.00000000000E+00 0.  1.
         21    1    1    2  503  506 -0.19754618157E+02  0.88798789043E+02  0.30425162602E+03  0.31756026485E+03  0.00000000000E+00 0. -1.
         21    1    1    2  504  502  0.14023661510E+02  0.30799712927E+02 -0.66737235093E+02  0.74827427768E+02  0.00000000000E+00 0.  1.
         21    1    1    2  505  501  0.50664380602E+02 -0.14985396987E+03 -0.11370185293E+04  0.11479696109E+04  0.00000000000E+00 0.  1.
         21    1    1    2  506  504 -0.44933423955E+02  0.30255467898E+02  0.18997581237E+03  0.19754800736E+03  0.00000000000E+00 0. -1.
<scales pt_clust_3="40.19789" pt_clust_4="33.84207" pt_clust_5="135.67805" pt_clust_6="40.19789"></scales>
<clustering>
<clus scale="   33.842">  2  4  1 -1</clus>
<clus scale="   40.198">  3  6 -1 -1</clus>
<clus scale="  135.678">  2  5  1 -1</clus>
<clus scale="  145.347">  1  3  2 -1</clus>
</clustering>
</event>
<event>
 6    0  0.1463946E+003  0.1185925E+03  0.7546771E-02  0.1245437E+00
         21   -1    0    0  505  501  0.00000000000E+00  0.00000000000E+00  0.25510953256E+03  0.25510953256E+03  0.00000000000E+00 0.  1.
         21   -1    0    0  504  502 -0.00000000000E+00 -0.00000000000E+00 -0.42984454701E+03  0.42984454701E+03  0.00000000000E+00 0.  1.
         21    1    1    2  503  502 -0.34476549000E+02  0.12983716005E+02 -0.20803586613E+03  0.21127264590E+03  0.00000000000E+00 0.  1.
         21    1    1    2  504  506 -0.70400578899E+02  0.31112631447E+02 -0.32200798076E+02  0.83433379061E+02  0.00000000000E+00 0.  1.
         21    1    1    2  505  503  0.16347101500E+03 -0.83300892303E+02 -0.10100098704E+03  0.20943497985E+03  0.00000000000E+00 0.  1.
         21    1    1    2  506  501 -0.58593887101E+02  0.39204544851E+02  0.16650263679E+03  0.18081307475E+03  0.00000000000E+00 0.  1.
<scales pt_clust_3="36.84032" pt_clust_4="14000.00000" pt_clust_5="118.59254" pt_clust_6="71.66620"></scales>
<clustering>
<clus scale="   36.840">  2  3  1 -1</clus>
<clus scale="   71.666">  1  6  2 -1</clus>
<clus scale="  118.593">  1  5  2 -1</clus>
<clus scale="   71.666">  1  3  2 -1</clus>
</clustering>
</event>
<event>
 6    0  0.1463946E+003  0.8254972E+02  0.7546771E-02  0.1321968E+00
         21   -1    0    0  505  501  0.00000000000E+00  0.00000000000E+00  0.25258268352E+04  0.25258268352E+04  0.00000000000E+00 0.  1.
         21   -1    0    0  504  502 -0.00000000000E+00 -0.00000000000E+00 -0.14690579837E+02  0.14690579837E+02  0.00000000000E+00 0.  1.
         21    1    1    2  503  502  0.54694612794E+02  0.96108584470E+01  0.10251313691E+03  0.11658821771E+03  0.00000000000E+00 0.  1.
         21    1    1    2  504  501 -0.11116107639E+03 -0.11393131679E+02  0.61675821863E+03  0.62679924107E+03  0.00000000000E+00 0.  1.
         21    1    1    2  505  506 -0.29613054240E+02  0.19632489794E+02  0.95491799146E+03  0.95557874508E+03  0.00000000000E+00 0.  1.
         21    1    1    2  506  503  0.86079517840E+02 -0.17850216562E+02  0.83694690833E+03  0.84155121115E+03  0.00000000000E+00 0.  1.
<scales pt_clust_3="53.76228" pt_clust_4="14000.00000" pt_clust_5="35.52981" pt_clust_6="82.54972"></scales>
<clustering>
<clus scale="   35.530">  1  5  2 -1</clus>
<clus scale="   53.762">  2  3  1 -1</clus>
<clus scale="   82.550">  1  6  2 -1</clus>
<clus scale="   35.530">  1  3  2 -1</clus>
</clustering>
</event>
<event>
 6    0  0.1463946E+003  0.9978759E+02  0.7546771E-02  0.1280743E+00
         21   -1    0    0  506  501  0.00000000000E+00  0.00000000000E+00  0.76315051693E+03  0.76315051693E+03  0.00000000000E+00 0. -1.
         21   -1    0    0  503  502 -0.00000000000E+00 -0.00000000000E+00 -0.15447592707E+04  0.15447592707E+04  0.00000000000E+00 0.  1.
         21    1    1    2  503  501  0.10077950467E+03 -0.13428733361E+01  0.23533457435E+03  0.25600912826E+03  0.00000000000E+00 0. -1.
         21    1    1    2  504  505 -0.79702302473E+02  0.13612054725E+02  0.24734280666E+02  0.84554891599E+02  0.00000000000E+00 0. -1.
         21    1    1    2  505  502 -0.30763367269E+02 -0.51795760809E+02 -0.15030125287E+04  0.15042193481E+04  0.00000000000E+00 0.  1.
         21    1    1    2  506  504  0.96861650756E+01  0.39526579420E+02  0.46133491993E+03  0.46312641970E+03  0.00000000000E+00 0. -1.
<scales pt_clust_3="99.78759" pt_clust_4="14000.00000" pt_clust_5="60.16466" pt_clust_6="40.69610"></scales>
<clustering>
<clus scale="   40.696">  1  6  2 -1</clus>
<clus scale="   60.165">  2  5  1 -1</clus>
<clus scale="   99.788">  1  3  2 -1</clus>
<clus scale="   40.696">  1  3  2 -1</clus>
</clustering>
</event>
<event>
 6    0  0.1463946E+003  0.7625325E+02  0.7546771E-02  0.1340033E+00
         21   -1    0    0  506  501  0.00000000000E+00  0.00000000000E+00  0.93294231773E+03  0.93294231773E+03  0.00000000000E+00 0.  1.
         21   -1    0    0  505  502 -0.00000000000E+00 -0.00000000000E+00 -0.39451159080E+03  0.39451159080E+03  0.00000000000E+00 0. -1.
         21    1    1    2  503  502 -0.43498829687E+02  0.60238301934E+02 -0.34151569660E+03  0.34950503891E+03  0.00000000000E+00 0. -1.
         21    1    1    2  504  503 -0.41509282007E+02  0.30204807920E+02  0.24790939060E+03  0.25316875175E+03  0.00000000000E+00 0.  1.
         21    1    1    2  505  501  0.45341612816E+02 -0.10252165108E+03  0.23128849523E+02  0.11446175987E+03  0.00000000000E+00 0.  1.
         21    1    1    2  506  504  0.39666498878E+02  0.12078541228E+02  0.60890818340E+03  0.61031835799E+03  0.00000000000E+00 0.  1.
<scales pt_clust_3="14000.00000" pt_clust_4="41.00456" pt_clust_5="76.25325" pt_clust_6="41.46471"></scales>
<clustering>
<clus scale="   41.465">  1  6  2 -1</clus>
<clus scale="   41.005">  1  4  2 -1</clus>
<clus scale="   76.253">  1  5  2 -1</clus>
<clus scale="   41.465">  1  3  2 -1</clus>
</clustering>
</event>
<event>
 6    0  0.1463946E+003  0.1217823E+03  0.7546771E-02  0.1240185E+00
         21   -1    0    0  504  501  0.00000000000E+00  0.00000000000E+00  0.10374864465E+04  0.10374864465E+04  0.00000000000E+00 0. -1.
         21   -1    0    0  503  502 -0.00000000000E+00 -0.00000000000E+00 -0.23944360842E+03  0.23944360842E+03  0.00000000000E+00 0.  1.
         21    1    1    2  503  506 -0.18700566974E+02  0.88817862803E+02 -0.29007930168E+02  0.95287900442E+02  0.00000000000E+00 0.  1.
         21    1    1    2  504  505  0.32140182207E+02 -0.57759519872E+02 -0.72501922492E+02  0.98110561170E+02  0.00000000000E+00 0.  1.
         21    1    1    2  505  502 -0.14945738370E+02 -0.69969069734E+02 -0.77630736337E+02  0.10557261501E+03  0.00000000000E+00 0.  1.
         21    1    1    2  506  501  0.15061231382E+01  0.38910726803E+02  0.97718342706E+03  0.97795897827E+03  0.00000000000E+00 0. -1.
<scales pt_clust_3="111.77724" pt_clust_4="46.98089" pt_clust_5="46.98089" pt_clust_6="38.93986"></scales>
<clustering>
<clus scale="   38.940">  1  6  2 -1</clus>
<clus scale="   46.981">  4  5 -1 -1</clus>
<clus scale="  111.777">  1  3  2 -1</clus>
<clus scale="   38.940">  1  3  2 -1</clus>
</clustering>
</event>
<event>
 6    0  0.1463946E+003  0.1171433E+03  0.7546771E-02  0.1247886E+00
         21   -1    0    0  502  501  0.00000000000E+00  0.00000000000E+00  0.24869391740E+03  0.24869391740E+03  0.00000000000E+00 0. -1.
         21   -1    0    0  504  502 -0.00000000000E+00 -0.00000000000E+00 -0.16152522869E+03  0.16152522869E+03  0.00000000000E+00 0. -1.
         21    1    1    2  503  506 -0.86088139805E+02 -0.28812135882E+02  0.12161781535E+03  0.15176363200E+03  0.00000000000E+00 0. -1.
         21    1    1    2  504  503  0.11915612334E+03  0.33070935839E+02 -0.79922956155E+02  0.14723976177E+03  0.00000000000E+00 0. -1.
         21    1    1    2  505  501 -0.17464422907E+02  0.45459593995E+02  0.28428490653E+02  0.56389359231E+02  0.00000000000E+00 0. -1.
         21    1    1    2  506  505 -0.15603560625E+02 -0.49718393951E+02  0.17045338861E+02  0.54826393080E+02  0.00000000000E+00 0. -1.
<scales pt_clust_3="14000.00000" pt_clust_4="117.14325" pt_clust_5="48.69888" pt_clust_6="45.76939"></scales>
<clustering>
<clus scale="   48.699">  1  5  2 -1</clus>
<clus scale="   45.769">  1  6  2 -1</clus>
<clus scale="  117.143">  2  4  1 -1</clus>
<clus scale="   48.699">  1  3  2 -1</clus>
</clustering>
</event>
<event>
 6    0  0.1463946E+003  0.1036985E+03  0.7546771E-02  0.1272705E+00
         21   -1    0    0  504  501  0.00000000000E+00  0.00000000000E+00  0.52275144755E+03  0.52275144755E+03  0.00000000000E+00 0.  1.
         21   -1    0    0  506  502 -0.00000000000E+00 -0.00000000000E+00 -0.23022575737E+03  0.23022575737E+03  0.00000000000E+00 0. -1.
         21    1    1    2  503  501 -0.53506202417E+02  0.55401232272E+02  0.14285080682E+03  0.16229159942E+03  0.00000000000E+00 0.  1.
         21    1    1    2  504  505  0.93141115748E+02 -0.14514475158E+03  0.31982401641E+03  0.36335886920E+03  0.00000000000E+00 0.  1.
         21    1    1    2  505  502 -0.82362573852E+01  0.10617618120E+03 -0.15661315683E+03  0.18939086114E+03  0.00000000000E+00 0. -1.
         21    1    1    2  506  503 -0.31398655946E+02 -0.16432661886E+02 -0.13535976211E+02  0.37935875156E+02  0.00000000000E+00 0. -1.
<scales pt_clust_3="77.51269" pt_clust_4="103.69852" pt_clust_5="14000.00000" pt_clust_6="35.43879"></scales>
<clustering>
<clus scale="   35.439">  2  6  1 -1</clus>
<clus scale="   77.513">  1  3  2 -1</clus>
<clus scale="  103.699">  1  4  2 -1</clus>
<clus scale="   77.513">  1  3  2 -1</clus>
</clustering>
</event>
<event>
 6    0  0.1463946E+003  0.8005574E+02  0.7546771E-02  0.1328893E+00
         21   -1    0    0  505  501  0.00000000000E+00  0.00000000000E+00  0.42944012335E+03  0.42944012335E+03  0.00000000000E+00 0.  1.
         21   -1    0    0  504  502 -0.00000000000E+00 -0.00000000000E+00 -0.18143318329E+03  0.18143318329E+03  0.00000000000E+00 0.  1.
         21    1    1    2  503  501  0.51487380597E+02 -0.53890880837E+02  0.21693464619E+03  0.22938138136E+03  0.00000000000E+00 0.  1.
         21    1    1    2  504  503  0.49708014181E+02  0.56841799360E+02 -0.43128996275E+02  0.86959686913E+02  0.00000000000E+00 0.  1.
         21    1    1    2  505  506 -0.75323679449E+02 -0.30527175950E+02  0.17169648131E+03  0.18996117196E+03  0.00000000000E+00 0. -1.
         21    1    1    2  506  502 -0.25871715329E+02  0.27576257427E+02 -0.97495191167E+02  0.10457106640E+03  0.00000000000E+00 0.  1.
<scales pt_clust_3="71.60630" pt_clust_4="14000.00000" pt_clust_5="80.05574" pt_clust_6="37.81264"></scales>
<clustering>
<clus scale="   37.813">  2  6  1 -1</clus>
<clus scale="   71.606">  1  3  2 -1</clus>
<clus scale="   80.056">  1  5  2 -1</clus>
<clus scale="   71.606">  1  3  2 -1</clus>
</clustering>
</event>
<event>
 6    0  0.1463946E+003  0.7848057E+02  0.7546771E-02  0.1333419E+00
         21   -1    0    0  506  501  0.00000000000E+00  0.00000000000E+00  0.58915088870E+03  0.58915088870E+03  0.00000000000E+00 0.  1.
         21   -1    0    0  503  502 -0.00000000000E+00 -0.00000000000E+00 -0.35170918186E+03  0.35170918186E+03  0.00000000000E+00 0.  1.
         21    1    1    2  503  505 -0.29923905340E+02 -0.12177809073E+02 -0.18710015391E+03  0.18986891988E+03  0.00000000000E+00 0.  1.
         21    1    1    2  504  502  0.11124622506E+03  0.45785649968E+02 -0.45492945908E+01  0.12038581484E+03  0.00000000000E+00 0.  1.
         21    1    1    2  505  501 -0.29361596692E+02 -0.45925882159E+02 -0.91918696860E+02  0.10686597609E+03  0.00000000000E+00 0.  1.
         21    1    1    2  506  504 -0.51960723027E+02  0.12318041263E+02  0.52100985220E+03  0.52373935976E+03  0.00000000000E+00 0.  1.
<scales pt_clust_3="32.30695" pt_clust_4="78.48057" pt_clust_5="14000.00000" pt_clust_6="53.62105"></scales>
<clustering>
<clus scale="   32.307">  2  3  1 -1</clus>
<clus scale="   53.621">  1  6  2 -1</clus>
<clus scale="   78.481">  1  4  2 -1</clus>
<clus scale="   53.621">  1  3  2 -1</clus>
</clustering>
</event>
<event>
 6    0  0.1463946E+003  0.1561884E+03  0.7546771E-02  0.1193068E+00
         21   -1    0    0  505  501  0.00000000000E+00  0.00000000000E+00  0.14522707343E+03  0.14522707343E+03  0.00000000000E+00 0.  1.
         21   -1    0    0  506  502 -0.00000000000E+00 -0.00000000000E+00 -0.62128164135E+03  0.62128164135E+03  0.00000000000E+00 0.  1.
         21    1    1    2  503  501  0.88073660017E+02  0.92338116886E+02 -0.17936318258E+02  0.12886042423E+03  0.00000000000E+00 0.  1.
         21    1    1    2  504  502  0.43912847373E+02 -0.15877114684E+03 -0.21544234214E+03  0.27120475294E+03  0.00000000000E+00 0.  1.
         21    1    1    2  505  504 -0.12211079714E+01 -0.33567858340E+02  0.31884743432E+02  0.46313379082E+02  0.00000000000E+00 0.  1.
         21    1    1    2  506  503 -0.13076539942E+03  0.10000088829E+03 -0.27456065096E+03  0.32013015853E+03  0.00000000000E+00 0.  1.
<scales pt_clust_3="115.06244" pt_clust_4="156.18844" pt_clust_5="33.59006" pt_clust_6="14000.00000"></scales>
<clustering>
<clus scale="   33.590">  1  5  2 -1</clus>
<clus scale="  115.062">  1  3  2 -1</clus>
<clus scale="  156.188">  1  4  2 -1</clus>
<clus scale="   33.590">  1  3  2 -1</clus>
</clustering>
</event>
<event>
 6    0  0.1463946E+003  0.1870138E+03  0.7546771E-02  0.1161183E+00
         21   -1    0    0  503  501  0.00000000000E+00  0.00000000000E+00  0.51591386216E+03  0.51591386216E+03  0.00000000000E+00 0.  1.
         21   -1    0    0  506  502 -0.00000000000E+00 -0.00000000000E+00 -0.69684158689E+02  0.69684158689E+02  0.00000000000E+00 0.  1.
         21    1    1    2  503  502  0.32771366567E+02  0.15672230351E+03  0.91044755170E+02  0.18418737831E+03  0.00000000000E+00 0.  1.
         21    1    1    2  504  501  0.13519291899E+02 -0.82388965061E+02  0.22184501010E+03  0.23703569630E+03  0.00000000000E+00 0. -1.
         21    1    1    2  505  504 -0.18463190932E+02 -0.55177807543E+02  0.10598221907E+03  0.12090372461E+03  0.00000000000E+00 0.  1.
         21    1    1    2  506  505 -0.27827467534E+02 -0.19155530908E+02  0.27357719135E+02  0.43471221630E+02  0.00000000000E+00 0.  1.
<scales pt_clust_3="160.11197" pt_clust_4="75.55398" pt_clust_5="75.55398" pt_clust_6="30.20484"></scales>
<clustering>
<clus scale="   30.205">  5  6 -1 -1</clus>
<clus scale="   75.554">  4  5 -1 -1</clus>
<clus scale="  160.112">  2  3  1 -1</clus>
<clus scale="  187.014">  1  3  2 -1</clus>
</clustering>
</event>
<event>
 6    0  0.1463946E+003  0.9394791E+02  0.7546771E-02  0.1293563E+00
         21   -1    0    0  504  501  0.00000000000E+00  0.00000000000E+00  0.86061924675E+03  0.86061924675E+03  0.00000000000E+00 0.  1.
         21   -1    0    0  503  502 -0.00000000000E+00 -0.00000000000E+00 -0.12922345798E+04  0.12922345798E+04  0.00000000000E+00 0.  1.
         21    1    1    2  503  505 -0.85890126394E+00  0.11867816595E+03 -0.71258698627E+03  0.72240255937E+03  0.00000000000E+00 0.  1.
         21    1    1    2  504  506  0.73696669590E+01 -0.12270907073E+03 -0.23784466875E+03  0.26773478385E+03  0.00000000000E+00 0.  1.
         21    1    1    2  505  501  0.25084339197E+02  0.58257407077E+02  0.83649577426E+03  0.83889709137E+03  0.00000000000E+00 0.  1.
         21    1    1    2  506  502 -0.31595104892E+02 -0.54226502299E+02 -0.31767945231E+03  0.32381939199E+03  0.00000000000E+00 0.  1.
<scales pt_clust_3="14000.00000" pt_clust_4="93.94791" pt_clust_5="63.35131" pt_clust_6="62.75957"></scales>
<clustering>
<clus scale="   62.760">  2  6  1 -1</clus>
<clus scale="   63.351">  1  5  2 -1</clus>
<clus scale="   93.948">  1  4  2 -1</clus>
<clus scale="   63.351">  1  3  2 -1</clus>
</clustering>
</event>
<event>
 6    0  0.1463946E+003  0.6547677E+02  0.7546771E-02  0.1376187E+00
         21   -1    0    0  505  501  0.00000000000E+00  0.00000000000E+00  0.14461881543E+04  0.14461881543E+04  0.00000000000E+00 0.  1.
         21   -1    0    0  506  502 -0.00000000000E+00 -0.00000000000E+00 -0.21049390886E+03  0.21049390886E+03  0.00000000000E+00 0. -1.
         21    1    1    2  503  502 -0.34656477408E+02  0.32653141657E+01 -0.45638505184E+02  0.57398665998E+02  0.00000000000E+00 0. -1.
         21    1    1    2  504  501 -0.60922176730E+02 -0.55057296930E+01  0.17209460976E+03  0.18264276439E+03  0.00000000000E+00 0. -1.
         21    1    1    2  505  503  0.68305974282E+02 -0.59842719958E+02  0.12537373261E+04  0.12570219330E+04  0.00000000000E+00 0.  1.
         21    1    1    2  506  504  0.27272679855E+02  0.62083135485E+02 -0.14449918523E+03  0.15961869975E+03  0.00000000000E+00 0. -1.
<scales pt_clust_3="34.80997" pt_clust_4="62.30614" pt_clust_5="14000.00000" pt_clust_6="65.47677"></scales>
<clustering>
<clus scale="   34.810">  2  3  1 -1</clus>
<clus scale="   62.306">  1  4  2 -1</clus>
<clus scale="   65.477">  2  6  1 -1</clus>
<clus scale="   62.306">  1  3  2 -1</clus>
</clustering>
</event>
<event>
 6    0  0.1463946E+003  0.1861602E+03  0.7546771E-02  0.1161971E+00
         21   -1    0    0  504  501  0.00000000000E+00  0.00000000000E+00  0.10393064879E+03  0.10393064879E+03  0.00000000000E+00 0. -1.
         21   -1    0    0  506  502 -0.00000000000E+00 -0.00000000000E+00 -0.59636904734E+03  0.59636904734E+03  0.00000000000E+00 0. -1.
         21    1    1    2  503  502 -0.43085321754E+02  0.47600391653E+02 -0.74711106664E+02  0.98508333125E+02  0.00000000000E+00 0. -1.
         21    1    1    2  504  503  0.80405538423E+02  0.14293592892E+03 -0.23653121658E+03  0.28782415952E+03  0.00000000000E+00 0. -1.
         21    1    1    2  505  501 -0.79184561965E+02 -0.18417338411E+03 -0.10382088233E+03  0.22576272030E+03  0.00000000000E+00 0. -1.
         21    1    1    2  506  505  0.41864345296E+02 -0.63629364586E+01 -0.77375192969E+02  0.88204483188E+02  0.00000000000E+00 0. -1.
<scales pt_clust_3="58.84403" pt_clust_4="14000.00000" pt_clust_5="186.16024" pt_clust_6="42.34513"></scales>
<clustering>
<clus scale="   42.345">  2  6  1 -1</clus>
<clus scale="   58.844">  2  3  1 -1</clus>
<clus scale="  186.160">  1  5  2 -1</clus>
<clus scale="  186.160">  1  3  2 -1</clus>
</clustering>
</event>
<event>
 6    0  0.1463946E+003  0.2022831E+03  0.7546771E-02  0.1147827E+00
         21   -1    0    0  504  501  0.00000000000E+00  0.00000000000E+00  0.15850412933E+03  0.15850412933E+03  0.00000000000E+00 0. -1.
         21   -1    0    0  506  502 -0.00000000000E+00 -0.00000000000E+00 -0.21590331170E+04  0.21590331170E+04  0.00000000000E+00 0. -1.
         21    1    1    2  503  505 -0.97704146600E+02 -0.16525325452E+03 -0.12426155857E+04  0.12573576390E+04  0.00000000000E+00 0. -1.
         21    1    1    2  504  502  0.14181938271E+03  0.27368453438E+02 -0.15321809832E+03  0.21056484799E+03  0.00000000000E+00 0. -1.
         21    1    1    2  505  501 -0.67180089230E+02  0.17021630698E+03  0.53162108635E+02  0.19055961100E+03  0.00000000000E+00 0. -1.
         21    1    1    2  506  503  0.23064853119E+02 -0.32331505900E+02 -0.65785741225E+03  0.65905514836E+03  0.00000000000E+00 0. -1.
<scales pt_clust_3="202.28312" pt_clust_4="146.50401" pt_clust_5="14000.00000" pt_clust_6="39.71541"></scales>
<clustering>
<clus scale="   39.715">  2  6  1 -1</clus>
<clus scale="  146.504">  1  4  2 -1</clus>
<clus scale="  202.283">  2  3  1 -1</clus>
<clus scale="  146.504">  1  3  2 -1</clus>
</clustering>
</event>
<event>
 6    0  0.1463946E+003  0.1203522E+03  0.7546771E-02  0.1242517E+00
         21   -1    0    0  506  501  0.00000000000E+00  0.00000000000E+00  0.93069646359E+03  0.93069646359E+03  0.00000000000E+00 0. -1.
         21   -1    0    0  505  502 -0.00000000000E+00 -0.00000000000E+00 -0.35470567449E+03  0.35470567449E+03  0.00000000000E+00 0. -1.
         21    1    1    2  503  504 -0.97863544401E+02  0.42049932902E+02 -0.31502162201E+02  0.11107590379E+03  0.00000000000E+00 0.  1.
         21    1    1    2  504  502  0.86669615269E+02 -0.94346113512E+02 -0.26499429250E+03  0.29433787797E+03  0.00000000000E+00 0. -1.
         21    1    1    2  505  501 -0.23695874265E+02  0.40319864318E+02  0.76343554152E+03  0.76486666287E+03  0.00000000000E+00 0. -1.
         21    1    1    2  506  503  0.34889803398E+02  0.11976316291E+02  0.10905170228E+03  0.11512169345E+03  0.00000000000E+00 0.  1.
<scales pt_clust_3="14000.00000" pt_clust_4="120.35216" pt_clust_5="52.25821" pt_clust_6="36.88808"></scales>
<clustering>
<clus scale="   36.888">  1  6  2 -1</clus>
<clus scale="   52.258">  1  5  2 -1</clus>
<clus scale="  120.352">  2  4  1 -1</clus>
<clus scale="   36.888">  1  3  2 -1</clus>
</clustering>
</event>
<event>
 6    0  0.1463946E+003  0.1381547E+03  0.7546771E-02  0.1215834E+00
         21   -1    0    0  503  501  0.00000000000E+00  0.00000000000E+00  0.18665302942E+04  0.18665302942E+04  0.00000000000E+00 0. -1.
         21   -1    0    0  506  502 -0.00000000000E+00 -0.00000000000E+00 -0.93674938700E+02  0.93674938700E+02  0.00000000000E+00 0.  1.
         21    1    1    2  503  502 -0.30219871092E+02  0.15208814049E+03  0.52151531174E+03  0.54407928050E+03  0.00000000000E+00 0. -1.
         21    1    1    2  504  501 -0.23551465200E+00 -0.31017945477E+02  0.12776880469E+04  0.12780645185E+04  0.00000000000E+00 0. -1.
         21    1    1    2  505  504  0.20223350449E+02 -0.74332412405E+02  0.10399602628E+02  0.77733153623E+02  0.00000000000E+00 0.  1.
         21    1    1    2  506  505  0.10232035296E+02 -0.46737782606E+02 -0.36747605746E+02  0.60328280244E+02  0.00000000000E+00 0.  1.
<scales pt_clust_3="127.69302" pt_clust_4="31.01884" pt_clust_5="41.22931" pt_clust_6="41.22931"></scales>
<clustering>
<clus scale="   31.019">  1  4  2 -1</clus>
<clus scale="   41.229">  5  6 -1 -1</clus>
<clus scale="  127.693">  1  3  2 -1</clus>
<clus scale="   31.019">  1  3  2 -1</clus>
</clustering>
</event>
<event>
 6    0  0.1463946E+003  0.6538396E+02  0.7546771E-02  0.1376533E+00
         21   -1    0    0  504  501  0.00000000000E+00  0.00000000000E+00  0.88402211247E+02  0.88402211247E+02  0.00000000000E+00 0.  1.
         21   -1    0    0  505  502 -0.00000000000E+00 -0.00000000000E+00 -0.27661167964E+03  0.27661167964E+03  0.00000000000E+00 0.  1.
         21    1    1    2  503  506 -0.66633213662E+01  0.60092700282E+02 -0.42084436416E+02  0.73665679033E+02  0.00000000000E+00 0.  1.
         21    1    1    2  504  502 -0.43127412558E+02 -0.48282651482E+02  0.29988978213E+02  0.71347928928E+02  0.00000000000E+00 0.  1.
         21    1    1    2  505  503 -0.36577925995E+02 -0.24115932045E+02 -0.47838856959E+02  0.64869708521E+02  0.00000000000E+00 0.  1.
         21    1    1    2  506  501  0.86368659919E+02  0.12305883244E+02 -0.12827515323E+03  0.15513057440E+03  0.00000000000E+00 0.  1.
<scales pt_clust_3="56.16553" pt_clust_4="14000.00000" pt_clust_5="43.81236" pt_clust_6="65.38396"></scales>
<clustering>
<clus scale="   43.812">  2  5  1 -1</clus>
<clus scale="   56.166">  2  3  1 -1</clus>
<clus scale="   65.384">  2  6  1 -1</clus>
<clus scale="   65.384">  1  3  2 -1</clus>
</clustering>
</event>
<event>
 6    0  0.1463946E+003  0.1076173E+03  0.7546771E-02  0.1265047E+00
         21   -1    0    0  503  501  0.00000000000E+00  0.00000000000E+00  0.87732082153E+03  0.87732082153E+03  0.00000000000E+00 0.  1.
         21   -1    0    0  505  502 -0.00000000000E+00 -0.00000000000E+00 -0.12412383473E+03  0.12412383473E+03  0.00000000000E+00 0.  1.
         21    1    1    2  503  502  0.23009158023E+02  0.40260954752E+02  0.12756948037E+00  0.46372212632E+02  0.00000000000E+00 0.  1.
         21    1    1    2  504  506  0.29452412162E+02  0.34092797992E+02  0.80378355639E+02  0.92143602666E+02  0.00000000000E+00 0.  1.
         21    1    1    2  505  504  0.39176621496E+02  0.43333141678E+01 -0.86042689804E+02  0.94641057434E+02  0.00000000000E+00 0.  1.
         21    1    1    2  506  501 -0.91638191681E+02 -0.78687066912E+02  0.75873375148E+03  0.76828778352E+03  0.00000000000E+00 0.  1.
<scales pt_clust_3="107.61733" pt_clust_4="50.30084" pt_clust_5="39.41555" pt_clust_6="14000.00000"></scales>
<clustering>
<clus scale="   39.416">  2  5  1 -1</clus>
<clus scale="   50.301">  2  4  1 -1</clus>
<clus scale="  107.617">  2  3  1 -1</clus>
<clus scale="  107.617">  1  3  2 -1</clus>
</clustering>
</event>
<event>
 6    0  0.1463946E+003  0.1569329E+03  0.7546771E-02  0.1192204E+00
         21   -1    0    0  503  501  0.00000000000E+00  0.00000000000E+00  0.61866423615E+03  0.61866423615E+03  0.00000000000E+00 0. -1.
         21   -1    0    0  505  502 -0.00000000000E+00 -0.00000000000E+00 -0.34733493575E+03  0.34733493575E+03  0.00000000000E+00 0.  1.
         21    1    1    2  503  504 -0.94096581951E+02 -0.70711218700E+02  0.41333648749E+03  0.42976888565E+03  0.00000000000E+00 0. -1.
         21    1    1    2  504  502  0.48368380936E+02  0.30785851783E+01 -0.21206659559E+03  0.21753440861E+03  0.00000000000E+00 0.  1.
         21    1    1    2  505  506  0.11669078161E+03  0.41390757903E+02 -0.82240280670E+02  0.14863847791E+03  0.00000000000E+00 0. -1.
         21    1    1    2  506  501 -0.70962580592E+02  0.26241875618E+02  0.15229968918E+03  0.17005739973E+03  0.00000000000E+00 0.  1.
<scales pt_clust_3="14000.00000" pt_clust_4="48.46626" pt_clust_5="156.93291" pt_clust_6="72.70355"></scales>
<clustering>
<clus scale="   48.466">  2  4  1 -1</clus>
<clus scale="   72.704">  1  6  2 -1</clus>
<clus scale="  156.933">  2  5  1 -1</clus>
<clus scale="   72.704">  1  3  2 -1</clus>
</clustering>
</event>
<event>
 6    0  0.1463946E+003  0.8574394E+02  0.7546771E-02  0.1313498E+00
         21   -1    0    0  505  501  0.00000000000E+00  0.00000000000E+00  0.46050872213E+03  0.46050872213E+03  0.00000000000E+00 0. -1.
         21   -1    0    0  506  502 -0.00000000000E+00 -0.00000000000E+00 -0.64236998037E+03  0.64236998037E+03  0.00000000000E+00 0. -1.
         21    1    1    2  503  504  0.91055063101E+02  0.53346497587E+02 -0.15376242367E+03  0.18649331423E+03  0.00000000000E+00 0. -1.
         21    1    1    2  504  501 -0.95245500876E+02 -0.69987871486E+02  0.29640113151E+03  0.31909816413E+03  0.00000000000E+00 0. -1.
         21    1    1    2  505  502  0.37215686603E+02  0.10671016675E+02  0.13301923461E+03  0.13853878411E+03  0.00000000000E+00 0. -1.
         21    1    1    2  506  503 -0.33025248828E+02  0.59703572236E+01 -0.45751920069E+03  0.45874844002E+03  0.00000000000E+00 0. -1.
<scales pt_clust_3="14000.00000" pt_clust_4="85.74394" pt_clust_5="38.26510" pt_clust_6="33.56058"></scales>
<clustering>
<clus scale="   33.561">  2  6  1 -1</clus>
<clus scale="   38.265">  1  5  2 -1</clus>
<clus scale="   85.744">  1  4  2 -1</clus>
<clus scale="   38.265">  1  3  2 -1</clus>
</clustering>
</event>
<event>
 6    0  0.1463946E+003  0.8154377E+02  0.7546771E-02  0.1324727E+00
         21   -1    0    0  504  501  0.00000000000E+00  0.00000000000E+00  0.51222978291E+02  0.51222978291E+02  0.00000000000E+00 0. -1.
         21   -1    0    0  506  502 -0.00000000000E+00 -0.00000000000E+00 -0.84520182180E+03  0.84520182180E+03  0.00000000000E+00 0. -1.
         21    1    1    2  503  501  0.32442906391E+02  0.62401778478E+02 -0.84331834146E+02  0.10981066607E+03  0.00000000000E+00 0. -1.
         21    1    1    2  504  502  0.28893451752E+02 -0.60113467344E+02 -0.13420183363E+02  0.68033534611E+02  0.00000000000E+00 0. -1.
         21    1    1    2  505  503 -0.84300690289E+02  0.65173119441E+02 -0.41203568624E+03  0.42559082299E+03  0.00000000000E+00 0. -1.
         21    1    1    2  506  505  0.22964332146E+02 -0.67461430575E+02 -0.28419113976E+03  0.29298977642E+03  0.00000000000E+00 0. -1.
<scales pt_clust_3="56.66629" pt_clust_4="66.69678" pt_clust_5="14000.00000" pt_clust_6="81.54377"></scales>
<clustering>
<clus scale="   66.697">  1  4  2 -1</clus>
<clus scale="   56.666">  1  3  2 -1</clus>
<clus scale="   81.544">  2  6  1 -1</clus>
<clus scale="   66.697">  1  3  2 -1</clus>
</clustering>
</event>
<event>
 6    0  0.1463946E+003  0.1264923E+03  0.7546771E-02  0.1232755E+00
         21   -1    0    0  505  501  0.00000000000E+00  0.00000000000E+00  0.15945558381E+04  0.15945558381E+04  0.00000000000E+00 0. -1.
         21   -1    0    0  506  502 -0.00000000000E+00 -0.00000000000E+00 -0.93222531778E+02  0.93222531778E+02  0.00000000000E+00 0. -1.
         21    1    1    2  503  502 -0.33933627257E+02  0.91044973934E+01 -0.34010694167E+02  0.48898980044E+02  0.00000000000E+00 0. -1.
         21    1    1    2  504  503  0.52468562732E+02  0.12315888921E+03  0.48586356563E+02  0.14241381995E+03  0.00000000000E+00 0. -1.
         21    1    1    2  505  504 -0.96008340666E+01 -0.37569141284E+02  0.98556153528E+03  0.98632406247E+03  0.00000000000E+00 0. -1.
         21    1    1    2  506  501 -0.89341014080E+01 -0.94694245322E+02  0.50119610862E+03  0.51014150739E+03  0.00000000000E+00 0. -1.
<scales pt_clust_3="35.13379" pt_clust_4="126.49231" pt_clust_5="38.77427" pt_clust_6="14000.00000"></scales>
<clustering>
<clus scale="   35.134">  2  3  1 -1</clus>
<clus scale="   38.774">  1  5  2 -1</clus>
<clus scale="  126.492">  2  4  1 -1</clus>
<clus scale="   38.774">  1  3  2 -1</clus>
</clustering>
</event>
<event>
 6    0  0.1463946E+003  0.1184739E+03  0.7546771E-02  0.1245636E+00
         21   -1    0    0  504  501  0.00000000000E+00  0.00000000000E+00  0.22462605218E+03  0.22462605218E+03  0.00000000000E+00 0. -1.
         21   -1    0    0  505  502 -0.00000000000E+00 -0.00000000000E+00 -0.42645010870E+03  0.42645010870E+03  0.00000000000E+00 0.  1.
         21    1    1    2  503  501 -0.49253343089E+02  0.14029054076E+02  0.30190553332E+02  0.59448933331E+02  0.00000000000E+00 0. -1.
         21    1    1    2  504  502  0.87563723758E+02  0.22728625218E+02 -0.16518698189E+03  0.18833675985E+03  0.00000000000E+00 0.  1.
         21    1    1    2  505  506  0.34734997696E+02  0.17911502735E+02 -0.22084557033E+03  0.22427685554E+03  0.00000000000E+00 0.  1.
         21    1    1    2  506  503 -0.73045378365E+02 -0.54669182029E+02  0.15401794237E+03  0.17901361216E+03  0.00000000000E+00 0. -1.
<scales pt_clust_3="49.20492" pt_clust_4="14000.00000" pt_clust_5="39.08122" pt_clust_6="118.47395"></scales>
<clustering>
<clus scale="   39.081">  2  5  1 -1</clus>
<clus scale="   49.205">  1  3  2 -1</clus>
<clus scale="  118.474">  1  6  2 -1</clus>
<clus scale="   49.205">  1  3  2 -1</clus>
</clustering>
</event>
<event>
 6    0  0.1463946E+003  0.9712829E+02  0.7546771E-02  0.1286453E+00
         21   -1    0    0  506  501  0.00000000000E+00  0.00000000000E+00  0.38674211983E+03  0.38674211983E+03  0.00000000000E+00 0.  1.
         21   -1    0    0  505  502 -0.00000000000E+00 -0.00000000000E+00 -0.20100715567E+03  0.20100715567E+03  0.00000000000E+00 0.  1.
         21    1    1    2  503  502 -0.23357755519E+02  0.54708623091E+02 -0.51109063624E+02  0.78426746509E+02  0.00000000000E+00 0.  1.
         21    1    1    2  504  501  0.85376557705E+02 -0.36045238282E+02  0.22102500395E+03  0.23966741159E+03  0.00000000000E+00 0.  1.
         21    1    1    2  505  504  0.74330080303E+02  0.25621019766E+02 -0.67689453187E+02  0.10374613036E+03  0.00000000000E+00 0.  1.
         21    1    1    2  506  503 -0.13634888249E+03 -0.44284404575E+02  0.83508477023E+02  0.16590898704E+03  0.00000000000E+00 0.  1.
<scales pt_clust_3="59.48629" pt_clust_4="14000.00000" pt_clust_5="84.62431" pt_clust_6="97.12829"></scales>
<clustering>
<clus scale="   59.486">  2  3  1 -1</clus>
<clus scale="   84.624">  2  5  1 -1</clus>
<clus scale="   97.128">  2  6  1 -1</clus>
<clus scale="   97.128">  1  3  2 -1</clus>
</clustering>
</event>
<event>
 6    0  0.1463946E+003  0.7010179E+02  0.7546771E-02  0.1359747E+00
         21   -1    0    0  503  501  0.00000000000E+00  0.00000000000E+00  0.16355868927E+04  0.16355868927E+04  0.00000000000E+00 0.  1.
         21   -1    0    0  505  502 -0.00000000000E+00 -0.00000000000E+00 -0.76225842986E+02  0.76225842986E+02  0.00000000000E+00 0. -1.
         21    1    1    2  503  504  0.20435401546E+02 -0.22739610675E+02  0.14309775535E+03  0.14632724667E+03  0.00000000000E+00 0.  1.
         21    1    1    2  504  502 -0.16269669760E+02  0.64790287514E+02 -0.40992369799E+02  0.78376386061E+02  0.00000000000E+00 0. -1.
         21    1    1    2  505  506  0.41274331486E+01 -0.11180536433E+03  0.21058314704E+03  0.23845908877E+03  0.00000000000E+00 0.  1.
         21    1    1    2  506  501 -0.82931649339E+01  0.69754687486E+02  0.12466725171E+04  0.12486500142E+04  0.00000000000E+00 0.  1.
<scales pt_clust_3="30.57279" pt_clust_4="70.10179" pt_clust_5="14000.00000" pt_clust_6="51.48383"></scales>
<clustering>
<clus scale="   30.573">  1  3  2 -1</clus>
<clus scale="   51.484">  1  6  2 -1</clus>
<clus scale="   70.102">  2  4  1 -1</clus>
<clus scale="   30.573">  1  3  2 -1</clus>
</clustering>
</event>
<event>
 6    0  0.1463946E+003  0.7825581E+02  0.7546771E-02  0.1334075E+00
         21   -1    0    0  503  501  0.00000000000E+00  0.00000000000E+00  0.79546524676E+02  0.79546524676E+02  0.00000000000E+00 0. -1.
         21   -1    0    0  506  502 -0.00000000000E+00 -0.00000000000E+00 -0.24238982404E+04  0.24238982404E+04  0.00000000000E+00 0. -1.
         21    1    1    2  503  504 -0.98584815664E+02 -0.26413602099E+02  0.18643359212E+02  0.10375075469E+03  0.00000000000E+00 0. -1.
         21    1    1    2  504  502  0.43359209123E+02  0.98223839189E+02 -0.89956765068E+03  0.90595248317E+03  0.00000000000E+00 0.  1.
         21    1    1    2  505  501  0.35424908349E+02  0.22657214644E+00 -0.78971095740E+01  0.36295176072E+02  0.00000000000E+00 0.  1.
         21    1    1    2  506  505  0.19800698192E+02 -0.72036809237E+02 -0.14555303146E+04  0.14574463511E+04  0.00000000000E+00 0. -1.
<scales pt_clust_3="70.46250" pt_clust_4="78.25581" pt_clust_5="35.42563" pt_clust_6="14000.00000"></scales>
<clustering>
<clus scale="   35.426">  1  5  2 -1</clus>
<clus scale="   70.463">  1  3  2 -1</clus>
<clus scale="   78.256">  1  4  2 -1</clus>
<clus scale="   35.426">  1  3  2 -1</clus>
</clustering>
</event>
<event>
 6    0  0.1463946E+003  0.7397520E+02  0.7546771E-02  0.1347074E+00
         21   -1    0    0  503  501  0.00000000000E+00  0.00000000000E+00  0.17820777481E+03  0.17820777481E+03  0.00000000000E+00 0. -1.
         21   -1    0    0  505  502 -0.00000000000E+00 -0.00000000000E+00 -0.63182375764E+03  0.63182375764E+03  0.00000000000E+00 0. -1.
         21    1    1    2  503  506  0.18195346053E+02 -0.68868437405E+02  0.12086145496E+03  0.14029049712E+03  0.00000000000E+00 0. -1.
         21    1    1    2  504  501 -0.42517824107E+02  0.84353700876E+02 -0.32895788910E+02  0.10002722203E+03  0.00000000000E+00 0. -1.
         21    1    1    2  505  504  0.83222495973E+02  0.98974150722E+01 -0.45102373337E+03  0.45874431956E+03  0.00000000000E+00 0. -1.
         21    1    1    2  506  502 -0.58900017919E+02 -0.25382678543E+02 -0.90557915505E+02  0.11096949374E+03  0.00000000000E+00 0. -1.
<scales pt_clust_3="14000.00000" pt_clust_4="73.97520" pt_clust_5="34.84593" pt_clust_6="64.13651"></scales>
<clustering>
<clus scale="   64.137">  2  6  1 -1</clus>
<clus scale="   34.846">  2  5  1 -1</clus>
<clus scale="   73.975">  2  4  1 -1</clus>
<clus scale="   73.975">  1  3  2 -1</clus>
</clustering>
</event>
<event>
 6    0  0.1463946E+003  0.1571972E+03  0.7546771E-02  0.1191898E+00
         21   -1    0    0  503  501  0.00000000000E+00  0.00000000000E+00  0.33972587952E+02  0.33972587952E+02  0.00000000000E+00 0. -1.
         21   -1    0    0  506  502 -0.00000000000E+00 -0.00000000000E+00 -0.27343340090E+04  0.27343340090E+04  0.00000000000E+00 0. -1.
         21    1    1    2  503  504 -0.33726735350E+02  0.27622323007E+02 -0.80172995802E+02  0.91258942913E+02  0.00000000000E+00 0. -1.
         21    1    1    2  504  505 -0.11911423166E+03  0.48326680099E+02 -0.58168291923E+03  0.59571695185E+03  0.00000000000E+00 0. -1.
         21    1    1    2  505  502  0.25078913880E+02 -0.39687329383E+02 -0.18507865522E+04  0.18513818887E+04  0.00000000000E+00 0. -1.
         21    1    1    2  506  501  0.12776205313E+03 -0.36261673723E+02 -0.18771895381E+03  0.22994881348E+03  0.00000000000E+00 0. -1.
<scales pt_clust_3="40.15317" pt_clust_4="40.15317" pt_clust_5="46.94716" pt_clust_6="141.26907"></scales>
<clustering>
<clus scale="   40.153">  3  4 -1 -1</clus>
<clus scale="   46.947">  2  5  1 -1</clus>
<clus scale="  141.269">  1  6  2 -1</clus>
<clus scale="  141.269">  1  3  2 -1</clus>
</clustering>
</event>
<event>
 6    0  0.1463946E+003  0.1055723E+03  0.7546771E-02  0.1268996E+00
         21   -1    0    0  503  501  0.00000000000E+00  0.00000000000E+00  0.28521695397E+02  0.28521695397E+02  0.00000000000E+00 0.  1.
         21   -1    0    0  504  502 -0.00000000000E+00 -0.00000000000E+00 -0.10212804832E+04  0.10212804832E+04  0.00000000000E+00 0.  1.
         21    1    1    2  503  505  0.18265630485E+01  0.37817837964E+02 -0.89526393892E+02  0.97203397082E+02  0.00000000000E+00 0.  1.
         21    1    1    2  504  506 -0.67452380219E+02 -0.61802012595E+02 -0.30536530885E+03  0.31877466055E+03  0.00000000000E+00 0.  1.
         21    1    1    2  505  502  0.11696379998E+03  0.42965869755E+02 -0.53992635698E+03  0.55411827928E+03  0.00000000000E+00 0.  1.
         21    1    1    2  506  501 -0.51337982808E+02 -0.18981695124E+02 -0.57940728077E+02  0.79705841684E+02  0.00000000000E+00 0.  1.
<scales pt_clust_3="37.86192" pt_clust_4="105.57229" pt_clust_5="14000.00000" pt_clust_6="50.58536"></scales>
<clustering>
<clus scale="   37.862">  1  3  2 -1</clus>
<clus scale="   50.585">  1  6  2 -1</clus>
<clus scale="  105.572">  2  4  1 -1</clus>
<clus scale="   37.862">  1  3  2 -1</clus>
</clustering>
</event>
<event>
 6    0  0.1463946E+003  0.2543907E+03  0.7546771E-02  0.1110561E+00
         21   -1    0    0  503  501  0.00000000000E+00  0.00000000000E+00  0.25195411138E+03  0.25195411138E+03  0.00000000000E+00 0.  1.
         21   -1    0    0  504  502 -0.00000000000E+00 -0.00000000000E+00 -0.15001144742E+04  0.15001144742E+04  0.00000000000E+00 0. -1.
         21    1    1    2  503  505  0.13333478995E+03 -0.22004434843E+03  0.52983208131E+02  0.26268784104E+03  0.00000000000E+00 0.  1.
         21    1    1    2  504  506 -0.92515301691E+02  0.20602853439E+03 -0.13273952856E+04  0.13464713448E+04  0.00000000000E+00 0. -1.
         21    1    1    2  505  502 -0.64460299499E+01  0.31101621962E+02 -0.49022467336E+02  0.58412879526E+02  0.00000000000E+00 0. -1.
         21    1    1    2  506  501 -0.34373458306E+02 -0.17085807926E+02  0.75274181959E+02  0.84496520271E+02  0.00000000000E+00 0.  1.
<scales pt_clust_3="14000.00000" pt_clust_4="254.39072" pt_clust_5="31.76259" pt_clust_6="38.36006"></scales>
<clustering>
<clus scale="   31.763">  2  5  1 -1</clus>
<clus scale="   38.360">  1  6  2 -1</clus>
<clus scale="  254.391">  2  4  1 -1</clus>
<clus scale="   38.360">  1  3  2 -1</clus>
</clustering>
</event>
<event>
 6    0  0.1463946E+003  0.1535252E+03  0.7546771E-02  0.1196207E+00
         21   -1    0    0  506  501  0.00000000000E+00  0.00000000000E+00  0.79015700275E+03  0.79015700275E+03  0.00000000000E+00 0. -1.
         21   -1    0    0  504  502 -0.00000000000E+00 -0.00000000000E+00 -0.38223425711E+02  0.38223425711E+02  0.00000000000E+00 0. -1.
         21    1    1    2  503  505 -0.41360069052E+02  0.82674013683E+02  0.34623800595E+03  0.35836629949E+03  0.00000000000E+00 0. -1.
         21    1    1    2  504  501  0.80966255924E+02 -0.12500736353E+03  0.22372970759E+03  0.26877008315E+03  0.00000000000E+00 0. -1.
         21    1    1    2  505  502  0.12791749822E+02  0.27648861019E+02  0.50744500491E+02  0.59186930223E+02  0.00000000000E+00 0. -1.
         21    1    1    2  506  503 -0.52397936694E+02  0.14684488832E+02  0.13122136300E+03  0.14205711559E+03  0.00000000000E+00 0. -1.
<scales pt_clust_3="48.48392" pt_clust_4="139.22312" pt_clust_5="30.46454" pt_clust_6="48.48392"></scales>
<clustering>
<clus scale="   30.465">  2  5  1 -1</clus>
<clus scale="   48.484">  3  6 -1 -1</clus>
<clus scale="  139.223">  2  4  1 -1</clus>
<clus scale="  153.525">  1  3  2 -1</clus>
</clustering>
</event>
<event>
 6    0  0.1463946E+003  0.8531366E+02  0.7546771E-02  0.1314614E+00
         21   -1    0    0  506  501  0.00000000000E+00  0.00000000000E+00  0.30308197036E+03  0.30308197036E+03  0.00000000000E+00 0.  1.
         21   -1    0    0  505  502 -0.00000000000E+00 -0.00000000000E+00 -0.45289269773E+03  0.45289269773E+03  0.00000000000E+00 0.  1.
         21    1    1    2  503  501  0.76439052878E+02 -0.26274183644E+01  0.18756038494E+03  0.20255549889E+03  0.00000000000E+00 0.  1.
         21    1    1    2  504  502 -0.15333176737E+03 -0.20416809861E+02 -0.35823046419E+03  0.39020064388E+03  0.00000000000E+00 0.  1.
         21    1    1    2  505  503  0.79424017510E+02 -0.23521923623E+02 -0.35453770440E+02  0.90102304559E+02  0.00000000000E+00 0.  1.
         21    1    1    2  506  504 -0.25313030161E+01  0.46566151848E+02  0.56313122314E+02  0.73116220756E+02  0.00000000000E+00 0.  1.
<scales pt_clust_3="85.31366" pt_clust_4="14000.00000" pt_clust_5="81.19621" pt_clust_6="46.63490"></scales>
<clustering>
<clus scale="   46.635">  1  6  2 -1</clus>
<clus scale="   81.196">  2  5  1 -1</clus>
<clus scale="   85.314">  1  3  2 -1</clus>
<clus scale="   46.635">  1  3  2 -1</clus>
</clustering>
</event>
<event>
 6    0  0.1463946E+003  0.8181223E+02  0.7546771E-02  0.1323986E+00
         21   -1    0    0  503  501  0.00000000000E+00  0.00000000000E+00  0.10191053636E+04  0.10191053636E+04  0.00000000000E+00 0.  1.
         21   -1    0    0  504  502 -0.00000000000E+00 -0.00000000000E+00 -0.22554460965E+03  0.22554460965E+03  0.00000000000E+00 0.  1.
         21    1    1    2  503  505 -0.73790308659E+02 -0.17108174552E+02  0.16786911103E+02  0.77585434670E+02  0.00000000000E+00 0.  1.
         21    1    1    2  504  506  0.10045226002E+03  0.41528157928E+02  0.62106356159E+03  0.63050391908E+03  0.00000000000E+00 0.  1.
         21    1    1    2  505  502  0.35084920817E+02 -0.52173468137E+01 -0.18571183462E+03  0.18906892366E+03  0.00000000000E+00 0.  1.
         21    1    1    2  506  501 -0.61746872174E+02 -0.19202636562E+02  0.34142211591E+03  0.34749169588E+03  0.00000000000E+00 0.  1.
<scales pt_clust_3="50.52909" pt_clust_4="81.81223" pt_clust_5="35.47073" pt_clust_6="14000.00000"></scales>
<clustering>
<clus scale="   35.471">  2  5  1 -1</clus>
<clus scale="   50.529">  2  3  1 -1</clus>
<clus scale="   81.812">  2  4  1 -1</clus>
<clus scale="   81.812">  1  3  2 -1</clus>
</clustering>
</event>
<event>
 6    0  0.1463946E+003  0.5921988E+02  0.7546771E-02  0.1401135E+00
         21   -1    0    0  504  501  0.00000000000E+00  0.00000000000E+00  0.25599985609E+03  0.25599985609E+03  0.00000000000E+00 0. -1.
         21   -1    0    0  503  502 -0.00000000000E+00 -0.00000000000E+00 -0.15807529966E+03  0.15807529966E+03  0.00000000000E+00 0.  1.
         21    1    1    2  503  501 -0.10110900812E+03 -0.30913886861E+02  0.49144830053E+02  0.11659294252E+03  0.00000000000E+00 0. -1.
         21    1    1    2  504  505  0.22664542518E+02 -0.33900665602E+02  0.13942910651E+03  0.14527013581E+03  0.00000000000E+00 0. -1.
         21    1    1    2  505  506  0.44301006480E+02  0.20120191869E+02 -0.38824270234E+01  0.48810598599E+02  0.00000000000E+00 0.  1.
         21    1    1    2  506  502  0.34143459121E+02  0.44694360594E+02 -0.86766953119E+02  0.10340147883E+03  0.00000000000E+00 0.  1.
<scales pt_clust_3="59.21988" pt_clust_4="40.77912" pt_clust_5="50.59302" pt_clust_6="14000.00000"></scales>
<clustering>
<clus scale="   40.779">  1  4  2 -1</clus>
<clus scale="   50.593">  1  5  2 -1</clus>
<clus scale="   59.220">  1  3  2 -1</clus>
<clus scale="   40.779">  1  3  2 -1</clus>
</clustering>
</event>
<event>
 6    0  0.1463946E+003  0.7626668E+02  0.7546771E-02  0.1339993E+00
         21   -1    0    0  504  501  0.00000000000E+00  0.00000000000E+00  0.40469572273E+03  0.40469572273E+03  0.00000000000E+00 0. -1.
         21   -1    0    0  506  502 -0.00000000000E+00 -0.00000000000E+00 -0.85359461386E+02  0.85359461386E+02  0.00000000000E+00 0.  1.
         21    1    1    2  503  502 -0.48420994970E+02 -0.41027073793E+02  0.17487183017E+02  0.65830199056E+02  0.00000000000E+00 0. -1.
         21    1    1    2  504  503  0.37997324829E+01 -0.34641855078E+02  0.73722129118E+02  0.81544150077E+02  0.00000000000E+00 0. -1.
         21    1    1    2  505  501  0.61534458038E+02 -0.18113430804E+02  0.23835770505E+03  0.24683796600E+03  0.00000000000E+00 0. -1.
         21    1    1    2  506  505 -0.16913195551E+02  0.93782359675E+02 -0.10230755841E+02  0.95842868983E+02  0.00000000000E+00 0.  1.
<scales pt_clust_3="66.05077" pt_clust_4="34.84962" pt_clust_5="76.26668" pt_clust_6="14000.00000"></scales>
<clustering>
<clus scale="   34.850">  1  4  2 -1</clus>
<clus scale="   66.051">  2  3  1 -1</clus>
<clus scale="   76.267">  1  5  2 -1</clus>
<clus scale="   34.850">  1  3  2 -1</clus>
</clustering>
</event>
<event>
 6    0  0.1725015E+003  0.8797002E+02  0.7546771E-02  0.1307843E+00
         21   -1    0    0  503  501  0.00000000000E+00  0.00000000000E+00  0.13771921459E+04  0.13771921459E+04  0.00000000000E+00 0.  1.
         21   -1    0    0  504  502 -0.00000000000E+00 -0.00000000000E+00 -0.23463375668E+03  0.23463375668E+03  0.00000000000E+00 0.  1.
         21    1    1    2  503  502  0.29313392178E+02 -0.63648556526E+02  0.12811084993E+02  0.71235788811E+02  0.00000000000E+00 0. -1.
         21    1    1    2  504  505  0.33976255549E+02  0.60027233711E+02 -0.14373786377E+03  0.15943095123E+03  0.00000000000E+00 0.  1.
         21    1    1    2  505  506 -0.68683447831E+00  0.44910887381E+02 -0.43212263221E+02  0.62327836796E+02  0.00000000000E+00 0.  1.
         21    1    1    2  506  501 -0.62602813249E+02 -0.41289564566E+02  0.13166974312E+04  0.13188313257E+04  0.00000000000E+00 0.  1.
<scales pt_clust_3="70.07434" pt_clust_4="37.03608" pt_clust_5="37.03608" pt_clust_6="75.04871"></scales>
<clustering>
<clus scale="   37.036">  4  5 -1 -1</clus>
<clus scale="   70.074">  2  3  1 -1</clus>
<clus scale="   75.049">  1  6  2 -1</clus>
<clus scale="   75.049">  1  3  2 -1</clus>
</clustering>
</event>
<event>
 6    0  0.1463946E+003  0.8804116E+02  0.7546771E-02  0.1307666E+00
         21   -1    0    0  504  501  0.00000000000E+00  0.00000000000E+00  0.15202260930E+03  0.15202260930E+03  0.00000000000E+00 0.  1.
         21   -1    0    0  505  502 -0.00000000000E+00 -0.00000000000E+00 -0.25121478981E+03  0.25121478981E+03  0.00000000000E+00 0. -1.
         21    1    1    2  503  506  0.31758312271E+02  0.75825086073E+02 -0.30002296765E+01  0.82261992769E+02  0.00000000000E+00 0.  1.
         21    1    1    2  504  503 -0.30431698811E+02 -0.23964088157E+02  0.34696152334E+02  0.52001815357E+02  0.00000000000E+00 0. -1.
         21    1    1    2  505  501 -0.77563958858E+02  0.32762767853E+02 -0.13022098012E+03  0.15507117828E+03  0.00000000000E+00 0. -1.
         21    1    1    2  506  502  0.76237345398E+02 -0.84623765769E+02 -0.66712304946E+00  0.11390241270E+03  0.00000000000E+00 0.  1.
<scales pt_clust_3="70.19528" pt_clust_4="38.73456" pt_clust_5="88.04116" pt_clust_6="14000.00000"></scales>
<clustering>
<clus scale="   38.735">  1  4  2 -1</clus>
<clus scale="   70.195">  1  3  2 -1</clus>
<clus scale="   88.041">  2  5  1 -1</clus>
<clus scale="   38.735">  1  3  2 -1</clus>
</clustering>
</event>
<event>
 6    0  0.1463946E+003  0.1666962E+03  0.7546771E-02  0.1181338E+00
         21   -1    0    0  506  501  0.00000000000E+00  0.00000000000E+00  0.55791389509E+03  0.55791389509E+03  0.00000000000E+00 0. -1.
         21   -1    0    0  503  502 -0.00000000000E+00 -0.00000000000E+00 -0.10722365807E+03  0.10722365807E+03  0.00000000000E+00 0. -1.
         21    1    1    2  503  505  0.15832668197E+02  0.19173626272E+03  0.20432282512E+03  0.28064440969E+03  0.00000000000E+00 0. -1.
         21    1    1    2  504  502 -0.30679011644E+02 -0.15311568726E+03  0.43515569182E+02  0.16210866788E+03  0.00000000000E+00 0. -1.
         21    1    1    2  505  501 -0.30101143474E+02  0.18139324156E+01  0.56677820688E+02  0.64200814225E+02  0.00000000000E+00 0. -1.
         21    1    1    2  506  504  0.44947486921E+02 -0.40434507878E+02  0.14617402203E+03  0.15818366137E+03  0.00000000000E+00 0. -1.
<scales pt_clust_3="166.69615" pt_clust_4="14000.00000" pt_clust_5="30.15575" pt_clust_6="53.55085"></scales>
<clustering>
<clus scale="   30.156">  1  5  2 -1</clus>
<clus scale="   53.551">  1  6  2 -1</clus>
<clus scale="  166.696">  1  3  2 -1</clus>
<clus scale="   30.156">  1  3  2 -1</clus>
</clustering>
</event>
<event>
 6    0  0.1463946E+003  0.1371911E+03  0.7546771E-02  0.1217159E+00
         21   -1    0    0  504  501  0.00000000000E+00  0.00000000000E+00  0.78754313936E+03  0.78754313936E+03  0.00000000000E+00 0. -1.
         21   -1    0    0  506  502 -0.00000000000E+00 -0.00000000000E+00 -0.34641313759E+03  0.34641313759E+03  0.00000000000E+00 0. -1.
         21    1    1    2  503  505  0.16777869911E+03  0.73939284584E+02  0.49283495334E+03  0.52583552648E+03  0.00000000000E+00 0. -1.
         21    1    1    2  504  502 -0.62587754769E+02  0.19870550346E+01 -0.27016517945E+03  0.27732724284E+03  0.00000000000E+00 0. -1.
         21    1    1    2  505  501 -0.97706647357E+02 -0.44254129521E+02  0.25810287123E+03  0.27950332566E+03  0.00000000000E+00 0. -1.
         21    1    1    2  506  503 -0.74842969851E+01 -0.31672210097E+02 -0.39642643357E+02  0.51290181967E+02  0.00000000000E+00 0. -1.
<scales pt_clust_3="137.19108" pt_clust_4="74.39890" pt_clust_5="14000.00000" pt_clust_6="32.54449"></scales>
<clustering>
<clus scale="   32.544">  2  6  1 -1</clus>
<clus scale="   74.399">  2  4  1 -1</clus>
<clus scale="  137.191">  2  3  1 -1</clus>
<clus scale="  137.191">  1  3  2 -1</clus>
</clustering>
</event>
<event>
 6    0  0.1463946E+003  0.7469817E+02  0.7546771E-02  0.1344808E+00
         21   -1    0    0  505  501  0.00000000000E+00  0.00000000000E+00  0.14087977779E+02  0.14087977779E+02  0.00000000000E+00 0.  1.
         21   -1    0    0  506  502 -0.00000000000E+00 -0.00000000000E+00 -0.27002729051E+04  0.27002729051E+04  0.00000000000E+00 0.  1.
         21    1    1    2  503  504 -0.80226538224E+02  0.30083744865E+02 -0.21725186841E+03  0.23353737060E+03  0.00000000000E+00 0.  1.
         21    1    1    2  504  501  0.11828670854E+02 -0.33166136889E+02 -0.98315147806E+02  0.10443073484E+03  0.00000000000E+00 0.  1.
         21    1    1    2  505  502  0.84137211835E+02  0.52880843495E+02 -0.10364854380E+04  0.10412384536E+04  0.00000000000E+00 0.  1.
         21    1    1    2  506  503 -0.15739344465E+02 -0.49798451472E+02 -0.13341324731E+04  0.13351543238E+04  0.00000000000E+00 0.  1.
<scales pt_clust_3="74.69817" pt_clust_4="35.21236" pt_clust_5="14000.00000" pt_clust_6="53.53535"></scales>
<clustering>
<clus scale="   35.212">  1  4  2 -1</clus>
<clus scale="   53.535">  2  6  1 -1</clus>
<clus scale="   74.698">  1  3  2 -1</clus>
<clus scale="   35.212">  1  3  2 -1</clus>
</clustering>
</event>
<event>
 6    0  0.1463946E+003  0.7532248E+02  0.7546771E-02  0.1342875E+00
         21   -1    0    0  503  501  0.00000000000E+00  0.00000000000E+00  0.78187640115E+03  0.78187640115E+03  0.00000000000E+00 0. -1.
         21   -1    0    0  504  502 -0.00000000000E+00 -0.00000000000E+00 -0.19683633803E+03  0.19683633803E+03  0.00000000000E+00 0. -1.
         21    1    1    2  503  505 -0.46316432854E+01 -0.67291095043E+02  0.11825236487E+03  0.13613656889E+03  0.00000000000E+00 0.  1.
         21    1    1    2  504  506  0.31253911674E+02  0.86830730604E+02  0.17046371007E+03  0.19384080897E+03  0.00000000000E+00 0. -1.
         21    1    1    2  505  502 -0.67822566725E+02 -0.33546234883E+02 -0.16701595461E+03  0.18335642756E+03  0.00000000000E+00 0. -1.
         21    1    1    2  506  501  0.41200298336E+02  0.14006599323E+02  0.46333994279E+03  0.46537893376E+03  0.00000000000E+00 0. -1.
<scales pt_clust_3="62.81248" pt_clust_4="75.32248" pt_clust_5="14000.00000" pt_clust_6="43.51608"></scales>
<clustering>
<clus scale="   43.516">  1  6  2 -1</clus>
<clus scale="   62.812">  1  3  2 -1</clus>
<clus scale="   75.322">  1  4  2 -1</clus>
<clus scale="   43.516">  1  3  2 -1</clus>
</clustering>
</event>
<event>
 6    0  0.1463946E+003  0.1744878E+03  0.7546771E-02  0.1173247E+00
         21   -1    0    0  504  501  0.00000000000E+00  0.00000000000E+00  0.12171579779E+03  0.12171579779E+03  0.00000000000E+00 0.  1.
         21   -1    0    0  506  502 -0.00000000000E+00 -0.00000000000E+00 -0.17376117263E+04  0.17376117263E+04  0.00000000000E+00 0.  1.
         21    1    1    2  503  505  0.17391446112E+03 -0.99365913870E+02 -0.25796668501E+03  0.32659858420E+03  0.00000000000E+00 0. -1.
         21    1    1    2  504  503  0.12238374075E+02  0.39953321992E+02  0.41586993648E+02  0.58953573079E+02  0.00000000000E+00 0.  1.
         21    1    1    2  505  502 -0.27771203148E+02  0.28652241301E+02 -0.12595546635E+04  0.12601865501E+04  0.00000000000E+00 0.  1.
         21    1    1    2  506  501 -0.15838163205E+03  0.30760350577E+02 -0.13996157366E+03  0.21358881675E+03  0.00000000000E+00 0.  1.
<scales pt_clust_3="174.48777" pt_clust_4="42.14060" pt_clust_5="39.90226" pt_clust_6="14000.00000"></scales>
<clustering>
<clus scale="   39.902">  2  5  1 -1</clus>
<clus scale="   42.141">  1  4  2 -1</clus>
<clus scale="  174.488">  2  3  1 -1</clus>
<clus scale="   42.141">  1  3  2 -1</clus>
</clustering>
</event>
<event>
 6    0  0.1463946E+003  0.1449672E+03  0.7546771E-02  0.1206797E+00
         21   -1    0    0  506  501  0.00000000000E+00  0.00000000000E+00  0.39203185613E+03  0.39203185613E+03  0.00000000000E+00 0.  1.
         21   -1    0    0  503  502 -0.00000000000E+00 -0.00000000000E+00 -0.13553720041E+04  0.13553720041E+04  0.00000000000E+00 0. -1.
         21    1    1    2  503  504  0.11180758364E+03  0.74637536438E+02 -0.12536529277E+04  0.12608399425E+04  0.00000000000E+00 0. -1.
         21    1    1    2  504  501 -0.10247125074E+03  0.58222651658E+02 -0.41320328066E+02  0.12489036754E+03  0.00000000000E+00 0.  1.
         21    1    1    2  505  502  0.32413383407E+01 -0.95684065317E+02  0.16766307157E+03  0.19307214247E+03  0.00000000000E+00 0.  1.
         21    1    1    2  506  505 -0.12577671241E+02 -0.37176122779E+02  0.16397003618E+03  0.16860140771E+03  0.00000000000E+00 0.  1.
<scales pt_clust_3="133.89262" pt_clust_4="117.85684" pt_clust_5="35.58033" pt_clust_6="35.58033"></scales>
<clustering>
<clus scale="   35.580">  5  6 -1 -1</clus>
<clus scale="  117.857">  1  4  2 -1</clus>
<clus scale="  133.893">  2  3  1 -1</clus>
<clus scale="  117.857">  1  3  2 -1</clus>
</clustering>
</event>
<event>
 6    0  0.1463946E+003  0.1215645E+03  0.7546771E-02  0.1240538E+00
         21   -1    0    0  505  501  0.00000000000E+00  0.00000000000E+00  0.10091261317E+03  0.10091261317E+03  0.00000000000E+00 0. -1.
         21   -1    0    0  504  502 -0.00000000000E+00 -0.00000000000E+00 -0.77722300093E+03  0.77722300093E+03  0.00000000000E+00 0. -1.
         21    1    1    2  503  502 -0.64932412801E+02 -0.11465095919E+03 -0.38494845984E+03  0.40687390849E+03  0.00000000000E+00 0. -1.
         21    1    1    2  504  506  0.36134851518E+02  0.34453046404E+01 -0.27665711715E+03  0.27902823887E+03  0.00000000000E+00 0.  1.
         21    1    1    2  505  503 -0.33726019801E+02 -0.24145139634E+02 -0.11749517686E+02  0.43110130427E+02  0.00000000000E+00 0.  1.
         21    1    1    2  506  501  0.62523581083E+02  0.13535079419E+03 -0.29552930848E+01  0.14912333632E+03  0.00000000000E+00 0. -1.
<scales pt_clust_3="121.56454" pt_clust_4="36.29873" pt_clust_5="39.76669" pt_clust_6="14000.00000"></scales>
<clustering>
<clus scale="   36.299">  2  4  1 -1</clus>
<clus scale="   39.767">  1  5  2 -1</clus>
<clus scale="  121.565">  2  3  1 -1</clus>
<clus scale="   39.767">  1  3  2 -1</clus>
</clustering>
</event>
<event>
 6    0  0.1463946E+003  0.1649882E+03  0.7546771E-02  0.1183177E+00
         21   -1    0    0  506  501  0.00000000000E+00  0.00000000000E+00  0.20264557470E+03  0.20264557470E+03  0.00000000000E+00 0. -1.
         21   -1    0    0  503  502 -0.00000000000E+00 -0.00000000000E+00 -0.45660798087E+03  0.45660798087E+03  0.00000000000E+00 0. -1.
         21    1    1    2  503  505  0.10103126183E+03 -0.15772435227E+01 -0.27771485534E+03  0.29552553940E+03  0.00000000000E+00 0. -1.
         21    1    1    2  504  501 -0.70137340738E+01 -0.38635511526E+02  0.83373740423E+02  0.92157885222E+02  0.00000000000E+00 0. -1.
         21    1    1    2  505  504  0.57636757283E+02 -0.13212359048E+02 -0.90243195825E+02  0.10789066973E+03  0.00000000000E+00 0. -1.
         21    1    1    2  506  502 -0.15165428504E+03  0.53425114097E+02  0.30621904563E+02  0.16367946122E+03  0.00000000000E+00 0. -1.
<scales pt_clust_3="33.84369" pt_clust_4="39.26697" pt_clust_5="33.84369" pt_clust_6="158.94614"></scales>
<clustering>
<clus scale="   33.844">  3  5 -1 -1</clus>
<clus scale="   39.267">  1  4  2 -1</clus>
<clus scale="  158.946">  1  6  2 -1</clus>
<clus scale="   39.267">  1  3  2 -1</clus>
</clustering>
</event>
<event>
 6    0  0.1463946E+003  0.1219035E+03  0.7546771E-02  0.1239990E+00
         21   -1    0    0  503  501  0.00000000000E+00  0.00000000000E+00  0.21196818758E+03  0.21196818758E+03  0.00000000000E+00 0.  1.
         21   -1    0    0  505  502 -0.00000000000E+00 -0.00000000000E+00 -0.44502990553E+03  0.44502990553E+03  0.00000000000E+00 0.  1.
         21    1    1    2  503  504 -0.37166681929E+02  0.86199199009E+02 -0.65879663762E+02  0.11468127246E+03  0.00000000000E+00 0.  1.
         21    1    1    2  504  502 -0.46000083778E+02  0.27198353431E+02 -0.31797823452E+03  0.32243746024E+03  0.00000000000E+00 0.  1.
         21    1    1    2  505  506  0.44910458514E+02 -0.11284220430E+03  0.10865615489E+03  0.16296156710E+03  0.00000000000E+00 0.  1.
         21    1    1    2  506  501  0.38256307193E+02 -0.55534814054E+00  0.42140025435E+02  0.56917793310E+02  0.00000000000E+00 0.  1.
<scales pt_clust_3="121.90347" pt_clust_4="52.98405" pt_clust_5="14000.00000" pt_clust_6="38.26034"></scales>
<clustering>
<clus scale="   38.260">  1  6  2 -1</clus>
<clus scale="   52.984">  2  4  1 -1</clus>
<clus scale="  121.903">  2  3  1 -1</clus>
<clus scale="   38.260">  1  3  2 -1</clus>
</clustering>
</event>
<event>
 6    0  0.1463946E+003  0.9987039E+02  0.7546771E-02  0.1280569E+00
         21   -1    0    0  503  501  0.00000000000E+00  0.00000000000E+00  0.23957334295E+03  0.23957334295E+03  0.00000000000E+00 0. -1.
         21   -1    0    0  506  502 -0.00000000000E+00 -0.00000000000E+00 -0.15455736685E+03  0.15455736685E+03  0.00000000000E+00 0.  1.
         21    1    1    2  503  505 -0.10362626807E+02 -0.32828008698E+02  0.20221749320E+02  0.39924695803E+02  0.00000000000E+00 0.  1.
         21    1    1    2  504  501  0.39111489701E+02  0.74217380960E+01  0.12134136604E+03  0.12770480780E+03  0.00000000000E+00 0. -1.
         21    1    1    2  505  502  0.55014636143E+02  0.83646359662E+02  0.15903703803E+02  0.10137184752E+03  0.00000000000E+00 0. -1.
         21    1    1    2  506  504 -0.83763499036E+02 -0.58240089060E+02 -0.72450843063E+02  0.12512935869E+03  0.00000000000E+00 0.  1.
<scales pt_clust_3="34.42473" pt_clust_4="35.10023" pt_clust_5="99.87039" pt_clust_6="14000.00000"></scales>
<clustering>
<clus scale="   34.425">  1  3  2 -1</clus>
<clus scale="   35.100">  1  4  2 -1</clus>
<clus scale="   99.870">  1  5  2 -1</clus>
<clus scale="   34.425">  1  3  2 -1</clus>
</clustering>
</event>
<event>
 6    0  0.1463946E+003  0.9478367E+02  0.7546771E-02  0.1291664E+00
         21   -1    0    0  503  501  0.00000000000E+00  0.00000000000E+00  0.43799585107E+03  0.43799585107E+03  0.00000000000E+00 0.  1.
         21   -1    0    0  504  502 -0.00000000000E+00 -0.00000000000E+00 -0.30381322331E+04  0.30381322331E+04  0.00000000000E+00 0.  1.
         21    1    1    2  503  506 -0.27522366201E+02 -0.25875067027E+02 -0.93737431777E+02  0.10106288068E+03  0.00000000000E+00 0. -1.
         21    1    1    2  504  505 -0.63782228770E+02 -0.61479232498E+02 -0.18803437186E+04  0.18824293796E+04  0.00000000000E+00 0.  1.
         21    1    1    2  505  501  0.75602165074E+02  0.57199865123E+02  0.42782727667E+03  0.43820507824E+03  0.00000000000E+00 0.  1.
         21    1    1    2  506  502  0.15702429897E+02  0.30154434401E+02 -0.10538825083E+04  0.10544307457E+04  0.00000000000E+00 0. -1.
<scales pt_clust_3="36.20417" pt_clust_4="94.78367" pt_clust_5="14000.00000" pt_clust_6="33.99789"></scales>
<clustering>
<clus scale="   33.998">  2  6  1 -1</clus>
<clus scale="   36.204">  2  3  1 -1</clus>
<clus scale="   94.784">  2  4  1 -1</clus>
<clus scale="   94.784">  1  3  2 -1</clus>
</clustering>
</event>
<event>
 6    0  0.1463946E+003  0.1111300E+03  0.7546771E-02  0.1258491E+00
         21   -1    0    0  503  501  0.00000000000E+00  0.00000000000E+00  0.13220599181E+04  0.13220599181E+04  0.00000000000E+00 0. -1.
         21   -1    0    0  505  502 -0.00000000000E+00 -0.00000000000E+00 -0.42222787767E+03  0.42222787767E+03  0.00000000000E+00 0. -1.
         21    1    1    2  503  506  0.59401381890E+02 -0.94835627870E+02  0.12156000811E+04  0.12207398894E+04  0.00000000000E+00 0. -1.
         21    1    1    2  504  502 -0.41915525339E+02 -0.61602042475E+01 -0.35346881304E+03  0.35599868142E+03  0.00000000000E+00 0. -1.
         21    1    1    2  505  501  0.52256439815E+02  0.30207989167E+02  0.31245548891E+02  0.67967215900E+02  0.00000000000E+00 0.  1.
         21    1    1    2  506  504 -0.69742296366E+02  0.70787842950E+02  0.64552235017E+01  0.99582009030E+02  0.00000000000E+00 0.  1.
<scales pt_clust_3="14000.00000" pt_clust_4="42.36578" pt_clust_5="49.83099" pt_clust_6="111.13002"></scales>
<clustering>
<clus scale="   42.366">  2  4  1 -1</clus>
<clus scale="   49.831">  2  5  1 -1</clus>
<clus scale="  111.130">  2  6  1 -1</clus>
<clus scale="  111.130">  1  3  2 -1</clus>
</clustering>
</event>
<event>
 6    0  0.1463946E+003  0.8678968E+02  0.7546771E-02  0.1310818E+00
         21   -1    0    0  505  501  0.00000000000E+00  0.00000000000E+00  0.15835174031E+03  0.15835174031E+03  0.00000000000E+00 0. -1.
         21   -1    0    0  506  502 -0.00000000000E+00 -0.00000000000E+00 -0.81539577842E+03  0.81539577842E+03  0.00000000000E+00 0. -1.
         21    1    1    2  503  502  0.69035031439E+02  0.40315236124E+02 -0.25276359800E+03  0.26510486662E+03  0.00000000000E+00 0. -1.
         21    1    1    2  504  501  0.13947890416E+02  0.27822123924E+02  0.12895602503E+03  0.13265847360E+03  0.00000000000E+00 0. -1.
         21    1    1    2  505  503 -0.64011453881E+02 -0.91445379909E+02 -0.12882274288E+03  0.17045533966E+03  0.00000000000E+00 0. -1.
         21    1    1    2  506  504 -0.18971467974E+02  0.23308019862E+02 -0.40441372226E+03  0.40552883885E+03  0.00000000000E+00 0. -1.
<scales pt_clust_3="14000.00000" pt_clust_4="31.17845" pt_clust_5="86.78968" pt_clust_6="30.05296"></scales>
<clustering>
<clus scale="   30.053">  2  6  1 -1</clus>
<clus scale="   31.178">  1  4  2 -1</clus>
<clus scale="   86.790">  1  5  2 -1</clus>
<clus scale="   31.178">  1  3  2 -1</clus>
</clustering>
</event>
<event>
 6    0  0.1463946E+003  0.8597754E+02  0.7546771E-02  0.1312896E+00
         21   -1    0    0  504  501  0.00000000000E+00  0.00000000000E+00  0.11245235069E+04  0.11245235069E+04  0.00000000000E+00 0.  1.
         21   -1    0    0  503  502 -0.00000000000E+00 -0.00000000000E+00 -0.49420123724E+03  0.49420123724E+03  0.00000000000E+00 0. -1.
         21    1    1    2  503  505  0.29683882825E+02 -0.20002648635E+02 -0.41241496120E+03  0.41396538391E+03  0.00000000000E+00 0. -1.
         21    1    1    2  504  506 -0.36668354552E+02 -0.78786878011E+02  0.10302893862E+04  0.10339478516E+04  0.00000000000E+00 0.  1.
         21    1    1    2  505  501  0.43982242973E+02  0.38969024440E+02 -0.49692232492E+02  0.76956744557E+02  0.00000000000E+00 0. -1.
         21    1    1    2  506  502 -0.36997771245E+02  0.59820502207E+02  0.62140077141E+02  0.93854764122E+02  0.00000000000E+00 0.  1.
<scales pt_clust_3="35.79440" pt_clust_4="14000.00000" pt_clust_5="85.97754" pt_clust_6="64.01589"></scales>
<clustering>
<clus scale="   35.794">  2  3  1 -1</clus>
<clus scale="   64.016">  2  6  1 -1</clus>
<clus scale="   85.978">  2  5  1 -1</clus>
<clus scale="   85.978">  1  3  2 -1</clus>
</clustering>
</event>
<event>
 6    0  0.1463946E+003  0.7335410E+02  0.7546771E-02  0.1349045E+00
         21   -1    0    0  504  501  0.00000000000E+00  0.00000000000E+00  0.20885103611E+02  0.20885103611E+02  0.00000000000E+00 0. -1.
         21   -1    0    0  506  502 -0.00000000000E+00 -0.00000000000E+00 -0.17472746469E+04  0.17472746469E+04  0.00000000000E+00 0. -1.
         21    1    1    2  503  502  0.10180398564E+03 -0.41797146622E+02 -0.69366885683E+03  0.70234431435E+03  0.00000000000E+00 0. -1.
         21    1    1    2  504  503  0.19815223713E+02 -0.25395471041E+02 -0.36226496632E+02  0.48476098218E+02  0.00000000000E+00 0. -1.
         21    1    1    2  505  501 -0.62249969664E+02  0.45102066141E+02 -0.15067553213E+03  0.16915191715E+03  0.00000000000E+00 0. -1.
         21    1    1    2  506  505 -0.59369239689E+02  0.22090551522E+02 -0.84581865771E+03  0.84818742081E+03  0.00000000000E+00 0. -1.
<scales pt_clust_3="14000.00000" pt_clust_4="32.21138" pt_clust_5="57.77458" pt_clust_6="73.35410"></scales>
<clustering>
<clus scale="   32.211">  1  4  2 -1</clus>
<clus scale="   57.775">  1  5  2 -1</clus>
<clus scale="   73.354">  2  6  1 -1</clus>
<clus scale="   32.211">  1  3  2 -1</clus>
</clustering>
</event>
<event>
 6    0  0.1463946E+003  0.2652998E+03  0.7546771E-02  0.1104000E+00
         21   -1    0    0  503  501  0.00000000000E+00  0.00000000000E+00  0.45444848676E+03  0.45444848676E+03  0.00000000000E+00 0.  1.
         21   -1    0    0  505  502 -0.00000000000E+00 -0.00000000000E+00 -0.28148072600E+03  0.28148072600E+03  0.00000000000E+00 0.  1.
         21    1    1    2  503  506  0.51476552175E+02  0.16175359527E+02  0.73129758511E+02  0.90881457182E+02  0.00000000000E+00 0.  1.
         21    1    1    2  504  502  0.18082788647E+03 -0.84375880520E+02 -0.11607738866E+03  0.23085054450E+03  0.00000000000E+00 0.  1.
         21    1    1    2  505  501 -0.26725058061E+03  0.10739279502E+03  0.21865523926E+03  0.36161609327E+03  0.00000000000E+00 0.  1.
         21    1    1    2  506  504  0.34946141963E+02 -0.39192274026E+02 -0.27398483404E+01  0.52581117812E+02  0.00000000000E+00 0.  1.
<scales pt_clust_3="53.95811" pt_clust_4="33.98251" pt_clust_5="256.89600" pt_clust_6="33.98251"></scales>
<clustering>
<clus scale="   33.983">  4  6 -1 -1</clus>
<clus scale="   53.958">  1  3  2 -1</clus>
<clus scale="  256.896">  1  5  2 -1</clus>
<clus scale="   53.958">  1  3  2 -1</clus>
</clustering>
</event>
<event>
 6    0  0.1463946E+003  0.9518141E+02  0.7546771E-02  0.1290768E+00
         21   -1    0    0  503  501  0.00000000000E+00  0.00000000000E+00  0.26135991000E+03  0.26135991000E+03  0.00000000000E+00 0.  1.
         21   -1    0    0  505  502 -0.00000000000E+00 -0.00000000000E+00 -0.86393397608E+03  0.86393397608E+03  0.00000000000E+00 0. -1.
         21    1    1    2  503  504 -0.56405711660E+02  0.10055999846E+03 -0.20490628376E+03  0.23511806124E+03  0.00000000000E+00 0. -1.
         21    1    1    2  504  502 -0.35746767755E+02 -0.50900148940E+02 -0.59638193505E+03  0.59961660169E+03  0.00000000000E+00 0. -1.
         21    1    1    2  505  506  0.60763069173E+02 -0.45936407556E+02 -0.12327122360E+02  0.77163864990E+02  0.00000000000E+00 0. -1.
         21    1    1    2  506  501  0.31389410242E+02 -0.37234419651E+01  0.21104127509E+03  0.21339535816E+03  0.00000000000E+00 0.  1.
<scales pt_clust_3="14000.00000" pt_clust_4="61.71187" pt_clust_5="95.18141" pt_clust_6="31.60948"></scales>
<clustering>
<clus scale="   31.609">  1  6  2 -1</clus>
<clus scale="   61.712">  2  4  1 -1</clus>
<clus scale="   95.181">  1  5  2 -1</clus>
<clus scale="   31.609">  1  3  2 -1</clus>
</clustering>
</event>
<event>
 6    0  0.1463946E+003  0.1764947E+03  0.7546771E-02  0.1171239E+00
         21   -1    0    0  504  501  0.00000000000E+00  0.00000000000E+00  0.21470136537E+03  0.21470136537E+03  0.00000000000E+00 0. -1.
         21   -1    0    0  501  502 -0.00000000000E+00 -0.00000000000E+00 -0.25411522392E+04  0.25411522392E+04  0.00000000000E+00 0. -1.
         21    1    1    2  503  502  0.52470717757E+01 -0.32076012203E+02 -0.14058196305E+04  0.14061953050E+04  0.00000000000E+00 0. -1.
         21    1    1    2  504  505 -0.17550869581E+03 -0.15848401005E+02  0.15317593496E+03  0.23348948835E+03  0.00000000000E+00 0. -1.
         21    1    1    2  505  506  0.18643560235E+03 -0.34390851458E+02 -0.93463663839E+03  0.95367007414E+03  0.00000000000E+00 0. -1.
         21    1    1    2  506  503 -0.16173978314E+02  0.82315264666E+02 -0.13917053990E+03  0.16249873706E+03  0.00000000000E+00 0.  1.
<scales pt_clust_3="32.50234" pt_clust_4="176.49472" pt_clust_5="14000.00000" pt_clust_6="79.57271"></scales>
<clustering>
<clus scale="   32.502">  2  3  1 -1</clus>
<clus scale="   79.573">  2  6  1 -1</clus>
<clus scale="  176.495">  1  4  2 -1</clus>
<clus scale="  176.495">  1  3  2 -1</clus>
</clustering>
</event>
<event>
 6    0  0.1463946E+003  0.7745792E+02  0.7546771E-02  0.1336424E+00
         21   -1    0    0  506  501  0.00000000000E+00  0.00000000000E+00  0.84178703028E+02  0.84178703028E+02  0.00000000000E+00 0.  1.
         21   -1    0    0  505  502 -0.00000000000E+00 -0.00000000000E+00 -0.62959496445E+03  0.62959496445E+03  0.00000000000E+00 0.  1.
         21    1    1    2  503  502 -0.34006482273E+02  0.79027122116E+02 -0.89380596138E+02  0.12405892887E+03  0.00000000000E+00 0.  1.
         21    1    1    2  504  501  0.48420486339E+02 -0.56285581226E+02  0.13419548908E+02  0.75449946615E+02  0.00000000000E+00 0.  1.
         21    1    1    2  505  504 -0.49955391940E+02 -0.62970325490E+02 -0.45007083135E+03  0.45719203439E+03  0.00000000000E+00 0.  1.
         21    1    1    2  506  503  0.35541387874E+02  0.40228784600E+02 -0.19384382843E+02  0.57072757605E+02  0.00000000000E+00 0.  1.
<scales pt_clust_3="74.97109" pt_clust_4="14000.00000" pt_clust_5="77.45792" pt_clust_6="53.68003"></scales>
<clustering>
<clus scale="   53.680">  1  6  2 -1</clus>
<clus scale="   77.458">  2  5  1 -1</clus>
<clus scale="   74.971">  2  3  1 -1</clus>
<clus scale="   53.680">  1  3  2 -1</clus>
</clustering>
</event>
<event>
 6    0  0.1463946E+003  0.8515031E+02  0.7546771E-02  0.1315040E+00
         21   -1    0    0  505  501  0.00000000000E+00  0.00000000000E+00  0.31484269124E+03  0.31484269124E+03  0.00000000000E+00 0. -1.
         21   -1    0    0  506  502 -0.00000000000E+00 -0.00000000000E+00 -0.25500172933E+03  0.25500172933E+03  0.00000000000E+00 0.  1.
         21    1    1    2  503  502 -0.72492856410E+01  0.66567310581E+02 -0.26101009149E+02  0.71868085120E+02  0.00000000000E+00 0.  1.
         21    1    1    2  504  501  0.72017493080E+02 -0.13007199684E+02 -0.55217000340E+02  0.91676734669E+02  0.00000000000E+00 0.  1.
         21    1    1    2  505  503 -0.82435077712E+02 -0.28129965091E+02  0.26484291664E+03  0.27879850694E+03  0.00000000000E+00 0. -1.
         21    1    1    2  506  504  0.17666870272E+02 -0.25430145806E+02 -0.12368394524E+03  0.12750109385E+03  0.00000000000E+00 0.  1.
<scales pt_clust_3="56.94415" pt_clust_4="14000.00000" pt_clust_5="85.15031" pt_clust_6="30.96467"></scales>
<clustering>
<clus scale="   30.965">  2  6  1 -1</clus>
<clus scale="   56.944">  2  3  1 -1</clus>
<clus scale="   85.150">  1  5  2 -1</clus>
<clus scale="   85.150">  1  3  2 -1</clus>
</clustering>
</event>
<event>
 6    0  0.1463946E+003  0.2964507E+03  0.7546771E-02  0.1087028E+00
         21   -1    0    0  503  501  0.00000000000E+00  0.00000000000E+00  0.14951408506E+04  0.14951408506E+04  0.00000000000E+00 0. -1.
         21   -1    0    0  504  502 -0.00000000000E+00 -0.00000000000E+00 -0.24040266179E+03  0.24040266179E+03  0.00000000000E+00 0. -1.
         21    1    1    2  503  502  0.80948854119E+02  0.33716357076E+03 -0.19651588793E+02  0.34730127465E+03  0.00000000000E+00 0. -1.
         21    1    1    2  504  505 -0.21375194310E+02 -0.57644735520E+02  0.57718946624E+01  0.61750540345E+02  0.00000000000E+00 0. -1.
         21    1    1    2  505  506 -0.33967775181E+02 -0.30116141021E+03  0.78130964301E+03  0.83803148092E+03  0.00000000000E+00 0. -1.
         21    1    1    2  506  501 -0.25605884627E+02  0.21642574971E+02  0.48730823991E+03  0.48846021646E+03  0.00000000000E+00 0. -1.
<scales pt_clust_3="14000.00000" pt_clust_4="61.10757" pt_clust_5="296.45069" pt_clust_6="33.52704"></scales>
<clustering>
<clus scale="   33.527">  1  6  2 -1</clus>
<clus scale="   61.108">  2  4  1 -1</clus>
<clus scale="  296.451">  1  5  2 -1</clus>
<clus scale="   33.527">  1  3  2 -1</clus>
</clustering>
</event>
<event>
 6    0  0.1463946E+003  0.9281965E+02  0.7546771E-02  0.1296164E+00
         21   -1    0    0  504  501  0.00000000000E+00  0.00000000000E+00  0.15980218492E+03  0.15980218492E+03  0.00000000000E+00 0.  1.
         21   -1    0    0  503  502 -0.00000000000E+00 -0.00000000000E+00 -0.28676155479E+03  0.28676155479E+03  0.00000000000E+00 0.  1.
         21    1    1    2  503  501  0.12312254864E+03  0.15106147325E+02 -0.13183447754E+03  0.18101847182E+03  0.00000000000E+00 0.  1.
         21    1    1    2  504  505  0.26344844139E+02 -0.46942857956E+02  0.63885748048E+02  0.83540837495E+02  0.00000000000E+00 0.  1.
         21    1    1    2  505  506 -0.98320859408E+02  0.18556578176E+02  0.35420319537E+01  0.10011934867E+03  0.00000000000E+00 0.  1.
         21    1    1    2  506  502 -0.51146533375E+02  0.13280132454E+02 -0.62552672332E+02  0.81885081732E+02  0.00000000000E+00 0. -1.
<scales pt_clust_3="14000.00000" pt_clust_4="52.18222" pt_clust_5="92.81965" pt_clust_6="52.84250"></scales>
<clustering>
<clus scale="   52.842">  2  6  1 -1</clus>
<clus scale="   52.182">  1  4  2 -1</clus>
<clus scale="   92.820">  1  5  2 -1</clus>
<clus scale="   52.182">  1  3  2 -1</clus>
</clustering>
</event>
<event>
 6    0  0.1463946E+003  0.1060322E+03  0.7546771E-02  0.1268099E+00
         21   -1    0    0  503  501  0.00000000000E+00  0.00000000000E+00  0.88748392702E+03  0.88748392702E+03  0.00000000000E+00 0.  1.
         21   -1    0    0  506  502 -0.00000000000E+00 -0.00000000000E+00 -0.52087564990E+03  0.52087564990E+03  0.00000000000E+00 0.  1.
         21    1    1    2  503  505 -0.10777503657E+03  0.20287101595E+02  0.42838711297E+03  0.44220192622E+03  0.00000000000E+00 0.  1.
         21    1    1    2  504  501  0.89552637834E+02 -0.57725471836E+02  0.43991891215E+03  0.45263733198E+03  0.00000000000E+00 0.  1.
         21    1    1    2  505  502  0.35100672789E+02 -0.26145854471E+02 -0.20167659605E+03  0.20637129725E+03  0.00000000000E+00 0.  1.
         21    1    1    2  506  504 -0.16878274054E+02  0.63584224711E+02 -0.30002115194E+03  0.30714902145E+03  0.00000000000E+00 0.  1.
<scales pt_clust_3="106.03223" pt_clust_4="14000.00000" pt_clust_5="43.76829" pt_clust_6="42.01730"></scales>
<clustering>
<clus scale="   43.768">  2  5  1 -1</clus>
<clus scale="   42.017">  2  6  1 -1</clus>
<clus scale="  106.032">  2  3  1 -1</clus>
<clus scale="  106.032">  1  3  2 -1</clus>
</clustering>
</event>
<event>
 6    0  0.1463946E+003  0.1444982E+03  0.7546771E-02  0.1207401E+00
         21   -1    0    0  504  501  0.00000000000E+00  0.00000000000E+00  0.68852608233E+03  0.68852608233E+03  0.00000000000E+00 0.  1.
         21   -1    0    0  503  502 -0.00000000000E+00 -0.00000000000E+00 -0.59442943341E+03  0.59442943341E+03  0.00000000000E+00 0.  1.
         21    1    1    2  503  505 -0.12912307092E+01 -0.33042897961E+02 -0.14219946622E+03  0.14599379636E+03  0.00000000000E+00 0.  1.
         21    1    1    2  504  506  0.56567953618E+02  0.12883321892E+03  0.58617654963E+03  0.60282740400E+03  0.00000000000E+00 0.  1.
         21    1    1    2  505  501 -0.84858803433E+02 -0.23584024748E+03 -0.16400850407E+03  0.29953368468E+03  0.00000000000E+00 0.  1.
         21    1    1    2  506  502  0.29582080524E+02  0.14004992651E+03 -0.18587193041E+03  0.23460063069E+03  0.00000000000E+00 0.  1.
<scales pt_clust_3="33.06812" pt_clust_4="144.49817" pt_clust_5="14000.00000" pt_clust_6="127.94894"></scales>
<clustering>
<clus scale="   33.068">  2  3  1 -1</clus>
<clus scale="  127.949">  2  6  1 -1</clus>
<clus scale="  144.498">  1  4  2 -1</clus>
<clus scale="  144.498">  1  3  2 -1</clus>
</clustering>
</event>
<event>
 6    0  0.1463946E+003  0.1282011E+03  0.7546771E-02  0.1230150E+00
         21   -1    0    0  503  501  0.00000000000E+00  0.00000000000E+00  0.33339981425E+03  0.33339981425E+03  0.00000000000E+00 0. -1.
         21   -1    0    0  504  502 -0.00000000000E+00 -0.00000000000E+00 -0.14704538882E+03  0.14704538882E+03  0.00000000000E+00 0.  1.
         21    1    1    2  503  502 -0.67821057409E+01  0.60991428098E+02 -0.81786766727E+02  0.10224982382E+03  0.00000000000E+00 0.  1.
         21    1    1    2  504  505  0.44537816363E+02  0.71260753750E+02  0.14702631889E+02  0.85310488779E+02  0.00000000000E+00 0. -1.
         21    1    1    2  505  506 -0.26018722216E+01 -0.96501887838E+02  0.17247355321E+03  0.19765249974E+03  0.00000000000E+00 0. -1.
         21    1    1    2  506  501 -0.35153838400E+02 -0.35750294009E+02  0.80965007054E+02  0.95232390725E+02  0.00000000000E+00 0. -1.
<scales pt_clust_3="61.36735" pt_clust_4="117.47846" pt_clust_5="36.98908" pt_clust_6="36.98908"></scales>
<clustering>
<clus scale="   36.989">  5  6 -1 -1</clus>
<clus scale="   61.367">  2  3  1 -1</clus>
<clus scale="  117.478">  2  4  1 -1</clus>
<clus scale="  128.201">  1  3  2 -1</clus>
</clustering>
</event>
<event>
 6    0  0.1463946E+003  0.8087060E+02  0.7546771E-02  0.1326599E+00
         21   -1    0    0  504  501  0.00000000000E+00  0.00000000000E+00  0.34002370093E+04  0.34002370093E+04  0.00000000000E+00 0. -1.
         21   -1    0    0  505  502 -0.00000000000E+00 -0.00000000000E+00 -0.82702308064E+02  0.82702308064E+02  0.00000000000E+00 0. -1.
         21    1    1    2  503  502 -0.62367617409E+02 -0.28434158456E+02  0.40655474526E+01  0.68664035306E+02  0.00000000000E+00 0. -1.
         21    1    1    2  504  506  0.29792239754E+02 -0.44744553716E+02  0.31170387350E+04  0.31175022258E+04  0.00000000000E+00 0. -1.
         21    1    1    2  505  501 -0.32111716514E+02 -0.13811980912E+02  0.18442041489E+03  0.18770408249E+03  0.00000000000E+00 0. -1.
         21    1    1    2  506  503  0.64687094170E+02  0.86990693084E+02  0.12010003885E+02  0.10906897372E+03  0.00000000000E+00 0. -1.
<scales pt_clust_3="14000.00000" pt_clust_4="58.15582" pt_clust_5="34.95616" pt_clust_6="80.87060"></scales>
<clustering>
<clus scale="   34.956">  1  5  2 -1</clus>
<clus scale="   58.156">  1  4  2 -1</clus>
<clus scale="   80.871">  1  6  2 -1</clus>
<clus scale="   34.956">  1  3  2 -1</clus>
</clustering>
</event>
<event>
 6    0  0.1463946E+003  0.1673338E+03  0.7546771E-02  0.1180657E+00
         21   -1    0    0  506  501  0.00000000000E+00  0.00000000000E+00  0.15326510041E+04  0.15326510041E+04  0.00000000000E+00 0. -1.
         21   -1    0    0  503  502 -0.00000000000E+00 -0.00000000000E+00 -0.74463711080E+03  0.74463711080E+03  0.00000000000E+00 0.  1.
         21    1    1    2  503  504  0.25049284098E+02  0.28532666358E+02 -0.10520241868E+03  0.11184421567E+03  0.00000000000E+00 0. -1.
         21    1    1    2  504  501  0.65603006276E+02 -0.12104346411E+02 -0.30089628483E+02  0.73182343340E+02  0.00000000000E+00 0.  1.
         21    1    1    2  505  502 -0.25555147888E+03  0.75433282479E+01 -0.55160197961E+03  0.60797056184E+03  0.00000000000E+00 0.  1.
         21    1    1    2  506  505  0.16489918851E+03 -0.23971648195E+02  0.14749079201E+04  0.14842909940E+04  0.00000000000E+00 0. -1.
<scales pt_clust_3="37.96814" pt_clust_4="68.34096" pt_clust_5="14000.00000" pt_clust_6="167.33376"></scales>
<clustering>
<clus scale="   37.968">  2  3  1 -1</clus>
<clus scale="   68.341">  2  4  1 -1</clus>
<clus scale="  167.334">  1  6  2 -1</clus>
<clus scale="  167.334">  1  3  2 -1</clus>
</clustering>
</event>
<event>
 6    0  0.1463946E+003  0.7854348E+02  0.7546771E-02  0.1333236E+00
         21   -1    0    0  504  501  0.00000000000E+00  0.00000000000E+00  0.37982837134E+03  0.37982837134E+03  0.00000000000E+00 0.  1.
         21   -1    0    0  503  502 -0.00000000000E+00 -0.00000000000E+00 -0.17030337608E+03  0.17030337608E+03  0.00000000000E+00 0. -1.
         21    1    1    2  503  505  0.24167998700E+02  0.98110294609E+02 -0.88088443227E+02  0.13404960238E+03  0.00000000000E+00 0. -1.
         21    1    1    2  504  506  0.33925025532E+02  0.44502784173E+02  0.44619739868E+02  0.71570429245E+02  0.00000000000E+00 0.  1.
         21    1    1    2  505  501 -0.75065372887E+02 -0.99170701972E+02  0.26805103923E+03  0.29550126559E+03  0.00000000000E+00 0.  1.
         21    1    1    2  506  502  0.16972348655E+02 -0.43442376810E+02 -0.15057340605E+02  0.49010450190E+02  0.00000000000E+00 0.  1.
<scales pt_clust_3="14000.00000" pt_clust_4="53.73515" pt_clust_5="78.54348" pt_clust_6="46.64012"></scales>
<clustering>
<clus scale="   46.640">  2  6  1 -1</clus>
<clus scale="   53.735">  1  4  2 -1</clus>
<clus scale="   78.543">  1  5  2 -1</clus>
<clus scale="   53.735">  1  3  2 -1</clus>
</clustering>
</event>
<event>
 6    0  0.1463946E+003  0.1055059E+03  0.7546771E-02  0.1269126E+00
         21   -1    0    0  503  501  0.00000000000E+00  0.00000000000E+00  0.88787541193E+03  0.88787541193E+03  0.00000000000E+00 0. -1.
         21   -1    0    0  504  502 -0.00000000000E+00 -0.00000000000E+00 -0.29859943196E+03  0.29859943196E+03  0.00000000000E+00 0. -1.
         21    1    1    2  503  502 -0.32422125428E+02  0.46805816163E+02 -0.21663830567E+03  0.22399583506E+03  0.00000000000E+00 0. -1.
         21    1    1    2  504  506  0.18024402665E+01  0.63323306867E+02 -0.42921760156E+02  0.76520372963E+02  0.00000000000E+00 0. -1.
         21    1    1    2  505  501 -0.55081727661E+02  0.64237345143E+01  0.56175674343E+03  0.56448728939E+03  0.00000000000E+00 0. -1.
         21    1    1    2  506  505  0.85701412823E+02 -0.11655285754E+03  0.28707930236E+03  0.32147134647E+03  0.00000000000E+00 0. -1.
<scales pt_clust_3="57.35543" pt_clust_4="14000.00000" pt_clust_5="55.45504" pt_clust_6="105.50593"></scales>
<clustering>
<clus scale="   55.455">  1  5  2 -1</clus>
<clus scale="   57.355">  2  3  1 -1</clus>
<clus scale="  105.506">  1  6  2 -1</clus>
<clus scale="   55.455">  1  3  2 -1</clus>
</clustering>
</event>
<event>
 6    0  0.1463946E+003  0.1351491E+03  0.7546771E-02  0.1220009E+00
         21   -1    0    0  503  501  0.00000000000E+00  0.00000000000E+00  0.21568974041E+03  0.21568974041E+03  0.00000000000E+00 0. -1.
         21   -1    0    0  504  502 -0.00000000000E+00 -0.00000000000E+00 -0.11953675566E+04  0.11953675566E+04  0.00000000000E+00 0.  1.
         21    1    1    2  503  505 -0.95226451819E+02 -0.41260731360E+02  0.14154186558E+02  0.10474190220E+03  0.00000000000E+00 0. -1.
         21    1    1    2  504  506  0.19478619422E+02 -0.25784806310E+02 -0.93021825745E+03  0.93077939349E+03  0.00000000000E+00 0.  1.
         21    1    1    2  505  502 -0.60151828543E+02 -0.37594194210E+02 -0.16267464148E+03  0.17746719386E+03  0.00000000000E+00 0. -1.
         21    1    1    2  506  501  0.13589966094E+03  0.10463973188E+03  0.99060896190E+02  0.19806880745E+03  0.00000000000E+00 0. -1.
<scales pt_clust_3="14000.00000" pt_clust_4="32.31521" pt_clust_5="72.12693" pt_clust_6="135.14906"></scales>
<clustering>
<clus scale="   32.315">  2  4  1 -1</clus>
<clus scale="   72.127">  2  5  1 -1</clus>
<clus scale="  135.149">  2  6  1 -1</clus>
<clus scale="  135.149">  1  3  2 -1</clus>
</clustering>
</event>
<event>
 6    0  0.1463946E+003  0.1249515E+03  0.7546771E-02  0.1235145E+00
         21   -1    0    0  506  501  0.00000000000E+00  0.00000000000E+00  0.50591478302E+03  0.50591478302E+03  0.00000000000E+00 0.  1.
         21   -1    0    0  504  502 -0.00000000000E+00 -0.00000000000E+00 -0.12145217910E+03  0.12145217910E+03  0.00000000000E+00 0.  1.
         21    1    1    2  503  505  0.13621978340E+03 -0.64424022227E+02  0.20700402277E+03  0.25604091367E+03  0.00000000000E+00 0.  1.
         21    1    1    2  504  501 -0.99947252246E+02  0.20011404508E+01  0.38536770238E+02  0.10713795058E+03  0.00000000000E+00 0.  1.
         21    1    1    2  505  502 -0.34755700065E+02  0.32033584508E+02 -0.52338550634E+02  0.70522571606E+02  0.00000000000E+00 0.  1.
         21    1    1    2  506  503 -0.15168310880E+01  0.30389297268E+02  0.19126036155E+03  0.19366552627E+03  0.00000000000E+00 0.  1.
<scales pt_clust_3="124.95155" pt_clust_4="14000.00000" pt_clust_5="47.90010" pt_clust_6="30.42713"></scales>
<clustering>
<clus scale="   30.427">  1  6  2 -1</clus>
<clus scale="   47.900">  2  5  1 -1</clus>
<clus scale="  124.952">  1  3  2 -1</clus>
<clus scale="   30.427">  1  3  2 -1</clus>
</clustering>
</event>
<event>
 6    0  0.2302354E+003  0.1131119E+03  0.7546771E-02  0.1254913E+00
         21   -1    0    0  506  501  0.00000000000E+00  0.00000000000E+00  0.50327225160E+03  0.50327225160E+03  0.00000000000E+00 0. -1.
         21   -1    0    0  505  502 -0.00000000000E+00 -0.00000000000E+00 -0.14233828169E+04  0.14233828169E+04  0.00000000000E+00 0. -1.
         21    1    1    2  503  502  0.29385662865E+02  0.11583185621E+02 -0.13037140855E+03  0.13414317552E+03  0.00000000000E+00 0. -1.
         21    1    1    2  504  501  0.11277715763E+02 -0.35922689744E+02  0.24283534391E+02  0.44803086431E+02  0.00000000000E+00 0. -1.
         21    1    1    2  505  504  0.69835464280E+02  0.43727251793E+02 -0.12727744515E+04  0.12754386967E+04  0.00000000000E+00 0. -1.
         21    1    1    2  506  503 -0.11049884291E+03 -0.19387747671E+02  0.45875176035E+03  0.47227010986E+03  0.00000000000E+00 0. -1.
<scales pt_clust_3="31.58619" pt_clust_4="37.63434" pt_clust_5="14000.00000" pt_clust_6="113.11188"></scales>
<clustering>
<clus scale="   31.586">  2  3  1 -1</clus>
<clus scale="   37.634">  1  4  2 -1</clus>
<clus scale="  113.112">  1  6  2 -1</clus>
<clus scale="   37.634">  1  3  2 -1</clus>
</clustering>
</event>
<event>
 6    0  0.1463946E+003  0.7639251E+02  0.7546771E-02  0.1339612E+00
         21   -1    0    0  506  501  0.00000000000E+00  0.00000000000E+00  0.13462611749E+03  0.13462611749E+03  0.00000000000E+00 0. -1.
         21   -1    0    0  504  502 -0.00000000000E+00 -0.00000000000E+00 -0.21595006404E+04  0.21595006404E+04  0.00000000000E+00 0. -1.
         21    1    1    2  503  505 -0.49929985329E+02  0.18880791613E+02  0.65275634352E+01  0.53778218744E+02  0.00000000000E+00 0. -1.
         21    1    1    2  504  501  0.37837222182E+02 -0.66424205270E+02 -0.97924775304E+03  0.98222705739E+03  0.00000000000E+00 0. -1.
         21    1    1    2  505  502  0.12609612011E+02  0.84560372259E+02 -0.11501722210E+04  0.11533453936E+04  0.00000000000E+00 0. -1.
         21    1    1    2  506  503 -0.51684886390E+00 -0.37016958603E+02  0.98017887678E+02  0.10477608822E+03  0.00000000000E+00 0. -1.
<scales pt_clust_3="52.50162" pt_clust_4="76.39251" pt_clust_5="14000.00000" pt_clust_6="37.02057"></scales>
<clustering>
<clus scale="   37.021">  1  6  2 -1</clus>
<clus scale="   52.502">  1  3  2 -1</clus>
<clus scale="   76.393">  2  4  1 -1</clus>
<clus scale="   37.021">  1  3  2 -1</clus>
</clustering>
</event>
<event>
 6    0  0.1463946E+003  0.6581226E+02  0.7546771E-02  0.1374942E+00
         21   -1    0    0  506  501  0.00000000000E+00  0.00000000000E+00  0.29154967600E+03  0.29154967600E+03  0.00000000000E+00 0.  1.
         21   -1    0    0  504  502 -0.00000000000E+00 -0.00000000000E+00 -0.85243292703E+02  0.85243292703E+02  0.00000000000E+00 0. -1.
         21    1    1    2  503  501  0.23815556113E+02  0.48232394900E+02  0.35162275355E+02  0.64264533290E+02  0.00000000000E+00 0. -1.
         21    1    1    2  504  503  0.45934856046E+02  0.14074970050E+02 -0.31712985395E+02  0.57565868573E+02  0.00000000000E+00 0. -1.
         21    1    1    2  505  502 -0.17601900756E+01 -0.82714849558E+02  0.96763080224E+02  0.12731040139E+03  0.00000000000E+00 0.  1.
         21    1    1    2  506  505 -0.67990222083E+02  0.20407484607E+02  0.10609401311E+03  0.12765216545E+03  0.00000000000E+00 0.  1.
<scales pt_clust_3="14000.00000" pt_clust_4="48.04285" pt_clust_5="65.81226" pt_clust_6="60.79570"></scales>
<clustering>
<clus scale="   48.043">  2  4  1 -1</clus>
<clus scale="   60.796">  1  6  2 -1</clus>
<clus scale="   65.812">  1  5  2 -1</clus>
<clus scale="   60.796">  1  3  2 -1</clus>
</clustering>
</event>
<event>
 6    0  0.1463946E+003  0.7913555E+02  0.7546771E-02  0.1331523E+00
         21   -1    0    0  505  501  0.00000000000E+00  0.00000000000E+00  0.14534788216E+03  0.14534788216E+03  0.00000000000E+00 0.  1.
         21   -1    0    0  506  502 -0.00000000000E+00 -0.00000000000E+00 -0.90315164316E+03  0.90315164316E+03  0.00000000000E+00 0.  1.
         21    1    1    2  503  501  0.67391875688E+02  0.55938417557E+02 -0.40986434920E+03  0.41911759235E+03  0.00000000000E+00 0.  1.
         21    1    1    2  504  502 -0.53442719157E+02 -0.87289058584E+02 -0.10446782672E+03  0.14624989162E+03  0.00000000000E+00 0.  1.
         21    1    1    2  505  504  0.15978411544E+02  0.26875805235E+02  0.11714610558E+03  0.12124697355E+03  0.00000000000E+00 0.  1.
         21    1    1    2  506  503 -0.29927568075E+02  0.44748357915E+01 -0.36061769066E+03  0.36188506780E+03  0.00000000000E+00 0.  1.
<scales pt_clust_3="14000.00000" pt_clust_4="79.13555" pt_clust_5="31.22376" pt_clust_6="30.26026"></scales>
<clustering>
<clus scale="   30.260">  2  6  1 -1</clus>
<clus scale="   31.224">  1  5  2 -1</clus>
<clus scale="   79.136">  1  4  2 -1</clus>
<clus scale="   31.224">  1  3  2 -1</clus>
</clustering>
</event>
<event>
 6    0  0.1463946E+003  0.1284100E+03  0.7546771E-02  0.1229834E+00
         21   -1    0    0  503  501  0.00000000000E+00  0.00000000000E+00  0.13023887411E+03  0.13023887411E+03  0.00000000000E+00 0.  1.
         21   -1    0    0  506  502 -0.00000000000E+00 -0.00000000000E+00 -0.15971976882E+04  0.15971976882E+04  0.00000000000E+00 0. -1.
         21    1    1    2  503  505 -0.97439940416E+02 -0.42250814995E+01 -0.82410078900E+02  0.12768639084E+03  0.00000000000E+00 0.  1.
         21    1    1    2  504  501 -0.31556517289E+02 -0.47537130761E+02  0.84852021753E+02  0.10225193485E+03  0.00000000000E+00 0.  1.
         21    1    1    2  505  502 -0.15845563963E+01 -0.61420111658E+02 -0.90864896776E+03  0.91072382616E+03  0.00000000000E+00 0. -1.
         21    1    1    2  506  504  0.13058101410E+03  0.11318232392E+03 -0.56075178918E+03  0.58677441045E+03  0.00000000000E+00 0.  1.
<scales pt_clust_3="128.41001" pt_clust_4="57.05780" pt_clust_5="62.81322" pt_clust_6="14000.00000"></scales>
<clustering>
<clus scale="   57.058">  1  4  2 -1</clus>
<clus scale="   62.813">  2  5  1 -1</clus>
<clus scale="  128.410">  1  3  2 -1</clus>
<clus scale="   57.058">  1  3  2 -1</clus>
</clustering>
</event>
<event>
 6    0  0.1463946E+003  0.1156848E+03  0.7546771E-02  0.1250390E+00
         21   -1    0    0  503  501  0.00000000000E+00  0.00000000000E+00  0.29010287037E+03  0.29010287037E+03  0.00000000000E+00 0. -1.
         21   -1    0    0  506  502 -0.00000000000E+00 -0.00000000000E+00 -0.59351697763E+03  0.59351697763E+03  0.00000000000E+00 0. -1.
         21    1    1    2  503  502  0.35079251445E+01  0.11489624656E+03 -0.51487951462E+03  0.52755508488E+03  0.00000000000E+00 0. -1.
         21    1    1    2  504  505  0.75400036796E+02  0.21678204478E+02  0.70467964982E+02  0.10545541326E+03  0.00000000000E+00 0. -1.
         21    1    1    2  505  501 -0.68668261791E+02 -0.10359522841E+02  0.90989685020E+02  0.11446297511E+03  0.00000000000E+00 0. -1.
         21    1    1    2  506  504 -0.10239700149E+02 -0.12621492820E+03  0.50007757364E+02  0.13614637474E+03  0.00000000000E+00 0. -1.
<scales pt_clust_3="115.68484" pt_clust_4="46.32411" pt_clust_5="69.44530" pt_clust_6="14000.00000"></scales>
<clustering>
<clus scale="   69.445">  1  5  2 -1</clus>
<clus scale="   46.324">  1  4  2 -1</clus>
<clus scale="  115.685">  2  3  1 -1</clus>
<clus scale="   69.445">  1  3  2 -1</clus>
</clustering>
</event>
<event>
 6    0  0.1463946E+003  0.1217400E+03  0.7546771E-02  0.1240254E+00
         21   -1    0    0  504  501  0.00000000000E+00  0.00000000000E+00  0.23244342267E+04  0.23244342267E+04  0.00000000000E+00 0.  1.
         21   -1    0    0  506  502 -0.00000000000E+00 -0.00000000000E+00 -0.21475181144E+02  0.21475181144E+02  0.00000000000E+00 0.  1.
         21    1    1    2  503  502 -0.37642632388E+02  0.13530880977E+03  0.31124654593E+03  0.34146720798E+03  0.00000000000E+00 0.  1.
         21    1    1    2  504  503  0.31822915950E+02 -0.12779592929E+03  0.14056317424E+04  0.14117879064E+04  0.00000000000E+00 0.  1.
         21    1    1    2  505  501  0.20804819981E+02  0.26480891165E+02  0.45955740091E+03  0.46078962973E+03  0.00000000000E+00 0.  1.
         21    1    1    2  506  505 -0.14985103543E+02 -0.33993771644E+02  0.12652335634E+03  0.13186466372E+03  0.00000000000E+00 0.  1.
<scales pt_clust_3="121.73997" pt_clust_4="14000.00000" pt_clust_5="33.67608" pt_clust_6="34.89412"></scales>
<clustering>
<clus scale="   33.676">  1  5  2 -1</clus>
<clus scale="   34.894">  2  6  1 -1</clus>
<clus scale="  121.740">  2  3  1 -1</clus>
<clus scale="   33.676">  1  3  2 -1</clus>
</clustering>
</event>
<event>
 6    0  0.1463946E+003  0.1252938E+03  0.7546771E-02  0.1234611E+00
         21   -1    0    0  506  501  0.00000000000E+00  0.00000000000E+00  0.14259362074E+04  0.14259362074E+04  0.00000000000E+00 0. -1.
         21   -1    0    0  504  502 -0.00000000000E+00 -0.00000000000E+00 -0.99031726729E+02  0.99031726729E+02  0.00000000000E+00 0. -1.
         21    1    1    2  503  501 -0.35138079837E+02 -0.56857475172E+02  0.18621959689E+03  0.19785144782E+03  0.00000000000E+00 0. -1.
         21    1    1    2  504  503  0.37932008410E+02  0.20887246303E+02 -0.70828286370E+02  0.83016627673E+02  0.00000000000E+00 0. -1.
         21    1    1    2  505  502  0.98445129279E+02 -0.48787072499E+02  0.24370934136E+03  0.26733100267E+03  0.00000000000E+00 0. -1.
         21    1    1    2  506  505 -0.10123905785E+03  0.84757301368E+02  0.96780382874E+03  0.97676885592E+03  0.00000000000E+00 0. -1.
<scales pt_clust_3="57.19423" pt_clust_4="43.30259" pt_clust_5="14000.00000" pt_clust_6="125.29380"></scales>
<clustering>
<clus scale="   43.303">  2  4  1 -1</clus>
<clus scale="   57.194">  2  3  1 -1</clus>
<clus scale="  125.294">  1  6  2 -1</clus>
<clus scale="  125.294">  1  3  2 -1</clus>
</clustering>
</event>
<event>
 6    0  0.1463946E+003  0.9182394E+02  0.7546771E-02  0.1298494E+00
         21   -1    0    0  504  501  0.00000000000E+00  0.00000000000E+00  0.62488322942E+02  0.62488322942E+02  0.00000000000E+00 0.  1.
         21   -1    0    0  503  502 -0.00000000000E+00 -0.00000000000E+00 -0.71064369800E+03  0.71064369800E+03  0.00000000000E+00 0.  1.
         21    1    1    2  503  505  0.31907108288E-01  0.38294658439E+02 -0.41871600889E+03  0.42046352753E+03  0.00000000000E+00 0.  1.
         21    1    1    2  504  506  0.52492081411E+02 -0.32269721481E+02 -0.25804712056E+02  0.66802969242E+02  0.00000000000E+00 0.  1.
         21    1    1    2  505  501 -0.42859620540E+02  0.72296356877E+02 -0.18727875138E+03  0.20527308885E+03  0.00000000000E+00 0.  1.
         21    1    1    2  506  502 -0.96643679785E+01 -0.78321293835E+02 -0.16355902741E+02  0.80592435320E+02  0.00000000000E+00 0.  1.
<scales pt_clust_3="38.29467" pt_clust_4="58.66182" pt_clust_5="91.82394" pt_clust_6="14000.00000"></scales>
<clustering>
<clus scale="   38.295">  2  3  1 -1</clus>
<clus scale="   58.662">  1  4  2 -1</clus>
<clus scale="   91.824">  2  5  1 -1</clus>
<clus scale="   58.662">  1  3  2 -1</clus>
</clustering>
</event>
<event>
 6    0  0.1463946E+003  0.7938598E+02  0.7546771E-02  0.1330803E+00
         21   -1    0    0  503  501  0.00000000000E+00  0.00000000000E+00  0.87688839758E+02  0.87688839758E+02  0.00000000000E+00 0. -1.
         21   -1    0    0  506  502 -0.00000000000E+00 -0.00000000000E+00 -0.59003820402E+03  0.59003820402E+03  0.00000000000E+00 0.  1.
         21    1    1    2  503  505 -0.51384163024E+02 -0.48550418251E+02 -0.67771391960E+01  0.71016934161E+02  0.00000000000E+00 0. -1.
         21    1    1    2  504  501  0.82890753409E+02  0.39744498325E+02 -0.13664566661E+01  0.91936768225E+02  0.00000000000E+00 0.  1.
         21    1    1    2  505  502  0.41437676604E+02  0.37492980940E+02 -0.11900192799E+03  0.13146962968E+03  0.00000000000E+00 0.  1.
         21    1    1    2  506  504 -0.72944266990E+02 -0.28687061013E+02 -0.37520384040E+03  0.38330371171E+03  0.00000000000E+00 0.  1.
<scales pt_clust_3="79.38598" pt_clust_4="14000.00000" pt_clust_5="55.88206" pt_clust_6="39.17970"></scales>
<clustering>
<clus scale="   55.882">  2  5  1 -1</clus>
<clus scale="   39.180">  2  6  1 -1</clus>
<clus scale="   79.386">  1  3  2 -1</clus>
<clus scale="   79.386">  1  3  2 -1</clus>
</clustering>
</event>
<event>
 6    0  0.1463946E+003  0.9762081E+02  0.7546771E-02  0.1285380E+00
         21   -1    0    0  504  501  0.00000000000E+00  0.00000000000E+00  0.79571189945E+03  0.79571189945E+03  0.00000000000E+00 0. -1.
         21   -1    0    0  501  502 -0.00000000000E+00 -0.00000000000E+00 -0.68432796226E+02  0.68432796226E+02  0.00000000000E+00 0. -1.
         21    1    1    2  503  505  0.64052787401E+02 -0.73691123044E+02  0.28378763153E+03  0.30011424658E+03  0.00000000000E+00 0. -1.
         21    1    1    2  504  503  0.99386233650E+01  0.30112604184E+02  0.31484151542E+03  0.31643439288E+03  0.00000000000E+00 0. -1.
         21    1    1    2  505  506 -0.76430834170E+02  0.91428699789E+02  0.15293433470E+03  0.19388086622E+03  0.00000000000E+00 0. -1.
         21    1    1    2  506  502  0.24394234039E+01 -0.47850180930E+02 -0.24284378421E+02  0.53715190001E+02  0.00000000000E+00 0. -1.
<scales pt_clust_3="97.62081" pt_clust_4="31.71033" pt_clust_5="14000.00000" pt_clust_6="47.00732"></scales>
<clustering>
<clus scale="   31.710">  1  4  2 -1</clus>
<clus scale="   47.007">  2  6  1 -1</clus>
<clus scale="   97.621">  1  3  2 -1</clus>
<clus scale="   31.710">  1  3  2 -1</clus>
</clustering>
</event>
<event>
 6    0  0.1463946E+003  0.1093243E+03  0.7546771E-02  0.1261826E+00
         21   -1    0    0  503  501  0.00000000000E+00  0.00000000000E+00  0.38991226710E+03  0.38991226710E+03  0.00000000000E+00 0. -1.
         21   -1    0    0  506  502 -0.00000000000E+00 -0.00000000000E+00 -0.11087521874E+04  0.11087521874E+04  0.00000000000E+00 0. -1.
         21    1    1    2  503  504  0.70888568703E+01  0.31676454777E+02  0.34872893924E+03  0.35023638123E+03  0.00000000000E+00 0. -1.
         21    1    1    2  504  502  0.93639588521E+02  0.15519738426E+02 -0.45300551190E+03  0.46284255275E+03  0.00000000000E+00 0. -1.
         21    1    1    2  505  501  0.24338319298E+02 -0.19187237436E+02  0.20864755353E+02  0.37360967368E+02  0.00000000000E+00 0. -1.
         21    1    1    2  506  505 -0.12506676469E+03 -0.28008955767E+02 -0.63542810299E+03  0.64822455314E+03  0.00000000000E+00 0. -1.
<scales pt_clust_3="33.34131" pt_clust_4="109.32427" pt_clust_5="30.99200" pt_clust_6="14000.00000"></scales>
<clustering>
<clus scale="   30.992">  1  5  2 -1</clus>
<clus scale="   33.341">  1  3  2 -1</clus>
<clus scale="  109.324">  2  4  1 -1</clus>
<clus scale="   30.992">  1  3  2 -1</clus>
</clustering>
</event>
<event>
 6    0  0.1463946E+003  0.7161660E+02  0.7546771E-02  0.1354680E+00
         21   -1    0    0  503  501  0.00000000000E+00  0.00000000000E+00  0.45829496595E+03  0.45829496595E+03  0.00000000000E+00 0.  1.
         21   -1    0    0  505  502 -0.00000000000E+00 -0.00000000000E+00 -0.11428590833E+03  0.11428590833E+03  0.00000000000E+00 0.  1.
         21    1    1    2  503  504  0.63618321445E+02  0.39032207909E+02  0.30475357093E+03  0.31376032744E+03  0.00000000000E+00 0.  1.
         21    1    1    2  504  506 -0.36347117553E+02 -0.63043037212E+02  0.10312946642E+02  0.73497580666E+02  0.00000000000E+00 0.  1.
         21    1    1    2  505  501 -0.62394648266E+02 -0.19882505125E+02  0.84084693967E+02  0.10657692950E+03  0.00000000000E+00 0.  1.
         21    1    1    2  506  502  0.35123444374E+02  0.43893334428E+02 -0.55142153922E+02  0.78746036669E+02  0.00000000000E+00 0.  1.
<scales pt_clust_3="71.61660" pt_clust_4="36.13617" pt_clust_5="14000.00000" pt_clust_6="56.21638"></scales>
<clustering>
<clus scale="   56.216">  2  6  1 -1</clus>
<clus scale="   36.136">  2  4  1 -1</clus>
<clus scale="   71.617">  1  3  2 -1</clus>
<clus scale="   71.617">  1  3  2 -1</clus>
</clustering>
</event>
<event>
 6    0  0.1463946E+003  0.6117426E+02  0.7546771E-02  0.1392969E+00
         21   -1    0    0  503  501  0.00000000000E+00  0.00000000000E+00  0.10010379960E+04  0.10010379960E+04  0.00000000000E+00 0.  1.
         21   -1    0    0  504  502 -0.00000000000E+00 -0.00000000000E+00 -0.32617814774E+03  0.32617814774E+03  0.00000000000E+00 0.  1.
         21    1    1    2  503  505 -0.90377897363E+01  0.53576703766E+02  0.57819792149E+03  0.58074519476E+03  0.00000000000E+00 0.  1.
         21    1    1    2  504  506  0.84084996254E+01 -0.53112659181E+02 -0.55667605896E+01  0.54061504370E+02  0.00000000000E+00 0. -1.
         21    1    1    2  505  502 -0.38971996741E+02  0.84876193935E+02 -0.28187849536E+03  0.29694826313E+03  0.00000000000E+00 0.  1.
         21    1    1    2  506  501  0.39601286852E+02 -0.85340238520E+02  0.38410718271E+03  0.39546118146E+03  0.00000000000E+00 0.  1.
<scales pt_clust_3="14000.00000" pt_clust_4="53.77413" pt_clust_5="45.12014" pt_clust_6="61.17426"></scales>
<clustering>
<clus scale="   53.774">  2  4  1 -1</clus>
<clus scale="   45.120">  2  5  1 -1</clus>
<clus scale="   61.174">  2  6  1 -1</clus>
<clus scale="   61.174">  1  3  2 -1</clus>
</clustering>
</event>
<event>
 6    0  0.1463946E+003  0.6685980E+02  0.7546771E-02  0.1371109E+00
         21   -1    0    0  503  501  0.00000000000E+00  0.00000000000E+00  0.49221211317E+03  0.49221211317E+03  0.00000000000E+00 0. -1.
         21   -1    0    0  504  502 -0.00000000000E+00 -0.00000000000E+00 -0.87400606933E+02  0.87400606933E+02  0.00000000000E+00 0. -1.
         21    1    1    2  503  502  0.80900640187E+02 -0.29873998091E+02  0.16432626621E+03  0.18558149453E+03  0.00000000000E+00 0. -1.
         21    1    1    2  504  506 -0.59957330461E+02  0.25187466121E+02 -0.47314705373E+02  0.80423698436E+02  0.00000000000E+00 0. -1.
         21    1    1    2  505  501  0.26877693749E+02 -0.30032105073E+02  0.22003083183E+03  0.22369153921E+03  0.00000000000E+00 0. -1.
         21    1    1    2  506  505 -0.47821003475E+02  0.34718637043E+02  0.67769113561E+02  0.89915987924E+02  0.00000000000E+00 0.  1.
<scales pt_clust_3="66.85980" pt_clust_4="14000.00000" pt_clust_5="40.30307" pt_clust_6="47.67130"></scales>
<clustering>
<clus scale="   40.303">  1  5  2 -1</clus>
<clus scale="   47.671">  1  6  2 -1</clus>
<clus scale="   66.860">  1  3  2 -1</clus>
<clus scale="   40.303">  1  3  2 -1</clus>
</clustering>
</event>
<event>
 6    0  0.1463946E+003  0.1067281E+03  0.7546771E-02  0.1266752E+00
         21   -1    0    0  506  501  0.00000000000E+00  0.00000000000E+00  0.64215974232E+02  0.64215974232E+02  0.00000000000E+00 0. -1.
         21   -1    0    0  504  502 -0.00000000000E+00 -0.00000000000E+00 -0.59758768295E+03  0.59758768295E+03  0.00000000000E+00 0. -1.
         21    1    1    2  503  501  0.47353462554E+02  0.34269943602E+01  0.29288501891E+01  0.47567561107E+02  0.00000000000E+00 0. -1.
         21    1    1    2  504  503  0.11253948028E+03  0.14530282077E+01 -0.19190254822E+03  0.22247209696E+03  0.00000000000E+00 0. -1.
         21    1    1    2  505  502 -0.38080599356E+02  0.74941003900E+01 -0.19392445676E+03  0.19777003948E+03  0.00000000000E+00 0. -1.
         21    1    1    2  506  505 -0.12181234348E+03 -0.12374122958E+02 -0.15047355393E+03  0.19399395964E+03  0.00000000000E+00 0. -1.
<scales pt_clust_3="45.40080" pt_clust_4="106.72815" pt_clust_5="38.81100" pt_clust_6="14000.00000"></scales>
<clustering>
<clus scale="   38.811">  2  5  1 -1</clus>
<clus scale="   45.401">  1  3  2 -1</clus>
<clus scale="  106.728">  2  4  1 -1</clus>
<clus scale="   45.401">  1  3  2 -1</clus>
</clustering>
</event>
<event>
 6    0  0.1463946E+003  0.1530261E+03  0.7546771E-02  0.1196803E+00
         21   -1    0    0  503  501  0.00000000000E+00  0.00000000000E+00  0.36789192741E+03  0.36789192741E+03  0.00000000000E+00 0.  1.
         21   -1    0    0  504  502 -0.00000000000E+00 -0.00000000000E+00 -0.59906578554E+03  0.59906578554E+03  0.00000000000E+00 0. -1.
         21    1    1    2  503  502 -0.65029182130E+02 -0.75265986790E+01 -0.76582141805E+02  0.10074854172E+03  0.00000000000E+00 0. -1.
         21    1    1    2  504  505  0.20082560194E+00  0.33929733752E+02 -0.71645799523E+02  0.79274130413E+02  0.00000000000E+00 0. -1.
         21    1    1    2  505  506 -0.40246482988E+02  0.73864005376E+02 -0.41556307902E+03  0.42399097081E+03  0.00000000000E+00 0. -1.
         21    1    1    2  506  501  0.10507483952E+03 -0.10026714045E+03  0.33261716222E+03  0.36294407001E+03  0.00000000000E+00 0.  1.
<scales pt_clust_3="65.46330" pt_clust_4="32.87984" pt_clust_5="32.87984" pt_clust_6="144.00294"></scales>
<clustering>
<clus scale="   32.880">  4  5 -1 -1</clus>
<clus scale="   65.463">  2  3  1 -1</clus>
<clus scale="  144.003">  1  6  2 -1</clus>
<clus scale="  144.003">  1  3  2 -1</clus>
</clustering>
</event>
<event>
 6    0  0.1463946E+003  0.9608158E+02  0.7546771E-02  0.1288759E+00
         21   -1    0    0  505  501  0.00000000000E+00  0.00000000000E+00  0.53277060274E+02  0.53277060274E+02  0.00000000000E+00 0. -1.
         21   -1    0    0  504  502 -0.00000000000E+00 -0.00000000000E+00 -0.77090983818E+03  0.77090983818E+03  0.00000000000E+00 0. -1.
         21    1    1    2  503  506 -0.84241067832E+02 -0.17350418441E+02 -0.28042465638E+03  0.29331822725E+03  0.00000000000E+00 0. -1.
         21    1    1    2  504  501  0.87779101867E+02  0.12329160579E+03 -0.23421293641E+03  0.27885783181E+03  0.00000000000E+00 0. -1.
         21    1    1    2  505  503 -0.19789229671E+02 -0.79808936321E+02 -0.50617425165E+02  0.96556738025E+02  0.00000000000E+00 0. -1.
         21    1    1    2  506  502  0.16251195637E+02 -0.26132251031E+02 -0.15237775995E+03  0.15545410137E+03  0.00000000000E+00 0. -1.
<scales pt_clust_3="82.16378" pt_clust_4="14000.00000" pt_clust_5="96.08158" pt_clust_6="30.77330"></scales>
<clustering>
<clus scale="   30.773">  2  6  1 -1</clus>
<clus scale="   82.164">  2  3  1 -1</clus>
<clus scale="   96.082">  1  5  2 -1</clus>
<clus scale="   96.082">  1  3  2 -1</clus>
</clustering>
</event>
<event>
 6    0  0.1463946E+003  0.1061393E+03  0.7546771E-02  0.1267891E+00
         21   -1    0    0  506  501  0.00000000000E+00  0.00000000000E+00  0.55945491540E+03  0.55945491540E+03  0.00000000000E+00 0.  1.
         21   -1    0    0  503  502 -0.00000000000E+00 -0.00000000000E+00 -0.13383821453E+03  0.13383821453E+03  0.00000000000E+00 0.  1.
         21    1    1    2  503  501 -0.31368799356E+02 -0.50059820418E+02 -0.67971483981E+02  0.90056148196E+02  0.00000000000E+00 0.  1.
         21    1    1    2  504  502  0.18777389308E+02  0.45454918728E+02 -0.48208453033E+01  0.49416399456E+02  0.00000000000E+00 0.  1.
         21    1    1    2  505  504 -0.17351584693E+02  0.84170613287E+02  0.54321520814E+02  0.10166905752E+03  0.00000000000E+00 0.  1.
         21    1    1    2  506  505  0.29942994742E+02 -0.79565711597E+02  0.44408750934E+03  0.45215152476E+03  0.00000000000E+00 0.  1.
<scales pt_clust_3="59.07611" pt_clust_4="45.21006" pt_clust_5="45.21006" pt_clust_6="87.71467"></scales>
<clustering>
<clus scale="   45.210">  4  5 -1 -1</clus>
<clus scale="   59.076">  2  3  1 -1</clus>
<clus scale="   87.715">  1  6  2 -1</clus>
<clus scale="   87.715">  1  3  2 -1</clus>
</clustering>
</event>
<event>
 6    0  0.1463946E+003  0.1598015E+03  0.7546771E-02  0.1188921E+00
         21   -1    0    0  503  501  0.00000000000E+00  0.00000000000E+00  0.12412367651E+04  0.12412367651E+04  0.00000000000E+00 0.  1.
         21   -1    0    0  506  502 -0.00000000000E+00 -0.00000000000E+00 -0.14280743699E+04  0.14280743699E+04  0.00000000000E+00 0. -1.
         21    1    1    2  503  505  0.11277611209E+02 -0.58705724131E+02  0.11204044712E+04  0.11219980952E+04  0.00000000000E+00 0.  1.
         21    1    1    2  504  501 -0.35106202969E+02  0.21125588852E+03  0.70652094811E+01  0.21426948711E+03  0.00000000000E+00 0. -1.
         21    1    1    2  505  502  0.61923305286E+02 -0.15745682335E+03 -0.82155870377E+03  0.83880024481E+03  0.00000000000E+00 0. -1.
         21    1    1    2  506  504 -0.38094713526E+02  0.49066589608E+01 -0.49274858174E+03  0.49424330780E+03  0.00000000000E+00 0. -1.
<scales pt_clust_3="59.76892" pt_clust_4="14000.00000" pt_clust_5="159.80155" pt_clust_6="38.40941"></scales>
<clustering>
<clus scale="   38.409">  2  6  1 -1</clus>
<clus scale="   59.769">  1  3  2 -1</clus>
<clus scale="  159.802">  2  5  1 -1</clus>
<clus scale="   59.769">  1  3  2 -1</clus>
</clustering>
</event>
<event>
 6    0  0.1463946E+003  0.8162745E+02  0.7546771E-02  0.1324495E+00
         21   -1    0    0  505  501  0.00000000000E+00  0.00000000000E+00  0.13581379501E+03  0.13581379501E+03  0.00000000000E+00 0. -1.
         21   -1    0    0  504  502 -0.00000000000E+00 -0.00000000000E+00 -0.14197803619E+04  0.14197803619E+04  0.00000000000E+00 0. -1.
         21    1    1    2  503  501 -0.68531533951E+02 -0.79601959122E+02 -0.51860676067E+03  0.52913704770E+03  0.00000000000E+00 0. -1.
         21    1    1    2  504  503  0.17232476275E+02  0.63285309997E+02 -0.82188956444E+03  0.82450254386E+03  0.00000000000E+00 0. -1.
         21    1    1    2  505  506  0.67051960821E+02  0.45664894828E+02  0.11137417924E+03  0.13778772032E+03  0.00000000000E+00 0. -1.
         21    1    1    2  506  502 -0.15752903145E+02 -0.29348245704E+02 -0.54844420967E+02  0.64166844979E+02  0.00000000000E+00 0.  1.
<scales pt_clust_3="81.62745" pt_clust_4="46.17114" pt_clust_5="14000.00000" pt_clust_6="33.30876"></scales>
<clustering>
<clus scale="   33.309">  2  6  1 -1</clus>
<clus scale="   46.171">  2  4  1 -1</clus>
<clus scale="   81.627">  2  3  1 -1</clus>
<clus scale="   81.627">  1  3  2 -1</clus>
</clustering>
</event>
<event>
 6    0  0.1463946E+003  0.6347419E+02  0.7546771E-02  0.1383805E+00
         21   -1    0    0  504  501  0.00000000000E+00  0.00000000000E+00  0.21128649816E+03  0.21128649816E+03  0.00000000000E+00 0. -1.
         21   -1    0    0  503  502 -0.00000000000E+00 -0.00000000000E+00 -0.11066246333E+03  0.11066246333E+03  0.00000000000E+00 0. -1.
         21    1    1    2  503  506 -0.46027226995E+02 -0.35721335638E+02 -0.31510624828E+02  0.66237745445E+02  0.00000000000E+00 0. -1.
         21    1    1    2  504  502  0.61017803280E+02 -0.60532930444E+02  0.50089846031E+02  0.99480654706E+02  0.00000000000E+00 0. -1.
         21    1    1    2  505  501 -0.47989639111E+02  0.32162175870E+02  0.20048693605E+02  0.61150315894E+02  0.00000000000E+00 0. -1.
         21    1    1    2  506  505  0.32999062826E+02  0.64092090212E+02  0.61996120019E+02  0.95080245438E+02  0.00000000000E+00 0. -1.
<scales pt_clust_3="60.37143" pt_clust_4="63.47419" pt_clust_5="57.77033" pt_clust_6="14000.00000"></scales>
<clustering>
<clus scale="   57.770">  1  5  2 -1</clus>
<clus scale="   60.371">  2  3  1 -1</clus>
<clus scale="   63.474">  1  4  2 -1</clus>
<clus scale="   57.770">  1  3  2 -1</clus>
</clustering>
</event>
<event>
 6    0  0.1463946E+003  0.1178321E+03  0.7546771E-02  0.1246717E+00
         21   -1    0    0  505  501  0.00000000000E+00  0.00000000000E+00  0.64348097013E+03  0.64348097013E+03  0.00000000000E+00 0. -1.
         21   -1    0    0  506  502 -0.00000000000E+00 -0.00000000000E+00 -0.11169455446E+03  0.11169455446E+03  0.00000000000E+00 0. -1.
         21    1    1    2  503  502  0.67865400802E+02 -0.10059358103E+03  0.80265250679E+02  0.14548983345E+03  0.00000000000E+00 0. -1.
         21    1    1    2  504  503 -0.17564954178E+02  0.10699656109E+03  0.17860432294E+03  0.20894089086E+03  0.00000000000E+00 0. -1.
         21    1    1    2  505  504  0.28222039447E+02  0.54582447754E+02  0.29294855005E+03  0.29932353748E+03  0.00000000000E+00 0. -1.
         21    1    1    2  506  501 -0.78522486072E+02 -0.60985427817E+02 -0.20031707999E+02  0.10142126281E+03  0.00000000000E+00 0. -1.
<scales pt_clust_3="117.83206" pt_clust_4="14000.00000" pt_clust_5="61.44695" pt_clust_6="92.93857"></scales>
<clustering>
<clus scale="   61.447">  1  5  2 -1</clus>
<clus scale="   92.939">  2  6  1 -1</clus>
<clus scale="  117.832">  2  3  1 -1</clus>
<clus scale="   61.447">  1  3  2 -1</clus>
</clustering>
</event>
<event>
 6    0  0.1463946E+003  0.7554402E+02  0.7546771E-02  0.1342195E+00
         21   -1    0    0  503  501  0.00000000000E+00  0.00000000000E+00  0.85410592350E+03  0.85410592350E+03  0.00000000000E+00 0.  1.
         21   -1    0    0  504  502 -0.00000000000E+00 -0.00000000000E+00 -0.53552528799E+03  0.53552528799E+03  0.00000000000E+00 0.  1.
         21    1    1    2  503  506 -0.57895695065E+02 -0.10029584024E+03  0.78498524600E+03  0.79348157099E+03  0.00000000000E+00 0.  1.
         21    1    1    2  504  505 -0.22955156798E+01  0.12558166218E+03 -0.39188447589E+03  0.41152091771E+03  0.00000000000E+00 0.  1.
         21    1    1    2  505  501  0.20753529813E+02  0.36954264641E+02  0.33394448940E+02  0.53958464534E+02  0.00000000000E+00 0. -1.
         21    1    1    2  506  502  0.39437680932E+02 -0.62240086577E+02 -0.10791458353E+03  0.13067025826E+03  0.00000000000E+00 0. -1.
<scales pt_clust_3="75.54402" pt_clust_4="14000.00000" pt_clust_5="42.38309" pt_clust_6="73.40240"></scales>
<clustering>
<clus scale="   42.383">  1  5  2 -1</clus>
<clus scale="   73.402">  2  6  1 -1</clus>
<clus scale="   75.544">  1  3  2 -1</clus>
<clus scale="   42.383">  1  3  2 -1</clus>
</clustering>
</event>
<event>
 6    0  0.1463946E+003  0.9704870E+02  0.7546771E-02  0.1286627E+00
         21   -1    0    0  506  501  0.00000000000E+00  0.00000000000E+00  0.17407391667E+04  0.17407391667E+04  0.00000000000E+00 0.  1.
         21   -1    0    0  503  502 -0.00000000000E+00 -0.00000000000E+00 -0.54241704848E+03  0.54241704848E+03  0.00000000000E+00 0. -1.
         21    1    1    2  503  505 -0.37104959479E+02 -0.73534972470E+02  0.55340593292E+03  0.55950182911E+03  0.00000000000E+00 0.  1.
         21    1    1    2  504  502  0.48242811112E+02  0.84343321911E+02 -0.53215440018E+03  0.54095237351E+03  0.00000000000E+00 0. -1.
         21    1    1    2  505  501 -0.57954620630E+02 -0.14109925094E+01  0.87119372146E+03  0.87312039792E+03  0.00000000000E+00 0.  1.
         21    1    1    2  506  504  0.46816768997E+02 -0.93973569317E+01  0.30587686398E+03  0.30958161459E+03  0.00000000000E+00 0. -1.
<scales pt_clust_3="97.04870" pt_clust_4="14000.00000" pt_clust_5="30.31165" pt_clust_6="47.75060"></scales>
<clustering>
<clus scale="   47.751">  1  6  2 -1</clus>
<clus scale="   30.312">  1  5  2 -1</clus>
<clus scale="   97.049">  1  3  2 -1</clus>
<clus scale="   47.751">  1  3  2 -1</clus>
</clustering>
</event>
<event>
 6    0  0.1463946E+003  0.6504865E+02  0.7546771E-02  0.1377789E+00
         21   -1    0    0  506  501  0.00000000000E+00  0.00000000000E+00  0.25900405412E+03  0.25900405412E+03  0.00000000000E+00 0.  1.
         21   -1    0    0  504  502 -0.00000000000E+00 -0.00000000000E+00 -0.11428637582E+03  0.11428637582E+03  0.00000000000E+00 0. -1.
         21    1    1    2  503  502 -0.62101608835E+02  0.49970088412E+02 -0.29694506869E+02  0.85061056271E+02  0.00000000000E+00 0. -1.
         21    1    1    2  504  505  0.53669338522E+02 -0.15335431874E+02 -0.13747869371E+02  0.57485452772E+02  0.00000000000E+00 0.  1.
         21    1    1    2  505  501 -0.29598760270E+01 -0.83356395974E+02  0.12222701007E+03  0.14797463164E+03  0.00000000000E+00 0.  1.
         21    1    1    2  506  503  0.11392146341E+02  0.48721739436E+02  0.65933044468E+02  0.82769289261E+02  0.00000000000E+00 0.  1.
<scales pt_clust_3="65.04865" pt_clust_4="14000.00000" pt_clust_5="48.01110" pt_clust_6="50.03588"></scales>
<clustering>
<clus scale="   50.036">  1  6  2 -1</clus>
<clus scale="   48.011">  1  5  2 -1</clus>
<clus scale="   65.049">  1  3  2 -1</clus>
<clus scale="   50.036">  1  3  2 -1</clus>
</clustering>
</event>
<event>
 6    0  0.1463946E+003  0.6731777E+02  0.7546771E-02  0.1369459E+00
         21   -1    0    0  505  501  0.00000000000E+00  0.00000000000E+00  0.77076559868E+02  0.77076559868E+02  0.00000000000E+00 0.  1.
         21   -1    0    0  503  502 -0.00000000000E+00 -0.00000000000E+00 -0.60327594563E+03  0.60327594563E+03  0.00000000000E+00 0.  1.
         21    1    1    2  503  506 -0.29812499839E-01  0.60259685879E+02 -0.27442993543E+03  0.28096800545E+03  0.00000000000E+00 0.  1.
         21    1    1    2  504  502  0.60228751656E+02 -0.80211404357E+02 -0.26183130196E+03  0.28038723687E+03  0.00000000000E+00 0.  1.
         21    1    1    2  505  504 -0.10129538696E+02  0.38022928543E+02  0.41489318107E+02  0.57181414517E+02  0.00000000000E+00 0.  1.
         21    1    1    2  506  501 -0.50069400460E+02 -0.18071210064E+02 -0.31427466486E+02  0.61815848658E+02  0.00000000000E+00 0.  1.
<scales pt_clust_3="14000.00000" pt_clust_4="67.31777" pt_clust_5="39.34909" pt_clust_6="55.68564"></scales>
<clustering>
<clus scale="   39.349">  1  5  2 -1</clus>
<clus scale="   55.686">  1  6  2 -1</clus>
<clus scale="   67.318">  1  4  2 -1</clus>
<clus scale="   39.349">  1  3  2 -1</clus>
</clustering>
</event>
<event>
 6    0  0.1463946E+003  0.1008371E+03  0.7546771E-02  0.1278545E+00
         21   -1    0    0  504  501  0.00000000000E+00  0.00000000000E+00  0.10817997058E+03  0.10817997058E+03  0.00000000000E+00 0.  1.
         21   -1    0    0  503  502 -0.00000000000E+00 -0.00000000000E+00 -0.24131377256E+03  0.24131377256E+03  0.00000000000E+00 0.  1.
         21    1    1    2  503  505 -0.64644689259E+00 -0.37658658661E+02 -0.55456896276E+02  0.67037749144E+02  0.00000000000E+00 0.  1.
         21    1    1    2  504  506 -0.33620611180E+02  0.83304190106E+01  0.31489678721E+02  0.46811763938E+02  0.00000000000E+00 0.  1.
         21    1    1    2  505  501 -0.51841855774E+02 -0.63113539968E+02 -0.32749916185E+02  0.87996897374E+02  0.00000000000E+00 0.  1.
         21    1    1    2  506  502  0.86108913847E+02  0.92441779618E+02 -0.76416668242E+02  0.14764733268E+03  0.00000000000E+00 0.  1.
<scales pt_clust_3="37.12210" pt_clust_4="34.63728" pt_clust_5="100.83710" pt_clust_6="14000.00000"></scales>
<clustering>
<clus scale="   34.637">  1  4  2 -1</clus>
<clus scale="   37.122">  2  3  1 -1</clus>
<clus scale="  100.837">  1  5  2 -1</clus>
<clus scale="   34.637">  1  3  2 -1</clus>
</clustering>
</event>
<event>
 6    0  0.1463946E+003  0.1836378E+03  0.7546771E-02  0.1164328E+00
         21   -1    0    0  505  501  0.00000000000E+00  0.00000000000E+00  0.32113129848E+03  0.32113129848E+03  0.00000000000E+00 0. -1.
         21   -1    0    0  504  502 -0.00000000000E+00 -0.00000000000E+00 -0.67237021193E+03  0.67237021193E+03  0.00000000000E+00 0. -1.
         21    1    1    2  503  506 -0.12312819258E+03  0.83518222202E+02  0.14211741569E+03  0.20575034651E+03  0.00000000000E+00 0. -1.
         21    1    1    2  504  501  0.15880929467E+03 -0.10667701596E+03 -0.57139330621E+03  0.60257006911E+03  0.00000000000E+00 0. -1.
         21    1    1    2  505  503 -0.22416723744E+01  0.59446393128E+02  0.11093204439E+03  0.12587619800E+03  0.00000000000E+00 0. -1.
         21    1    1    2  506  502 -0.33439429709E+02 -0.36287599374E+02 -0.32895067325E+02  0.59304896779E+02  0.00000000000E+00 0. -1.
<scales pt_clust_3="183.63784" pt_clust_4="14000.00000" pt_clust_5="59.07249" pt_clust_6="49.34557"></scales>
<clustering>
<clus scale="   49.346">  2  6  1 -1</clus>
<clus scale="   59.072">  1  5  2 -1</clus>
<clus scale="  183.638">  1  3  2 -1</clus>
<clus scale="   59.072">  1  3  2 -1</clus>
</clustering>
</event>
<event>
 6    0  0.1463946E+003  0.9873133E+02  0.7546771E-02  0.1282987E+00
         21   -1    0    0  505  501  0.00000000000E+00  0.00000000000E+00  0.13588492128E+04  0.13588492128E+04  0.00000000000E+00 0.  1.
         21   -1    0    0  503  502 -0.00000000000E+00 -0.00000000000E+00 -0.30092879496E+02  0.30092879496E+02  0.00000000000E+00 0.  1.
         21    1    1    2  503  504  0.17549508118E+02  0.37883496965E+02  0.11469902868E+02  0.43297843472E+02  0.00000000000E+00 0.  1.
         21    1    1    2  504  501  0.10190960170E+03  0.34103195942E+02  0.43613934597E+03  0.44918384210E+03  0.00000000000E+00 0.  1.
         21    1    1    2  505  506 -0.34400597670E+02 -0.11925739356E+02  0.50067620733E+03  0.50199829578E+03  0.00000000000E+00 0.  1.
         21    1    1    2  506  502 -0.85058512152E+02 -0.60060953551E+02  0.38047087717E+03  0.39446211099E+03  0.00000000000E+00 0.  1.
<scales pt_clust_3="40.95221" pt_clust_4="98.73133" pt_clust_5="36.40912" pt_clust_6="14000.00000"></scales>
<clustering>
<clus scale="   36.409">  1  5  2 -1</clus>
<clus scale="   40.952">  2  3  1 -1</clus>
<clus scale="   98.731">  1  4  2 -1</clus>
<clus scale="   36.409">  1  3  2 -1</clus>
</clustering>
</event>
<event>
 6    0  0.1463946E+003  0.7005505E+02  0.7546771E-02  0.1359906E+00
         21   -1    0    0  504  501  0.00000000000E+00  0.00000000000E+00  0.17587883226E+03  0.17587883226E+03  0.00000000000E+00 0. -1.
         21   -1    0    0  506  502 -0.00000000000E+00 -0.00000000000E+00 -0.12404220170E+03  0.12404220170E+03  0.00000000000E+00 0. -1.
         21    1    1    2  503  502 -0.33782459494E+02  0.68239909469E+02 -0.31989673390E+02  0.82591034728E+02  0.00000000000E+00 0. -1.
         21    1    1    2  504  503 -0.45002878922E+02  0.11411600609E+02  0.22674852222E+02  0.51668488104E+02  0.00000000000E+00 0. -1.
         21    1    1    2  505  501  0.91505136308E+02 -0.41861527299E+02  0.72710428309E+02  0.12414662228E+03  0.00000000000E+00 0. -1.
         21    1    1    2  506  505 -0.12719797892E+02 -0.37789982779E+02 -0.11558976585E+02  0.41514888854E+02  0.00000000000E+00 0. -1.
<scales pt_clust_3="14000.00000" pt_clust_4="47.25050" pt_clust_5="70.05505" pt_clust_6="39.87325"></scales>
<clustering>
<clus scale="   39.873">  2  6  1 -1</clus>
<clus scale="   47.250">  1  4  2 -1</clus>
<clus scale="   70.055">  1  5  2 -1</clus>
<clus scale="   47.250">  1  3  2 -1</clus>
</clustering>
</event>
<event>
 6    0  0.1463946E+003  0.1030686E+03  0.7546771E-02  0.1273972E+00
         21   -1    0    0  502  501  0.00000000000E+00  0.00000000000E+00  0.12140528642E+04  0.12140528642E+04  0.00000000000E+00 0. -1.
         21   -1    0    0  504  502 -0.00000000000E+00 -0.00000000000E+00 -0.51920312334E+03  0.51920312334E+03  0.00000000000E+00 0. -1.
         21    1    1    2  503  505 -0.20112861460E+02 -0.56935432064E+02 -0.13284464721E+01  0.60398140620E+02  0.00000000000E+00 0.  1.
         21    1    1    2  504  503 -0.15290123130E+02 -0.50134818853E+02 -0.46473011827E+03  0.46767656640E+03  0.00000000000E+00 0. -1.
         21    1    1    2  505  506  0.53362103813E+02  0.15101737584E+03  0.27680534290E+03  0.31980456498E+03  0.00000000000E+00 0. -1.
         21    1    1    2  506  501 -0.17959119223E+02 -0.43947124918E+02  0.88410296273E+03  0.88537671556E+03  0.00000000000E+00 0. -1.
<scales pt_clust_3="103.06860" pt_clust_4="52.62607" pt_clust_5="14000.00000" pt_clust_6="47.47504"></scales>
<clustering>
<clus scale="   47.475">  1  6  2 -1</clus>
<clus scale="   52.626">  2  4  1 -1</clus>
<clus scale="  103.069">  2  3  1 -1</clus>
<clus scale="   47.475">  1  3  2 -1</clus>
</clustering>
</event>
<event>
 6    0  0.1463946E+003  0.1254796E+03  0.7546771E-02  0.1234322E+00
         21   -1    0    0  503  501  0.00000000000E+00  0.00000000000E+00  0.32084045644E+02  0.32084045644E+02  0.00000000000E+00 0. -1.
         21   -1    0    0  504  502 -0.00000000000E+00 -0.00000000000E+00 -0.17654368171E+04  0.17654368171E+04  0.00000000000E+00 0. -1.
         21    1    1    2  503  506 -0.33540714399E+02  0.96354571942E+02 -0.37866605989E+03  0.39216982032E+03  0.00000000000E+00 0. -1.
         21    1    1    2  504  505 -0.24022796592E+02 -0.16229864221E+03 -0.56748957597E+03  0.59073036392E+03  0.00000000000E+00 0. -1.
         21    1    1    2  505  501  0.92744698913E+02  0.15442609980E+02 -0.16921688916E+03  0.19358308024E+03  0.00000000000E+00 0. -1.
         21    1    1    2  506  502 -0.35181187922E+02  0.50501460284E+02 -0.61798024640E+03  0.62103759823E+03  0.00000000000E+00 0. -1.
<scales pt_clust_3="125.47957" pt_clust_4="14000.00000" pt_clust_5="90.27106" pt_clust_6="61.54765"></scales>
<clustering>
<clus scale="   61.548">  2  6  1 -1</clus>
<clus scale="   90.271">  1  5  2 -1</clus>
<clus scale="  125.480">  1  3  2 -1</clus>
<clus scale="   90.271">  1  3  2 -1</clus>
</clustering>
</event>
<event>
 6    0  0.1608928E+003  0.8191800E+02  0.7546771E-02  0.1323695E+00
         21   -1    0    0  503  501  0.00000000000E+00  0.00000000000E+00  0.76557111628E+03  0.76557111628E+03  0.00000000000E+00 0.  1.
         21   -1    0    0  504  502 -0.00000000000E+00 -0.00000000000E+00 -0.81619622395E+03  0.81619622395E+03  0.00000000000E+00 0.  1.
         21    1    1    2  503  506 -0.89400406837E+01 -0.84570867639E+02 -0.55905923881E+03  0.56549039645E+03  0.00000000000E+00 0.  1.
         21    1    1    2  504  505 -0.40098637851E+01 -0.30392809421E+02 -0.12172087231E+02  0.32984262606E+02  0.00000000000E+00 0.  1.
         21    1    1    2  505  501  0.42910303176E+02  0.69804248905E+02  0.74650281076E+03  0.75098626736E+03  0.00000000000E+00 0.  1.
         21    1    1    2  506  502 -0.29960398707E+02  0.45159428155E+02 -0.22589659239E+03  0.23230641381E+03  0.00000000000E+00 0.  1.
<scales pt_clust_3="14000.00000" pt_clust_4="30.65619" pt_clust_5="81.91800" pt_clust_6="47.87737"></scales>
<clustering>
<clus scale="   30.656">  2  4  1 -1</clus>
<clus scale="   47.877">  2  6  1 -1</clus>
<clus scale="   81.918">  1  5  2 -1</clus>
<clus scale="   81.918">  1  3  2 -1</clus>
</clustering>
</event>
<event>
 6    0  0.1463946E+003  0.1024144E+03  0.7546771E-02  0.1275299E+00
         21   -1    0    0  506  501  0.00000000000E+00  0.00000000000E+00  0.75419700449E+03  0.75419700449E+03  0.00000000000E+00 0.  1.
         21   -1    0    0  503  502 -0.00000000000E+00 -0.00000000000E+00 -0.12487399629E+04  0.12487399629E+04  0.00000000000E+00 0.  1.
         21    1    1    2  503  501  0.76391094295E+01 -0.83727370780E+02  0.18983875159E+03  0.20762316878E+03  0.00000000000E+00 0.  1.
         21    1    1    2  504  502 -0.13987712345E+01 -0.40089465856E+02 -0.10098973533E+04  0.10106937152E+04  0.00000000000E+00 0.  1.
         21    1    1    2  505  504 -0.60416871512E+02  0.13554319974E+02 -0.21839743969E+03  0.22700519733E+03  0.00000000000E+00 0.  1.
         21    1    1    2  506  505  0.54176533317E+02  0.11026251666E+03  0.54391308296E+03  0.55761488606E+03  0.00000000000E+00 0.  1.
<scales pt_clust_3="102.41436" pt_clust_4="40.11386" pt_clust_5="66.18470" pt_clust_6="14000.00000"></scales>
<clustering>
<clus scale="   40.114">  2  4  1 -1</clus>
<clus scale="   66.185">  2  5  1 -1</clus>
<clus scale="  102.414">  2  3  1 -1</clus>
<clus scale="  102.414">  1  3  2 -1</clus>
</clustering>
</event>
<event>
 6    0  0.1463946E+003  0.1759374E+03  0.7546771E-02  0.1171794E+00
         21   -1    0    0  503  501  0.00000000000E+00  0.00000000000E+00  0.51638503939E+03  0.51638503939E+03  0.00000000000E+00 0. -1.
         21   -1    0    0  504  502 -0.00000000000E+00 -0.00000000000E+00 -0.52019233605E+03  0.52019233605E+03  0.00000000000E+00 0. -1.
         21    1    1    2  503  506 -0.29663517199E+02  0.27320557816E+02  0.16119408055E+03  0.16616217601E+03  0.00000000000E+00 0. -1.
         21    1    1    2  504  505 -0.14343008546E+03  0.10564062744E+03 -0.37161029184E+03  0.41209991578E+03  0.00000000000E+00 0. -1.
         21    1    1    2  505  501  0.20344233775E+03  0.32603543789E+02  0.20403974606E+03  0.28997240184E+03  0.00000000000E+00 0. -1.
         21    1    1    2  506  502 -0.30348735094E+02 -0.16556472905E+03  0.25691685798E+01  0.16834288180E+03  0.00000000000E+00 0. -1.
<scales pt_clust_3="40.32787" pt_clust_4="14000.00000" pt_clust_5="175.93735" pt_clust_6="163.31735"></scales>
<clustering>
<clus scale="   40.328">  1  3  2 -1</clus>
<clus scale="  163.317">  1  6  2 -1</clus>
<clus scale="  175.937">  1  5  2 -1</clus>
<clus scale="   40.328">  1  3  2 -1</clus>
</clustering>
</event>
<event>
 6    0  0.1463946E+003  0.1551096E+03  0.7546771E-02  0.1194331E+00
         21   -1    0    0  505  501  0.00000000000E+00  0.00000000000E+00  0.19328099066E+03  0.19328099066E+03  0.00000000000E+00 0. -1.
         21   -1    0    0  504  502 -0.00000000000E+00 -0.00000000000E+00 -0.13216924120E+04  0.13216924120E+04  0.00000000000E+00 0.  1.
         21    1    1    2  503  501  0.55978557130E+02  0.57769298209E+02  0.14722019581E+03  0.16776375273E+03  0.00000000000E+00 0. -1.
         21    1    1    2  504  506 -0.13083385028E+03 -0.12976925469E+03 -0.83908990079E+03  0.85908638532E+03  0.00000000000E+00 0.  1.
         21    1    1    2  505  502  0.29321222289E+02 -0.15423896676E+02 -0.36457234700E+03  0.36607461925E+03  0.00000000000E+00 0.  1.
         21    1    1    2  506  503  0.45534070856E+02  0.87423853156E+02 -0.71969369411E+02  0.12204864540E+03  0.00000000000E+00 0. -1.
<scales pt_clust_3="80.54275" pt_clust_4="155.10964" pt_clust_5="33.13051" pt_clust_6="14000.00000"></scales>
<clustering>
<clus scale="   33.131">  2  5  1 -1</clus>
<clus scale="   80.543">  1  3  2 -1</clus>
<clus scale="  155.110">  2  4  1 -1</clus>
<clus scale="   80.543">  1  3  2 -1</clus>
</clustering>
</event>
<event>
 6    0  0.1463946E+003  0.8091527E+02  0.7546771E-02  0.1326474E+00
         21   -1    0    0  504  501  0.00000000000E+00  0.00000000000E+00  0.77337318399E+03  0.77337318399E+03  0.00000000000E+00 0.  1.
         21   -1    0    0  503  502 -0.00000000000E+00 -0.00000000000E+00 -0.11710837410E+03  0.11710837410E+03  0.00000000000E+00 0. -1.
         21    1    1    2  503  506  0.94521994970E+02 -0.15757791403E+02 -0.59329969090E+02  0.11270652490E+03  0.00000000000E+00 0. -1.
         21    1    1    2  504  505 -0.76207186806E+02  0.61874609908E+02  0.44960792966E+03  0.46019918849E+03  0.00000000000E+00 0. -1.
         21    1    1    2  505  502 -0.41763714912E+02  0.21262081828E+02  0.51363394731E+01  0.47145158713E+02  0.00000000000E+00 0. -1.
         21    1    1    2  506  501  0.23448906748E+02 -0.67378900333E+02  0.26085050985E+03  0.27043068599E+03  0.00000000000E+00 0.  1.
<scales pt_clust_3="57.23487" pt_clust_4="80.91527" pt_clust_5="46.86453" pt_clust_6="14000.00000"></scales>
<clustering>
<clus scale="   46.865">  2  5  1 -1</clus>
<clus scale="   57.235">  2  3  1 -1</clus>
<clus scale="   80.915">  2  4  1 -1</clus>
<clus scale="   80.915">  1  3  2 -1</clus>
</clustering>
</event>
<event>
 6    0  0.1463946E+003  0.7709668E+02  0.7546771E-02  0.1337499E+00
         21   -1    0    0  504  501  0.00000000000E+00  0.00000000000E+00  0.22268024154E+03  0.22268024154E+03  0.00000000000E+00 0.  1.
         21   -1    0    0  506  502 -0.00000000000E+00 -0.00000000000E+00 -0.12714396660E+04  0.12714396660E+04  0.00000000000E+00 0. -1.
         21    1    1    2  503  502 -0.17435727910E+02  0.74912170960E+02 -0.12261436993E+04  0.12285537063E+04  0.00000000000E+00 0. -1.
         21    1    1    2  504  505  0.31585766916E+02 -0.23115194954E+02  0.93379789267E+02  0.10125096520E+03  0.00000000000E+00 0.  1.
         21    1    1    2  505  503 -0.41131477258E+02  0.32294773886E+02  0.38708674539E+02  0.65062372585E+02  0.00000000000E+00 0.  1.
         21    1    1    2  506  501  0.26981438253E+02 -0.84091749892E+02  0.45295811015E+02  0.99252863463E+02  0.00000000000E+00 0.  1.
<scales pt_clust_3="14000.00000" pt_clust_4="39.14043" pt_clust_5="36.10901" pt_clust_6="77.09668"></scales>
<clustering>
<clus scale="   39.140">  1  4  2 -1</clus>
<clus scale="   36.109">  1  5  2 -1</clus>
<clus scale="   77.097">  1  6  2 -1</clus>
<clus scale="   39.140">  1  3  2 -1</clus>
</clustering>
</event>
<event>
 6    0  0.1463946E+003  0.1205723E+03  0.7546771E-02  0.1242156E+00
         21   -1    0    0  504  501  0.00000000000E+00  0.00000000000E+00  0.21770722576E+04  0.21770722576E+04  0.00000000000E+00 0. -1.
         21   -1    0    0  505  502 -0.00000000000E+00 -0.00000000000E+00 -0.10207345693E+04  0.10207345693E+04  0.00000000000E+00 0. -1.
         21    1    1    2  503  501  0.31653328659E+02  0.17166373247E+02  0.45289611301E+03  0.45432533142E+03  0.00000000000E+00 0.  1.
         21    1    1    2  504  502 -0.70355381504E+02  0.90665642113E+02  0.12040718674E+04  0.12095285033E+04  0.00000000000E+00 0. -1.
         21    1    1    2  505  506 -0.68054194334E+02 -0.23064343913E+00 -0.10049990195E+04  0.10073005787E+04  0.00000000000E+00 0. -1.
         21    1    1    2  506  503  0.10675624718E+03 -0.10760137192E+03  0.50436872737E+03  0.52665241355E+03  0.00000000000E+00 0.  1.
<scales pt_clust_3="36.00858" pt_clust_4="120.57226" pt_clust_5="68.03341" pt_clust_6="14000.00000"></scales>
<clustering>
<clus scale="   36.009">  1  3  2 -1</clus>
<clus scale="   68.033">  2  5  1 -1</clus>
<clus scale="  120.572">  1  4  2 -1</clus>
<clus scale="   36.009">  1  3  2 -1</clus>
</clustering>
</event>
<event>
 6    0  0.1463946E+003  0.8634769E+02  0.7546771E-02  0.1311945E+00
         21   -1    0    0  503  501  0.00000000000E+00  0.00000000000E+00  0.23542562495E+02  0.23542562495E+02  0.00000000000E+00 0.  1.
         21   -1    0    0  506  502 -0.00000000000E+00 -0.00000000000E+00 -0.88583824416E+03  0.88583824416E+03  0.00000000000E+00 0.  1.
         21    1    1    2  503  502  0.20805900605E+02 -0.68768911701E+02 -0.95226765110E+02  0.11929034123E+03  0.00000000000E+00 0.  1.
         21    1    1    2  504  505  0.17561976483E+02  0.11325634530E+03 -0.42743321741E+03  0.44253200801E+03  0.00000000000E+00 0.  1.
         21    1    1    2  505  501 -0.30489882847E+02 -0.12377022618E+02 -0.91648805160E+02  0.97377241346E+02  0.00000000000E+00 0.  1.
         21    1    1    2  506  504 -0.78779942416E+01 -0.32110410982E+02 -0.24798689399E+03  0.25018121608E+03  0.00000000000E+00 0.  1.
<scales pt_clust_3="86.34769" pt_clust_4="14000.00000" pt_clust_5="32.90629" pt_clust_6="34.11529"></scales>
<clustering>
<clus scale="   32.906">  1  5  2 -1</clus>
<clus scale="   34.115">  2  6  1 -1</clus>
<clus scale="   86.348">  1  3  2 -1</clus>
<clus scale="   32.906">  1  3  2 -1</clus>
</clustering>
</event>
<event>
 6    0  0.1463946E+003  0.2223535E+03  0.7546771E-02  0.1132141E+00
         21   -1    0    0  504  501  0.00000000000E+00  0.00000000000E+00  0.47603140946E+03  0.47603140946E+03  0.00000000000E+00 0. -1.
         21   -1    0    0  503  502 -0.00000000000E+00 -0.00000000000E+00 -0.84389184153E+03  0.84389184153E+03  0.00000000000E+00 0. -1.
         21    1    1    2  503  506  0.46325270012E+02 -0.50736315648E+02 -0.54330879279E+03  0.54763550715E+03  0.00000000000E+00 0. -1.
         21    1    1    2  504  502 -0.81559327319E+02  0.72131868474E+02 -0.86346779612E+02  0.13896293273E+03  0.00000000000E+00 0. -1.
         21    1    1    2  505  501 -0.15800919181E+03  0.14574174476E+03  0.30607789543E+03  0.37402037234E+03  0.00000000000E+00 0. -1.
         21    1    1    2  506  505  0.19324324911E+03 -0.16713729759E+03 -0.44282755094E+02  0.25930443878E+03  0.00000000000E+00 0. -1.
<scales pt_clust_3="68.70374" pt_clust_4="83.13767" pt_clust_5="14000.00000" pt_clust_6="222.35348"></scales>
<clustering>
<clus scale="   68.704">  2  3  1 -1</clus>
<clus scale="   83.138">  2  4  1 -1</clus>
<clus scale="  222.353">  2  6  1 -1</clus>
<clus scale="  222.353">  1  3  2 -1</clus>
</clustering>
</event>
<event>
 6    0  0.1463946E+003  0.8451582E+02  0.7546771E-02  0.1316704E+00
         21   -1    0    0  505  501  0.00000000000E+00  0.00000000000E+00  0.55859257315E+03  0.55859257315E+03  0.00000000000E+00 0. -1.
         21   -1    0    0  506  502 -0.00000000000E+00 -0.00000000000E+00 -0.11317797029E+03  0.11317797029E+03  0.00000000000E+00 0. -1.
         21    1    1    2  503  504  0.83506313213E+02  0.29436962013E+02  0.61046485678E+02  0.10754772193E+03  0.00000000000E+00 0. -1.
         21    1    1    2  504  502  0.35670670315E+02  0.20722615069E+02 -0.40663285164E+02  0.57925178087E+02  0.00000000000E+00 0. -1.
         21    1    1    2  505  503 -0.56710033690E+02  0.33866413433E+02  0.39050204726E+03  0.39604900050E+03  0.00000000000E+00 0. -1.
         21    1    1    2  506  501 -0.62466949838E+02 -0.84025990516E+02  0.34529355084E+02  0.11024864292E+03  0.00000000000E+00 0. -1.
<scales pt_clust_3="84.51582" pt_clust_4="41.25316" pt_clust_5="65.20323" pt_clust_6="14000.00000"></scales>
<clustering>
<clus scale="   41.253">  2  4  1 -1</clus>
<clus scale="   65.203">  1  5  2 -1</clus>
<clus scale="   84.516">  1  3  2 -1</clus>
<clus scale="   65.203">  1  3  2 -1</clus>
</clustering>
</event>
<event>
 6    0  0.1463946E+003  0.1965859E+03  0.7546771E-02  0.1152652E+00
         21   -1    0    0  504  501  0.00000000000E+00  0.00000000000E+00  0.55167033675E+03  0.55167033675E+03  0.00000000000E+00 0. -1.
         21   -1    0    0  503  502 -0.00000000000E+00 -0.00000000000E+00 -0.26495901472E+04  0.26495901472E+04  0.00000000000E+00 0. -1.
         21    1    1    2  503  505 -0.15351301866E+03 -0.29994260642E+03 -0.75363408929E+03  0.82552780364E+03  0.00000000000E+00 0.  1.
         21    1    1    2  504  506 -0.43333933484E+02 -0.98901326824E+02  0.87035471247E+02  0.13868841153E+03  0.00000000000E+00 0.  1.
         21    1    1    2  505  501  0.74651229715E+02  0.27439652743E+03  0.34787826463E+03  0.44931675616E+03  0.00000000000E+00 0. -1.
         21    1    1    2  506  502  0.12219572243E+03  0.12444740581E+03 -0.17791994570E+04  0.17877275126E+04  0.00000000000E+00 0. -1.
<scales pt_clust_3="196.58592" pt_clust_4="107.97825" pt_clust_5="14000.00000" pt_clust_6="173.42993"></scales>
<clustering>
<clus scale="  107.978">  1  4  2 -1</clus>
<clus scale="  173.430">  2  6  1 -1</clus>
<clus scale="  196.586">  2  3  1 -1</clus>
<clus scale="  107.978">  1  3  2 -1</clus>
</clustering>
</event>
<event>
 6    0  0.1463946E+003  0.7893469E+02  0.7546771E-02  0.1332102E+00
         21   -1    0    0  505  501  0.00000000000E+00  0.00000000000E+00  0.26597180881E+03  0.26597180881E+03  0.00000000000E+00 0. -1.
         21   -1    0    0  503  502 -0.00000000000E+00 -0.00000000000E+00 -0.11681929565E+03  0.11681929565E+03  0.00000000000E+00 0. -1.
         21    1    1    2  503  506  0.22452330655E+02 -0.38208761568E+02 -0.49670844037E+02  0.66567329522E+02  0.00000000000E+00 0. -1.
         21    1    1    2  504  501  0.79582160357E+02 -0.10372986344E+02  0.15031168936E+03  0.17039519668E+03  0.00000000000E+00 0. -1.
         21    1    1    2  505  502 -0.76164667603E+02 -0.63375252708E+01  0.21584054817E+02  0.79417203677E+02  0.00000000000E+00 0. -1.
         21    1    1    2  506  504 -0.25869823408E+02  0.54919273183E+02  0.26927613020E+02  0.66411374576E+02  0.00000000000E+00 0. -1.
<scales pt_clust_3="44.31723" pt_clust_4="78.93469" pt_clust_5="14000.00000" pt_clust_6="45.88439"></scales>
<clustering>
<clus scale="   44.317">  2  3  1 -1</clus>
<clus scale="   45.884">  2  6  1 -1</clus>
<clus scale="   78.935">  1  4  2 -1</clus>
<clus scale="   78.935">  1  3  2 -1</clus>
</clustering>
</event>
<event>
 6    0  0.1463946E+003  0.1113526E+03  0.7546771E-02  0.1258085E+00
         21   -1    0    0  504  501  0.00000000000E+00  0.00000000000E+00  0.13454295661E+03  0.13454295661E+03  0.00000000000E+00 0. -1.
         21   -1    0    0  505  502 -0.00000000000E+00 -0.00000000000E+00 -0.84686430458E+03  0.84686430458E+03  0.00000000000E+00 0.  1.
         21    1    1    2  503  501  0.81063876669E+02 -0.11050668019E+02  0.61774733209E+02  0.10251627689E+03  0.00000000000E+00 0. -1.
         21    1    1    2  504  506 -0.55491751699E+02  0.51394134370E+01  0.14991007154E+02  0.57710296937E+02  0.00000000000E+00 0. -1.
         21    1    1    2  505  503 -0.58622909589E+02 -0.98965059750E+02 -0.34443383034E+03  0.36313274716E+03  0.00000000000E+00 0. -1.
         21    1    1    2  506  502  0.33050784619E+02  0.10487631433E+03 -0.44465325800E+03  0.45804794020E+03  0.00000000000E+00 0.  1.
<scales pt_clust_3="35.29244" pt_clust_4="55.72924" pt_clust_5="14000.00000" pt_clust_6="111.35258"></scales>
<clustering>
<clus scale="   55.729">  1  4  2 -1</clus>
<clus scale="   35.292">  1  3  2 -1</clus>
<clus scale="  111.353">  2  6  1 -1</clus>
<clus scale="   55.729">  1  3  2 -1</clus>
</clustering>
</event>
<event>
 6    0  0.1463946E+003  0.1562125E+03  0.7546771E-02  0.1193040E+00
         21   -1    0    0  505  501  0.00000000000E+00  0.00000000000E+00  0.18018637264E+04  0.18018637264E+04  0.00000000000E+00 0.  1.
         21   -1    0    0  506  502 -0.00000000000E+00 -0.00000000000E+00 -0.15232322113E+03  0.15232322113E+03  0.00000000000E+00 0. -1.
         21    1    1    2  503  501  0.79950924573E+01 -0.36175864904E+02  0.18838717707E+03  0.19199568534E+03  0.00000000000E+00 0. -1.
         21    1    1    2  504  502 -0.15824126331E+02  0.16940467515E+03  0.16348588806E+03  0.23595758630E+03  0.00000000000E+00 0. -1.
         21    1    1    2  505  504  0.30612200022E+02  0.18677660488E+02  0.13599927759E+04  0.13604654763E+04  0.00000000000E+00 0.  1.
         21    1    1    2  506  503 -0.22783166148E+02 -0.15190647074E+03 -0.62325335753E+02  0.16576819957E+03  0.00000000000E+00 0. -1.
<scales pt_clust_3="35.21287" pt_clust_4="14000.00000" pt_clust_5="35.86031" pt_clust_6="156.21247"></scales>
<clustering>
<clus scale="   35.860">  1  5  2 -1</clus>
<clus scale="   35.213">  1  3  2 -1</clus>
<clus scale="  156.212">  2  6  1 -1</clus>
<clus scale="   35.860">  1  3  2 -1</clus>
</clustering>
</event>
<event>
 6    0  0.1463946E+003  0.9740958E+02  0.7546771E-02  0.1285840E+00
         21   -1    0    0  503  501  0.00000000000E+00  0.00000000000E+00  0.19786510430E+04  0.19786510430E+04  0.00000000000E+00 0. -1.
         21   -1    0    0  506  502 -0.00000000000E+00 -0.00000000000E+00 -0.38046757519E+03  0.38046757519E+03  0.00000000000E+00 0. -1.
         21    1    1    2  503  504  0.13455625711E+02  0.79085533852E+02  0.12505561656E+04  0.12531266093E+04  0.00000000000E+00 0. -1.
         21    1    1    2  504  505 -0.10474348020E+03 -0.56724891237E+02  0.49063375096E+03  0.50488650954E+03  0.00000000000E+00 0.  1.
         21    1    1    2  505  502 -0.19476829737E+01  0.54893876231E+02 -0.35378505081E+03  0.35802373286E+03  0.00000000000E+00 0. -1.
         21    1    1    2  506  501  0.93235537463E+02 -0.77254518846E+02  0.21077860204E+03  0.24308176650E+03  0.00000000000E+00 0.  1.
<scales pt_clust_3="83.03851" pt_clust_4="97.40958" pt_clust_5="54.92842" pt_clust_6="14000.00000"></scales>
<clustering>
<clus scale="   54.928">  2  5  1 -1</clus>
<clus scale="   83.039">  1  3  2 -1</clus>
<clus scale="   97.410">  1  4  2 -1</clus>
<clus scale="   83.039">  1  3  2 -1</clus>
</clustering>
</event>
<event>
 6    0  0.1463946E+003  0.9462236E+02  0.7546771E-02  0.1292029E+00
         21   -1    0    0  506  501  0.00000000000E+00  0.00000000000E+00  0.97147273759E+03  0.97147273759E+03  0.00000000000E+00 0.  1.
         21   -1    0    0  505  502 -0.00000000000E+00 -0.00000000000E+00 -0.44107244484E+03  0.44107244484E+03  0.00000000000E+00 0.  1.
         21    1    1    2  503  501  0.29723334150E+02  0.46112146587E+01  0.14815896674E+03  0.15118141195E+03  0.00000000000E+00 0.  1.
         21    1    1    2  504  502 -0.44262524045E+02  0.25397335662E+02 -0.40526182985E+02  0.65165690367E+02  0.00000000000E+00 0.  1.
         21    1    1    2  505  503  0.97327103002E+02  0.52270297821E+02 -0.37448821902E+03  0.39044356212E+03  0.00000000000E+00 0.  1.
         21    1    1    2  506  504 -0.82787913107E+02 -0.82278848142E+02  0.79725572802E+03  0.80575451799E+03  0.00000000000E+00 0.  1.
<scales pt_clust_3="30.07889" pt_clust_4="50.68002" pt_clust_5="14000.00000" pt_clust_6="94.62236"></scales>
<clustering>
<clus scale="   30.079">  1  3  2 -1</clus>
<clus scale="   50.680">  2  4  1 -1</clus>
<clus scale="   94.622">  1  6  2 -1</clus>
<clus scale="   30.079">  1  3  2 -1</clus>
</clustering>
</event>
<event>
 6    0  0.1463946E+003  0.1695237E+03  0.7546771E-02  0.1178345E+00
         21   -1    0    0  504  501  0.00000000000E+00  0.00000000000E+00  0.10570176569E+04  0.10570176569E+04  0.00000000000E+00 0.  1.
         21   -1    0    0  506  502 -0.00000000000E+00 -0.00000000000E+00 -0.16483769581E+04  0.16483769581E+04  0.00000000000E+00 0. -1.
         21    1    1    2  503  502 -0.12998115706E+03 -0.10815201049E+03 -0.15898326304E+04  0.15987994718E+04  0.00000000000E+00 0. -1.
         21    1    1    2  504  503  0.11690895295E+03 -0.10776466247E+02  0.10479760216E+03  0.15737335519E+03  0.00000000000E+00 0. -1.
         21    1    1    2  505  501  0.40976890271E+02  0.95971365038E+02  0.90527620380E+03  0.91127087828E+03  0.00000000000E+00 0.  1.
         21    1    1    2  506  505 -0.27904686167E+02  0.22957111701E+02 -0.11600476753E+02  0.37950909720E+02  0.00000000000E+00 0. -1.
<scales pt_clust_3="169.52369" pt_clust_4="14000.00000" pt_clust_5="104.37205" pt_clust_6="36.13448"></scales>
<clustering>
<clus scale="   36.134">  2  6  1 -1</clus>
<clus scale="  104.372">  1  5  2 -1</clus>
<clus scale="  169.524">  2  3  1 -1</clus>
<clus scale="  104.372">  1  3  2 -1</clus>
</clustering>
</event>
<event>
 6    0  0.1463946E+003  0.9313209E+02  0.7546771E-02  0.1295439E+00
         21   -1    0    0  505  501  0.00000000000E+00  0.00000000000E+00  0.17798307934E+03  0.17798307934E+03  0.00000000000E+00 0. -1.
         21   -1    0    0  503  502 -0.00000000000E+00 -0.00000000000E+00 -0.45378413710E+03  0.45378413710E+03  0.00000000000E+00 0.  1.
         21    1    1    2  503  506 -0.44086449287E+02  0.50012973442E+02 -0.24904236447E+03  0.25781196990E+03  0.00000000000E+00 0.  1.
         21    1    1    2  504  501 -0.27749959593E+02  0.25927395814E+02  0.68353570385E+02  0.78195272846E+02  0.00000000000E+00 0. -1.
         21    1    1    2  505  502  0.81099311641E+01 -0.12169742863E+03  0.49187873668E+02  0.13151228853E+03  0.00000000000E+00 0. -1.
         21    1    1    2  506  504  0.63726477716E+02  0.45757059377E+02 -0.14430013734E+03  0.16424768516E+03  0.00000000000E+00 0.  1.
<scales pt_clust_3="68.25325" pt_clust_4="37.97749" pt_clust_5="93.13209" pt_clust_6="14000.00000"></scales>
<clustering>
<clus scale="   37.977">  1  4  2 -1</clus>
<clus scale="   68.253">  2  3  1 -1</clus>
<clus scale="   93.132">  1  5  2 -1</clus>
<clus scale="   37.977">  1  3  2 -1</clus>
</clustering>
</event>
<event>
 6    0  0.1463946E+003  0.1332255E+03  0.7546771E-02  0.1222747E+00
         21   -1    0    0  504  501  0.00000000000E+00  0.00000000000E+00  0.93154751617E+03  0.93154751617E+03  0.00000000000E+00 0. -1.
         21   -1    0    0  503  502 -0.00000000000E+00 -0.00000000000E+00 -0.77751741339E+02  0.77751741339E+02  0.00000000000E+00 0. -1.
         21    1    1    2  503  505 -0.92282850032E+02  0.12983647179E+03  0.13570858218E+03  0.20926168568E+03  0.00000000000E+00 0. -1.
         21    1    1    2  504  506  0.95217600787E+01 -0.29840910503E+02  0.80946442182E+02  0.86795566457E+02  0.00000000000E+00 0. -1.
         21    1    1    2  505  501 -0.23576834980E+02 -0.38621878910E+02  0.57287908271E+03  0.57466334500E+03  0.00000000000E+00 0. -1.
         21    1    1    2  506  502  0.10633792493E+03 -0.61373682376E+02  0.64261667762E+02  0.13857866037E+03  0.00000000000E+00 0. -1.
<scales pt_clust_3="14000.00000" pt_clust_4="31.32322" pt_clust_5="61.26454" pt_clust_6="133.22547"></scales>
<clustering>
<clus scale="   31.323">  1  4  2 -1</clus>
<clus scale="   61.265">  1  5  2 -1</clus>
<clus scale="  133.225">  2  6  1 -1</clus>
<clus scale="   31.323">  1  3  2 -1</clus>
</clustering>
</event>
<event>
 6    0  0.1463946E+003  0.1845460E+03  0.7546771E-02  0.1163475E+00
         21   -1    0    0  504  501  0.00000000000E+00  0.00000000000E+00  0.47518337377E+02  0.47518337377E+02  0.00000000000E+00 0. -1.
         21   -1    0    0  505  502 -0.00000000000E+00 -0.00000000000E+00 -0.85182491051E+03  0.85182491051E+03  0.00000000000E+00 0. -1.
         21    1    1    2  503  501 -0.35418880852E+02 -0.40936095375E+01 -0.58623367852E+02  0.68614532121E+02  0.00000000000E+00 0. -1.
         21    1    1    2  504  506  0.60294830100E+02 -0.14429427859E+02 -0.77538203952E+02  0.99276623620E+02  0.00000000000E+00 0. -1.
         21    1    1    2  505  503 -0.12215626981E+03 -0.55780639076E+02 -0.53057393926E+03  0.54730461259E+03  0.00000000000E+00 0. -1.
         21    1    1    2  506  502  0.97280320557E+02  0.74303676472E+02 -0.13757106207E+03  0.18414747955E+03  0.00000000000E+00 0. -1.
<scales pt_clust_3="31.71367" pt_clust_4="53.45730" pt_clust_5="179.45174" pt_clust_6="53.45730"></scales>
<clustering>
<clus scale="   31.714">  3  5 -1 -1</clus>
<clus scale="   53.457">  4  6 -1 -1</clus>
<clus scale="  179.452">  2  3  1 -1</clus>
<clus scale="  184.546">  1  3  2 -1</clus>
</clustering>
</event>
<event>
 6    0  0.1463946E+003  0.9161660E+02  0.7546771E-02  0.1298983E+00
         21   -1    0    0  505  501  0.00000000000E+00  0.00000000000E+00  0.33361773380E+02  0.33361773380E+02  0.00000000000E+00 0.  1.
         21   -1    0    0  503  502 -0.00000000000E+00 -0.00000000000E+00 -0.24590815481E+04  0.24590815481E+04  0.00000000000E+00 0.  1.
         21    1    1    2  503  506  0.30284887127E+02 -0.11064065838E+02 -0.39876439341E+03  0.40006578133E+03  0.00000000000E+00 0.  1.
         21    1    1    2  504  502 -0.11448952024E+03  0.52252202318E+02 -0.17979739659E+04  0.18023730260E+04  0.00000000000E+00 0.  1.
         21    1    1    2  505  504  0.14016737790E+02 -0.28122397374E+02  0.15695905658E+02  0.35124060511E+02  0.00000000000E+00 0.  1.
         21    1    1    2  506  501  0.70187895319E+02 -0.13065739105E+02 -0.24467732102E+03  0.25488045357E+03  0.00000000000E+00 0.  1.
<scales pt_clust_3="34.15545" pt_clust_4="91.61660" pt_clust_5="31.42194" pt_clust_6="14000.00000"></scales>
<clustering>
<clus scale="   31.422">  1  5  2 -1</clus>
<clus scale="   34.155">  2  3  1 -1</clus>
<clus scale="   91.617">  2  4  1 -1</clus>
<clus scale="   31.422">  1  3  2 -1</clus>
</clustering>
</event>
<event>
 6    0  0.1463946E+003  0.7760990E+02  0.7546771E-02  0.1335974E+00
         21   -1    0    0  504  501  0.00000000000E+00  0.00000000000E+00  0.44920312600E+03  0.44920312600E+03  0.00000000000E+00 0. -1.
         21   -1    0    0  503  502 -0.00000000000E+00 -0.00000000000E+00 -0.39113303701E+03  0.39113303701E+03  0.00000000000E+00 0. -1.
         21    1    1    2  503  506  0.12925845858E+03  0.11413092799E+02  0.20895191955E+02  0.13143293670E+03  0.00000000000E+00 0. -1.
         21    1    1    2  504  505 -0.56538786411E+02  0.14044900466E+02 -0.17834108698E+03  0.18761512973E+03  0.00000000000E+00 0. -1.
         21    1    1    2  505  502  0.57702660301E+00 -0.37649250363E+02 -0.14673809587E+03  0.15149213772E+03  0.00000000000E+00 0. -1.
         21    1    1    2  506  501 -0.73296698776E+02  0.12191257099E+02  0.36225407988E+03  0.36979595886E+03  0.00000000000E+00 0. -1.
<scales pt_clust_3="14000.00000" pt_clust_4="57.92604" pt_clust_5="37.65367" pt_clust_6="77.60990"></scales>
<clustering>
<clus scale="   37.654">  2  5  1 -1</clus>
<clus scale="   57.926">  2  4  1 -1</clus>
<clus scale="   77.610">  1  6  2 -1</clus>
<clus scale="   77.610">  1  3  2 -1</clus>
</clustering>
</event>
<event>
 6    0  0.1463946E+003  0.1159351E+03  0.7546771E-02  0.1249958E+00
         21   -1    0    0  503  501  0.00000000000E+00  0.00000000000E+00  0.36460681394E+03  0.36460681394E+03  0.00000000000E+00 0. -1.
         21   -1    0    0  505  502 -0.00000000000E+00 -0.00000000000E+00 -0.24454002717E+03  0.24454002717E+03  0.00000000000E+00 0. -1.
         21    1    1    2  503  504 -0.10703569956E+03  0.39912867781E+02  0.28094743122E+03  0.30328392160E+03  0.00000000000E+00 0. -1.
         21    1    1    2  504  502  0.63993609710E+02  0.55242004854E+02 -0.17279033858E+03  0.19236258028E+03  0.00000000000E+00 0. -1.
         21    1    1    2  505  506 -0.30962906435E+01 -0.38369883895E+02 -0.37509988524E+01  0.38676931087E+02  0.00000000000E+00 0. -1.
         21    1    1    2  506  501  0.46138380493E+02 -0.56784988740E+02  0.15660692991E+02  0.74823408140E+02  0.00000000000E+00 0. -1.
<scales pt_clust_3="107.73824" pt_clust_4="84.53911" pt_clust_5="31.05813" pt_clust_6="31.05813"></scales>
<clustering>
<clus scale="   31.058">  5  6 -1 -1</clus>
<clus scale="   84.539">  2  4  1 -1</clus>
<clus scale="  107.738">  1  3  2 -1</clus>
<clus scale="  107.738">  1  3  2 -1</clus>
</clustering>
</event>
<event>
 6    0  0.1463946E+003  0.1502678E+03  0.7546771E-02  0.1200144E+00
         21   -1    0    0  504  501  0.00000000000E+00  0.00000000000E+00  0.23665038603E+03  0.23665038603E+03  0.00000000000E+00 0. -1.
         21   -1    0    0  503  502 -0.00000000000E+00 -0.00000000000E+00 -0.14172045820E+04  0.14172045820E+04  0.00000000000E+00 0. -1.
         21    1    1    2  503  505  0.39622614875E+02  0.25817273737E+01 -0.10907410280E+04  0.10914635161E+04  0.00000000000E+00 0. -1.
         21    1    1    2  504  506 -0.20764374042E+02  0.13302893182E+03  0.38767375203E+02  0.14010983302E+03  0.00000000000E+00 0. -1.
         21    1    1    2  505  501 -0.44768884147E+02 -0.16684208104E+03  0.93567767660E+02  0.19645727306E+03  0.00000000000E+00 0. -1.
         21    1    1    2  506  502  0.25910643314E+02  0.31231421855E+02 -0.22214831087E+03  0.22582434583E+03  0.00000000000E+00 0. -1.
<scales pt_clust_3="39.70664" pt_clust_4="14000.00000" pt_clust_5="150.26785" pt_clust_6="62.54327"></scales>
<clustering>
<clus scale="   39.707">  2  3  1 -1</clus>
<clus scale="   62.543">  2  6  1 -1</clus>
<clus scale="  150.268">  2  5  1 -1</clus>
<clus scale="  150.268">  1  3  2 -1</clus>
</clustering>
</event>
<event>
 6    0  0.1463946E+003  0.3307060E+03  0.7546771E-02  0.1070825E+00
         21   -1    0    0  503  501  0.00000000000E+00  0.00000000000E+00  0.14018112763E+04  0.14018112763E+04  0.00000000000E+00 0. -1.
         21   -1    0    0  505  502 -0.00000000000E+00 -0.00000000000E+00 -0.17587838546E+03  0.17587838546E+03  0.00000000000E+00 0.  1.
         21    1    1    2  503  502  0.15628144402E+03 -0.28863487737E+03  0.77680955772E+03  0.84330722228E+03  0.00000000000E+00 0. -1.
         21    1    1    2  504  506 -0.15189529688E+03  0.28741632606E+03  0.92099266131E+02  0.33787956511E+03  0.00000000000E+00 0.  1.
         21    1    1    2  505  504  0.31634053424E+02  0.25386726667E+02  0.39262056261E+01  0.40750635792E+02  0.00000000000E+00 0. -1.
         21    1    1    2  506  501 -0.36020200568E+02 -0.24168175352E+02  0.35309786139E+03  0.35575223859E+03  0.00000000000E+00 0. -1.
<scales pt_clust_3="330.70596" pt_clust_4="14000.00000" pt_clust_5="40.56106" pt_clust_6="43.03629"></scales>
<clustering>
<clus scale="   40.561">  2  5  1 -1</clus>
<clus scale="   43.036">  1  6  2 -1</clus>
<clus scale="  330.706">  1  3  2 -1</clus>
<clus scale="   43.036">  1  3  2 -1</clus>
</clustering>
</event>
<event>
 6    0  0.1463946E+003  0.7376710E+02  0.7546771E-02  0.1347732E+00
         21   -1    0    0  504  501  0.00000000000E+00  0.00000000000E+00  0.46987480385E+03  0.46987480385E+03  0.00000000000E+00 0. -1.
         21   -1    0    0  503  502 -0.00000000000E+00 -0.00000000000E+00 -0.17973526211E+04  0.17973526211E+04  0.00000000000E+00 0. -1.
         21    1    1    2  503  506 -0.39914980763E+02  0.88442189381E+01 -0.14188087690E+04  0.14193976711E+04  0.00000000000E+00 0. -1.
         21    1    1    2  504  502  0.20651189837E+02 -0.33425957534E+02  0.95733187724E+02  0.10348241160E+03  0.00000000000E+00 0. -1.
         21    1    1    2  505  501 -0.78495644000E+02  0.76426037725E+02  0.35331246292E+03  0.36990836950E+03  0.00000000000E+00 0. -1.
         21    1    1    2  506  505  0.97759434926E+02 -0.51844299129E+02 -0.35771469897E+03  0.37443897277E+03  0.00000000000E+00 0. -1.
<scales pt_clust_3="40.86130" pt_clust_4="39.29079" pt_clust_5="73.76710" pt_clust_6="14000.00000"></scales>
<clustering>
<clus scale="   39.291">  1  4  2 -1</clus>
<clus scale="   40.861">  2  3  1 -1</clus>
<clus scale="   73.767">  1  5  2 -1</clus>
<clus scale="   39.291">  1  3  2 -1</clus>
</clustering>
</event>
<event>
 6    0  0.1463946E+003  0.1498134E+03  0.7546771E-02  0.1200702E+00
         21   -1    0    0  505  501  0.00000000000E+00  0.00000000000E+00  0.12641610923E+04  0.12641610923E+04  0.00000000000E+00 0.  1.
         21   -1    0    0  506  502 -0.00000000000E+00 -0.00000000000E+00 -0.87909672166E+02  0.87909672166E+02  0.00000000000E+00 0.  1.
         21    1    1    2  503  504 -0.24191523212E+02 -0.15086155017E+03  0.15923933078E+03  0.22068439361E+03  0.00000000000E+00 0.  1.
         21    1    1    2  504  502 -0.47922454788E+02 -0.13348955341E+02 -0.33921920590E+02  0.60211734555E+02  0.00000000000E+00 0.  1.
         21    1    1    2  505  503  0.48712480409E+02  0.14146929830E+03  0.99679818653E+03  0.10079648272E+04  0.00000000000E+00 0.  1.
         21    1    1    2  506  501  0.23401497591E+02  0.22741207212E+02  0.54135823369E+02  0.63209809103E+02  0.00000000000E+00 0. -1.
<scales pt_clust_3="149.81343" pt_clust_4="34.71524" pt_clust_5="14000.00000" pt_clust_6="32.63116"></scales>
<clustering>
<clus scale="   32.631">  2  6  1 -1</clus>
<clus scale="   34.715">  2  4  1 -1</clus>
<clus scale="  149.813">  2  3  1 -1</clus>
<clus scale="  149.813">  1  3  2 -1</clus>
</clustering>
</event>
<event>
 6    0  0.1463946E+003  0.1253715E+03  0.7546771E-02  0.1234490E+00
         21   -1    0    0  506  501  0.00000000000E+00  0.00000000000E+00  0.78795633724E+02  0.78795633724E+02  0.00000000000E+00 0. -1.
         21   -1    0    0  503  502 -0.00000000000E+00 -0.00000000000E+00 -0.16301528025E+04  0.16301528025E+04  0.00000000000E+00 0. -1.
         21    1    1    2  503  504 -0.75417531056E+02 -0.12752357459E+03 -0.24515686095E+03  0.28644711997E+03  0.00000000000E+00 0. -1.
         21    1    1    2  504  501 -0.11986637670E+02  0.43330657170E+02  0.43601817521E+02  0.62628618255E+02  0.00000000000E+00 0. -1.
         21    1    1    2  505  502 -0.26145267506E+02  0.27306680454E+02 -0.27235011077E+03  0.27496147484E+03  0.00000000000E+00 0. -1.
         21    1    1    2  506  505  0.11354943623E+03  0.56886236967E+02 -0.10774520145E+04  0.10849112231E+04  0.00000000000E+00 0. -1.
<scales pt_clust_3="125.37148" pt_clust_4="45.19168" pt_clust_5="37.80516" pt_clust_6="14000.00000"></scales>
<clustering>
<clus scale="   37.805">  2  5  1 -1</clus>
<clus scale="   45.192">  1  4  2 -1</clus>
<clus scale="  125.371">  1  3  2 -1</clus>
<clus scale="   45.192">  1  3  2 -1</clus>
</clustering>
</event>
<event>
 6    0  0.1463946E+003  0.1020016E+03  0.7546771E-02  0.1276142E+00
         21   -1    0    0  505  501  0.00000000000E+00  0.00000000000E+00  0.20278831852E+03  0.20278831852E+03  0.00000000000E+00 0.  1.
         21   -1    0    0  503  502 -0.00000000000E+00 -0.00000000000E+00 -0.13314823261E+03  0.13314823261E+03  0.00000000000E+00 0. -1.
         21    1    1    2  503  506  0.30062435691E+02 -0.22760556127E+02 -0.59012352975E+01  0.38165659079E+02  0.00000000000E+00 0.  1.
         21    1    1    2  504  501  0.54977900275E+02  0.98729386319E+02  0.11867393342E+03  0.16387057001E+03  0.00000000000E+00 0.  1.
         21    1    1    2  505  502 -0.31009152940E+02 -0.14021268343E+02 -0.38765557211E+02  0.51584221986E+02  0.00000000000E+00 0. -1.
         21    1    1    2  506  504 -0.54031183026E+02 -0.61947561849E+02 -0.43670550104E+01  0.82316100052E+02  0.00000000000E+00 0.  1.
<scales pt_clust_3="34.45786" pt_clust_4="102.00156" pt_clust_5="34.03180" pt_clust_6="14000.00000"></scales>
<clustering>
<clus scale="   34.032">  2  5  1 -1</clus>
<clus scale="   34.458">  2  3  1 -1</clus>
<clus scale="  102.002">  1  4  2 -1</clus>
<clus scale="  102.002">  1  3  2 -1</clus>
</clustering>
</event>
<event>
 6    0  0.1463946E+003  0.1020426E+03  0.7546771E-02  0.1276058E+00
         21   -1    0    0  505  501  0.00000000000E+00  0.00000000000E+00  0.22852827807E+03  0.22852827807E+03  0.00000000000E+00 0.  1.
         21   -1    0    0  503  502 -0.00000000000E+00 -0.00000000000E+00 -0.10851621557E+04  0.10851621557E+04  0.00000000000E+00 0.  1.
         21    1    1    2  503  506  0.26184079863E+02 -0.27100166935E+02 -0.77243753102E+03  0.77335616918E+03  0.00000000000E+00 0.  1.
         21    1    1    2  504  502  0.29945797315E+02  0.71166930655E+02 -0.25340464974E+03  0.26490639725E+03  0.00000000000E+00 0.  1.
         21    1    1    2  505  504  0.66877877325E+02 -0.52986579912E+02  0.32486997507E+02  0.91299688571E+02  0.00000000000E+00 0.  1.
         21    1    1    2  506  501 -0.12300775450E+03  0.89198161922E+01  0.13672130564E+03  0.18412817874E+03  0.00000000000E+00 0.  1.
<scales pt_clust_3="37.68322" pt_clust_4="70.99161" pt_clust_5="102.04260" pt_clust_6="14000.00000"></scales>
<clustering>
<clus scale="   37.683">  2  3  1 -1</clus>
<clus scale="   70.992">  2  4  1 -1</clus>
<clus scale="  102.043">  2  5  1 -1</clus>
<clus scale="  102.043">  1  3  2 -1</clus>
</clustering>
</event>
<event>
 6    0  0.1463946E+003  0.8207511E+02  0.7546771E-02  0.1323264E+00
         21   -1    0    0  504  501  0.00000000000E+00  0.00000000000E+00  0.96693930599E+03  0.96693930599E+03  0.00000000000E+00 0.  1.
         21   -1    0    0  505  502 -0.00000000000E+00 -0.00000000000E+00 -0.41501804975E+03  0.41501804975E+03  0.00000000000E+00 0. -1.
         21    1    1    2  503  501 -0.69018025600E+02 -0.42849823875E+02 -0.57691210208E+02  0.99638702316E+02  0.00000000000E+00 0.  1.
         21    1    1    2  504  506 -0.92218267671E+01  0.81493511048E+02  0.92491051613E+03  0.92853955074E+03  0.00000000000E+00 0.  1.
         21    1    1    2  505  503 -0.68719701039E+01  0.41872884790E+02 -0.10083637044E+03  0.10940080464E+03  0.00000000000E+00 0. -1.
         21    1    1    2  506  502  0.85111822471E+02 -0.80516571963E+02 -0.21446167925E+03  0.24437829804E+03  0.00000000000E+00 0. -1.
<scales pt_clust_3="77.75280" pt_clust_4="14000.00000" pt_clust_5="42.43303" pt_clust_6="82.07511"></scales>
<clustering>
<clus scale="   42.433">  2  5  1 -1</clus>
<clus scale="   77.753">  2  3  1 -1</clus>
<clus scale="   82.075">  2  6  1 -1</clus>
<clus scale="   82.075">  1  3  2 -1</clus>
</clustering>
</event>
<event>
 6    0  0.1463946E+003  0.1386754E+03  0.7546771E-02  0.1215123E+00
         21   -1    0    0  505  501  0.00000000000E+00  0.00000000000E+00  0.65205535110E+03  0.65205535110E+03  0.00000000000E+00 0. -1.
         21   -1    0    0  503  502 -0.00000000000E+00 -0.00000000000E+00 -0.17500721211E+03  0.17500721211E+03  0.00000000000E+00 0. -1.
         21    1    1    2  503  506  0.66482585733E+02  0.50275885571E+02  0.36581848641E+02  0.91026537481E+02  0.00000000000E+00 0. -1.
         21    1    1    2  504  502 -0.17984595152E+03  0.35672831698E+02 -0.71650600458E+02  0.19685254823E+03  0.00000000000E+00 0. -1.
         21    1    1    2  505  504  0.31701002885E+02 -0.10681809196E+02  0.31662456360E+02  0.46060457818E+02  0.00000000000E+00 0. -1.
         21    1    1    2  506  501  0.81662362904E+02 -0.75266908073E+02  0.48045443444E+03  0.49312301968E+03  0.00000000000E+00 0. -1.
<scales pt_clust_3="85.36128" pt_clust_4="14000.00000" pt_clust_5="33.45227" pt_clust_6="138.67539"></scales>
<clustering>
<clus scale="   33.452">  1  5  2 -1</clus>
<clus scale="   85.361">  2  3  1 -1</clus>
<clus scale="  138.675">  1  6  2 -1</clus>
<clus scale="   33.452">  1  3  2 -1</clus>
</clustering>
</event>
<event>
 6    0  0.1463946E+003  0.9552846E+02  0.7546771E-02  0.1289990E+00
         21   -1    0    0  503  501  0.00000000000E+00  0.00000000000E+00  0.12056505153E+04  0.12056505153E+04  0.00000000000E+00 0.  1.
         21   -1    0    0  505  502 -0.00000000000E+00 -0.00000000000E+00 -0.32978119841E+03  0.32978119841E+03  0.00000000000E+00 0.  1.
         21    1    1    2  503  504  0.96067513469E+02  0.29711443707E+02  0.75815241362E+03  0.76479201049E+03  0.00000000000E+00 0.  1.
         21    1    1    2  504  506 -0.37915526783E+02 -0.82659469834E+02  0.17211859452E+03  0.19466634456E+03  0.00000000000E+00 0.  1.
         21    1    1    2  505  501 -0.20650542886E+02  0.45139828385E+02  0.25724034533E+03  0.26198596202E+03  0.00000000000E+00 0.  1.
         21    1    1    2  506  502 -0.37501443800E+02  0.78081977430E+01 -0.31164203662E+03  0.31398739661E+03  0.00000000000E+00 0.  1.
<scales pt_clust_3="95.52846" pt_clust_4="14000.00000" pt_clust_5="52.99004" pt_clust_6="38.30569"></scales>
<clustering>
<clus scale="   38.306">  2  6  1 -1</clus>
<clus scale="   52.990">  1  5  2 -1</clus>
<clus scale="   95.528">  1  3  2 -1</clus>
<clus scale="   52.990">  1  3  2 -1</clus>
</clustering>
</event>
<event>
 6    0  0.1463946E+003  0.1843837E+03  0.7546771E-02  0.1163627E+00
         21   -1    0    0  504  501  0.00000000000E+00  0.00000000000E+00  0.62832043055E+03  0.62832043055E+03  0.00000000000E+00 0.  1.
         21   -1    0    0  503  502 -0.00000000000E+00 -0.00000000000E+00 -0.49634743134E+03  0.49634743134E+03  0.00000000000E+00 0.  1.
         21    1    1    2  503  501  0.41099309379E+02 -0.68469848910E+02  0.16149409599E+03  0.18015997469E+03  0.00000000000E+00 0.  1.
         21    1    1    2  504  506  0.42699533267E+02  0.16018977397E+02  0.37382051962E+03  0.37659213835E+03  0.00000000000E+00 0.  1.
         21    1    1    2  505  502  0.10728832447E+03 -0.10592529761E+03 -0.17057017037E+03  0.22765134804E+03  0.00000000000E+00 0.  1.
         21    1    1    2  506  505 -0.19108716712E+03  0.15837616912E+03 -0.23277144602E+03  0.34026440082E+03  0.00000000000E+00 0.  1.
<scales pt_clust_3="90.62529" pt_clust_4="45.60546" pt_clust_5="184.38371" pt_clust_6="14000.00000"></scales>
<clustering>
<clus scale="   45.605">  1  4  2 -1</clus>
<clus scale="   90.625">  1  3  2 -1</clus>
<clus scale="  184.384">  2  5  1 -1</clus>
<clus scale="   45.605">  1  3  2 -1</clus>
</clustering>
</event>
<event>
 6    0  0.1463946E+003  0.8975513E+02  0.7546771E-02  0.1303446E+00
         21   -1    0    0  505  501  0.00000000000E+00  0.00000000000E+00  0.16500509269E+04  0.16500509269E+04  0.00000000000E+00 0. -1.
         21   -1    0    0  503  502 -0.00000000000E+00 -0.00000000000E+00 -0.19880764734E+02  0.19880764734E+02  0.00000000000E+00 0. -1.
         21    1    1    2  503  506 -0.18735464152E+01  0.38102991896E+02  0.79822511344E+02  0.88470229370E+02  0.00000000000E+00 0. -1.
         21    1    1    2  504  502  0.49997734876E+02 -0.10974115084E+03  0.32182607516E+03  0.34367850724E+03  0.00000000000E+00 0. -1.
         21    1    1    2  505  504 -0.66253893612E+02 -0.83048087004E+01  0.44442122203E+03  0.44940935777E+03  0.00000000000E+00 0. -1.
         21    1    1    2  506  501  0.18129705152E+02  0.79942967643E+02  0.78410035361E+03  0.78837359723E+03  0.00000000000E+00 0. -1.
<scales pt_clust_3="38.14903" pt_clust_4="14000.00000" pt_clust_5="66.59048" pt_clust_6="89.75513"></scales>
<clustering>
<clus scale="   38.149">  2  3  1 -1</clus>
<clus scale="   66.590">  1  5  2 -1</clus>
<clus scale="   89.755">  1  6  2 -1</clus>
<clus scale="   66.590">  1  3  2 -1</clus>
</clustering>
</event>
<event>
 6    0  0.1463946E+003  0.8157303E+02  0.7546771E-02  0.1324646E+00
         21   -1    0    0  503  501  0.00000000000E+00  0.00000000000E+00  0.76056510996E+02  0.76056510996E+02  0.00000000000E+00 0.  1.
         21   -1    0    0  506  502 -0.00000000000E+00 -0.00000000000E+00 -0.19141192186E+04  0.19141192186E+04  0.00000000000E+00 0.  1.
         21    1    1    2  503  502 -0.39923526628E+02 -0.28211720107E+02 -0.67342531881E+02  0.83215417622E+02  0.00000000000E+00 0. -1.
         21    1    1    2  504  505  0.33062948966E+02  0.51617871186E+02 -0.81842212666E+02  0.10225317107E+03  0.00000000000E+00 0.  1.
         21    1    1    2  505  501  0.64732869444E+02  0.37062392130E+02  0.32450485482E+02  0.81344940254E+02  0.00000000000E+00 0.  1.
         21    1    1    2  506  504 -0.57872291782E+02 -0.60468543208E+02 -0.17213284485E+04  0.17233622006E+04  0.00000000000E+00 0.  1.
<scales pt_clust_3="48.88547" pt_clust_4="81.57303" pt_clust_5="34.16604" pt_clust_6="14000.00000"></scales>
<clustering>
<clus scale="   48.885">  1  3  2 -1</clus>
<clus scale="   34.166">  1  5  2 -1</clus>
<clus scale="   81.573">  1  4  2 -1</clus>
<clus scale="   48.885">  1  3  2 -1</clus>
</clustering>
</event>
<event>
 6    0  0.1463946E+003  0.1397946E+03  0.7546771E-02  0.1213606E+00
         21   -1    0    0  504  501  0.00000000000E+00  0.00000000000E+00  0.92627887659E+02  0.92627887659E+02  0.00000000000E+00 0. -1.
         21   -1    0    0  506  502 -0.00000000000E+00 -0.00000000000E+00 -0.12696206289E+04  0.12696206289E+04  0.00000000000E+00 0. -1.
         21    1    1    2  503  505  0.59009520371E+02 -0.48846078355E+02 -0.80004184241E+02  0.11076430996E+03  0.00000000000E+00 0. -1.
         21    1    1    2  504  502 -0.11605109085E+03  0.14172937150E+03 -0.27196381463E+03  0.32790148963E+03  0.00000000000E+00 0. -1.
         21    1    1    2  505  501  0.18093572509E+02  0.35144325678E+02  0.35249410459E+02  0.52962457752E+02  0.00000000000E+00 0. -1.
         21    1    1    2  506  503  0.38947997965E+02 -0.12802761883E+03 -0.86027415278E+03  0.87062025917E+03  0.00000000000E+00 0. -1.
<scales pt_clust_3="74.92422" pt_clust_4="14000.00000" pt_clust_5="39.52848" pt_clust_6="139.79456"></scales>
<clustering>
<clus scale="   39.528">  1  5  2 -1</clus>
<clus scale="   74.924">  1  3  2 -1</clus>
<clus scale="  139.795">  2  6  1 -1</clus>
<clus scale="   39.528">  1  3  2 -1</clus>
</clustering>
</event>
<event>
 6    0  0.1463946E+003  0.2037855E+03  0.7546771E-02  0.1146584E+00
         21   -1    0    0  503  501  0.00000000000E+00  0.00000000000E+00  0.12194322147E+04  0.12194322147E+04  0.00000000000E+00 0. -1.
         21   -1    0    0  506  502 -0.00000000000E+00 -0.00000000000E+00 -0.89982459812E+03  0.89982459812E+03  0.00000000000E+00 0. -1.
         21    1    1    2  503  505 -0.13330012832E+03  0.12907596536E+03  0.75141127885E+03  0.77398219555E+03  0.00000000000E+00 0. -1.
         21    1    1    2  504  502 -0.12844428865E+03 -0.36652743676E+02 -0.76346600038E+03  0.77506237984E+03  0.00000000000E+00 0. -1.
         21    1    1    2  505  504  0.28840386979E+03 -0.10946974072E+03  0.39394448488E+03  0.50035254912E+03  0.00000000000E+00 0. -1.
         21    1    1    2  506  501 -0.26659452813E+02  0.17046519036E+02 -0.62282146799E+02  0.69859688272E+02  0.00000000000E+00 0.  1.
<scales pt_clust_3="203.78553" pt_clust_4="154.46553" pt_clust_5="14000.00000" pt_clust_6="31.64349"></scales>
<clustering>
<clus scale="   31.643">  2  6  1 -1</clus>
<clus scale="  154.466">  2  4  1 -1</clus>
<clus scale="  203.786">  1  3  2 -1</clus>
<clus scale="  203.786">  1  3  2 -1</clus>
</clustering>
</event>
<event>
 6    0  0.1463946E+003  0.2111464E+03  0.7546771E-02  0.1140661E+00
         21   -1    0    0  506  501  0.00000000000E+00  0.00000000000E+00  0.67285078698E+03  0.67285078698E+03  0.00000000000E+00 0. -1.
         21   -1    0    0  504  502 -0.00000000000E+00 -0.00000000000E+00 -0.23164093417E+03  0.23164093417E+03  0.00000000000E+00 0. -1.
         21    1    1    2  503  501  0.92897327125E+01  0.34633675884E+02  0.76690960854E+02  0.84659873115E+02  0.00000000000E+00 0. -1.
         21    1    1    2  504  505 -0.79229792431E+02  0.37166075558E+02 -0.75487504068E+02  0.11557266308E+03  0.00000000000E+00 0. -1.
         21    1    1    2  505  503  0.21434998646E+03  0.96483252218E+01  0.48679767950E+03  0.53198777020E+03  0.00000000000E+00 0. -1.
         21    1    1    2  506  502 -0.14440992674E+03 -0.81448076664E+02 -0.46791283470E+02  0.17227141476E+03  0.00000000000E+00 0. -1.
<scales pt_clust_3="35.85792" pt_clust_4="87.73517" pt_clust_5="211.14636" pt_clust_6="14000.00000"></scales>
<clustering>
<clus scale="   35.858">  1  3  2 -1</clus>
<clus scale="   87.735">  2  4  1 -1</clus>
<clus scale="  211.146">  1  5  2 -1</clus>
<clus scale="   35.858">  1  3  2 -1</clus>
</clustering>
</event>
<event>
 6    0  0.1463946E+003  0.1668904E+03  0.7546771E-02  0.1181130E+00
         21   -1    0    0  506  501  0.00000000000E+00  0.00000000000E+00  0.33937331452E+03  0.33937331452E+03  0.00000000000E+00 0. -1.
         21   -1    0    0  505  502 -0.00000000000E+00 -0.00000000000E+00 -0.85130132790E+03  0.85130132790E+03  0.00000000000E+00 0.  1.
         21    1    1    2  503  501  0.51834416611E+02 -0.21495738685E+03 -0.26539371240E+03  0.34543784895E+03  0.00000000000E+00 0.  1.
         21    1    1    2  504  502  0.53602044789E+01  0.32494703234E+02 -0.31897619625E+02  0.45848616861E+02  0.00000000000E+00 0.  1.
         21    1    1    2  505  503 -0.49593452221E+02  0.19538045497E+02 -0.48268398552E+03  0.48561824060E+03  0.00000000000E+00 0.  1.
         21    1    1    2  506  504 -0.76011688688E+01  0.16292463812E+03  0.26804730416E+03  0.31376993601E+03  0.00000000000E+00 0. -1.
<scales pt_clust_3="166.89040" pt_clust_4="32.93384" pt_clust_5="60.54995" pt_clust_6="14000.00000"></scales>
<clustering>
<clus scale="   32.934">  2  4  1 -1</clus>
<clus scale="   60.550">  2  5  1 -1</clus>
<clus scale="  166.890">  2  3  1 -1</clus>
<clus scale="  166.890">  1  3  2 -1</clus>
</clustering>
</event>
<event>
 6    0  0.1463946E+003  0.8744946E+02  0.7546771E-02  0.1309148E+00
         21   -1    0    0  506  501  0.00000000000E+00  0.00000000000E+00  0.11536678508E+03  0.11536678508E+03  0.00000000000E+00 0. -1.
         21   -1    0    0  504  502 -0.00000000000E+00 -0.00000000000E+00 -0.21962618247E+04  0.21962618247E+04  0.00000000000E+00 0.  1.
         21    1    1    2  503  502  0.33000324558E+02 -0.10880723207E+03 -0.75545266887E+03  0.76396123598E+03  0.00000000000E+00 0.  1.
         21    1    1    2  504  505  0.40840477630E+02  0.58231324080E+02 -0.14055036948E+04  0.14073021949E+04  0.00000000000E+00 0.  1.
         21    1    1    2  505  501 -0.21160795082E+02  0.36919730135E+02 -0.11918706879E+01  0.42570720895E+02  0.00000000000E+00 0. -1.
         21    1    1    2  506  503 -0.52680007106E+02  0.13656177853E+02  0.81253194790E+02  0.97794457951E+02  0.00000000000E+00 0. -1.
<scales pt_clust_3="87.44946" pt_clust_4="71.29809" pt_clust_5="42.55403" pt_clust_6="14000.00000"></scales>
<clustering>
<clus scale="   42.554">  1  5  2 -1</clus>
<clus scale="   71.298">  2  4  1 -1</clus>
<clus scale="   87.449">  2  3  1 -1</clus>
<clus scale="   42.554">  1  3  2 -1</clus>
</clustering>
</event>
<event>
 6    0  0.1463946E+003  0.9087295E+02  0.7546771E-02  0.1300751E+00
         21   -1    0    0  503  501  0.00000000000E+00  0.00000000000E+00  0.37703708951E+03  0.37703708951E+03  0.00000000000E+00 0. -1.
         21   -1    0    0  505  502 -0.00000000000E+00 -0.00000000000E+00 -0.21417633458E+03  0.21417633458E+03  0.00000000000E+00 0. -1.
         21    1    1    2  503  502 -0.98668658836E+02 -0.12910239511E+02 -0.74127965026E+02  0.12408518735E+03  0.00000000000E+00 0. -1.
         21    1    1    2  504  506  0.78935335802E+02  0.15698816667E+02 -0.25325777605E+02  0.84372004209E+02  0.00000000000E+00 0. -1.
         21    1    1    2  505  504 -0.86537207912E+01  0.32842377147E+02 -0.53665105282E+02  0.63509465004E+02  0.00000000000E+00 0. -1.
         21    1    1    2  506  501  0.28387043825E+02 -0.35630954303E+02  0.31597960284E+03  0.31924676752E+03  0.00000000000E+00 0. -1.
<scales pt_clust_3="14000.00000" pt_clust_4="90.87295" pt_clust_5="33.96334" pt_clust_6="45.23036"></scales>
<clustering>
<clus scale="   33.963">  2  5  1 -1</clus>
<clus scale="   45.230">  1  6  2 -1</clus>
<clus scale="   90.873">  1  4  2 -1</clus>
<clus scale="   45.230">  1  3  2 -1</clus>
</clustering>
</event>
<event>
 6    0  0.1463946E+003  0.1069614E+03  0.7546771E-02  0.1266303E+00
         21   -1    0    0  503  501  0.00000000000E+00  0.00000000000E+00  0.31631394335E+03  0.31631394335E+03  0.00000000000E+00 0.  1.
         21   -1    0    0  504  502 -0.00000000000E+00 -0.00000000000E+00 -0.23146733945E+03  0.23146733945E+03  0.00000000000E+00 0. -1.
         21    1    1    2  503  502 -0.73433741892E+01 -0.31049653773E+02 -0.16238377220E+03  0.16548865706E+03  0.00000000000E+00 0. -1.
         21    1    1    2  504  506  0.24878345355E+01 -0.31633719619E+02 -0.28345872681E+01  0.31857752943E+02  0.00000000000E+00 0. -1.
         21    1    1    2  505  501 -0.91970048942E+02  0.69994400478E+02  0.22046427800E+03  0.24892208395E+03  0.00000000000E+00 0.  1.
         21    1    1    2  506  505  0.96825588596E+02 -0.73110270855E+01  0.29600685363E+02  0.10151278884E+03  0.00000000000E+00 0. -1.
<scales pt_clust_3="55.53612" pt_clust_4="31.73140" pt_clust_5="106.96136" pt_clust_6="14000.00000"></scales>
<clustering>
<clus scale="   31.731">  2  4  1 -1</clus>
<clus scale="   55.536">  2  3  1 -1</clus>
<clus scale="  106.961">  1  5  2 -1</clus>
<clus scale="  106.961">  1  3  2 -1</clus>
</clustering>
</event>
<event>
 6    0  0.1463946E+003  0.1644206E+03  0.7546771E-02  0.1183794E+00
         21   -1    0    0  505  501  0.00000000000E+00  0.00000000000E+00  0.15916676977E+03  0.15916676977E+03  0.00000000000E+00 0. -1.
         21   -1    0    0  504  502 -0.00000000000E+00 -0.00000000000E+00 -0.12584578747E+04  0.12584578747E+04  0.00000000000E+00 0. -1.
         21    1    1    2  503  502 -0.56811112554E+02 -0.33990864033E+01 -0.72328267296E+03  0.72551835353E+03  0.00000000000E+00 0. -1.
         21    1    1    2  504  506  0.94452297437E+02 -0.14980962410E+03 -0.33909055583E+03  0.38255269574E+03  0.00000000000E+00 0. -1.
         21    1    1    2  505  503  0.49485236917E+02  0.12263794726E+02  0.88232153401E+02  0.10190241522E+03  0.00000000000E+00 0. -1.
         21    1    1    2  506  501 -0.87126421800E+02  0.14094491578E+03 -0.12515002958E+03  0.20765118002E+03  0.00000000000E+00 0. -1.
<scales pt_clust_3="56.03873" pt_clust_4="164.42056" pt_clust_5="50.98225" pt_clust_6="14000.00000"></scales>
<clustering>
<clus scale="   50.982">  1  5  2 -1</clus>
<clus scale="   56.039">  2  3  1 -1</clus>
<clus scale="  164.421">  2  4  1 -1</clus>
<clus scale="   50.982">  1  3  2 -1</clus>
</clustering>
</event>
<event>
 6    0  0.4438845E+003  0.1135929E+03  0.7546771E-02  0.1254057E+00
         21   -1    0    0  504  501  0.00000000000E+00  0.00000000000E+00  0.19840486382E+04  0.19840486382E+04  0.00000000000E+00 0. -1.
         21   -1    0    0  506  502 -0.00000000000E+00 -0.00000000000E+00 -0.11594440581E+04  0.11594440581E+04  0.00000000000E+00 0.  1.
         21    1    1    2  503  505 -0.10022073709E+03  0.38244705321E+02  0.28070962641E+03  0.30050748408E+03  0.00000000000E+00 0.  1.
         21    1    1    2  504  502 -0.27963720819E+02 -0.18124796157E+02 -0.35054033630E+03  0.35212072545E+03  0.00000000000E+00 0.  1.
         21    1    1    2  505  501 -0.12774937621E+02 -0.28162919916E+02  0.16862636219E+04  0.16865471685E+04  0.00000000000E+00 0. -1.
         21    1    1    2  506  503  0.14095939553E+03  0.80430107525E+01 -0.79182833187E+03  0.80431731821E+03  0.00000000000E+00 0.  1.
<scales pt_clust_3="14000.00000" pt_clust_4="33.39299" pt_clust_5="30.92489" pt_clust_6="113.59288"></scales>
<clustering>
<clus scale="   30.925">  1  5  2 -1</clus>
<clus scale="   33.393">  2  4  1 -1</clus>
<clus scale="  113.593">  2  6  1 -1</clus>
<clus scale="   30.925">  1  3  2 -1</clus>
</clustering>
</event>
<event>
 6    0  0.1463946E+003  0.9383482E+02  0.7546771E-02  0.1293822E+00
         21   -1    0    0  504  501  0.00000000000E+00  0.00000000000E+00  0.46515412081E+03  0.46515412081E+03  0.00000000000E+00 0. -1.
         21   -1    0    0  503  502 -0.00000000000E+00 -0.00000000000E+00 -0.65708207842E+02  0.65708207842E+02  0.00000000000E+00 0. -1.
         21    1    1    2  503  501 -0.83732115851E+02 -0.79330327085E+02  0.18784243240E+03  0.22042946135E+03  0.00000000000E+00 0. -1.
         21    1    1    2  504  505  0.55487208540E+02  0.11123852600E+02  0.12331582293E+03  0.13568110625E+03  0.00000000000E+00 0. -1.
         21    1    1    2  505  506  0.78089068786E+02  0.63245937329E+02  0.54322848223E+02  0.11423188299E+03  0.00000000000E+00 0. -1.
         21    1    1    2  506  502 -0.49844161475E+02  0.49605371557E+01  0.33964809411E+02  0.60519878059E+02  0.00000000000E+00 0. -1.
<scales pt_clust_3="14000.00000" pt_clust_4="50.97259" pt_clust_5="93.83482" pt_clust_6="50.09039"></scales>
<clustering>
<clus scale="   50.090">  2  6  1 -1</clus>
<clus scale="   50.973">  1  4  2 -1</clus>
<clus scale="   93.835">  2  5  1 -1</clus>
<clus scale="   50.973">  1  3  2 -1</clus>
</clustering>
</event>
<event>
 6    0  0.1463946E+003  0.7738832E+02  0.7546771E-02  0.1336631E+00
         21   -1    0    0  503  501  0.00000000000E+00  0.00000000000E+00  0.82333330199E+03  0.82333330199E+03  0.00000000000E+00 0.  1.
         21   -1    0    0  506  502 -0.00000000000E+00 -0.00000000000E+00 -0.35749621224E+03  0.35749621224E+03  0.00000000000E+00 0.  1.
         21    1    1    2  503  505  0.33609882827E+01  0.39722761989E+02  0.25137122430E+03  0.25451264501E+03  0.00000000000E+00 0.  1.
         21    1    1    2  504  502  0.30650395286E+02  0.38507372581E+02 -0.34023451865E+03  0.34377578762E+03  0.00000000000E+00 0.  1.
         21    1    1    2  505  504 -0.84206657668E+02 -0.89684789737E+02  0.43881887944E+03  0.45573691057E+03  0.00000000000E+00 0.  1.
         21    1    1    2  506  501  0.50195274099E+02  0.11454655167E+02  0.11588150466E+03  0.12680417102E+03  0.00000000000E+00 0.  1.
<scales pt_clust_3="39.86470" pt_clust_4="49.31953" pt_clust_5="14000.00000" pt_clust_6="77.38832"></scales>
<clustering>
<clus scale="   39.865">  1  3  2 -1</clus>
<clus scale="   49.320">  2  4  1 -1</clus>
<clus scale="   77.388">  2  6  1 -1</clus>
<clus scale="   39.865">  1  3  2 -1</clus>
</clustering>
</event>
<event>
 6    0  0.1463946E+003  0.6912559E+02  0.7546771E-02  0.1363092E+00
         21   -1    0    0  505  501  0.00000000000E+00  0.00000000000E+00  0.59330053029E+03  0.59330053029E+03  0.00000000000E+00 0. -1.
         21   -1    0    0  503  502 -0.00000000000E+00 -0.00000000000E+00 -0.65385330414E+02  0.65385330414E+02  0.00000000000E+00 0. -1.
         21    1    1    2  503  506  0.43396985000E+02 -0.50227114546E+02  0.84232422169E+02  0.10724347200E+03  0.00000000000E+00 0. -1.
         21    1    1    2  504  502 -0.59889278615E+02  0.37505664219E+02 -0.13509059040E+02  0.71943694774E+02  0.00000000000E+00 0. -1.
         21    1    1    2  505  504 -0.61892058468E+02  0.21419007761E+02  0.19521600094E+03  0.20590941653E+03  0.00000000000E+00 0. -1.
         21    1    1    2  506  501  0.78384352083E+02 -0.86975574340E+01  0.26197583581E+03  0.27358927739E+03  0.00000000000E+00 0. -1.
<scales pt_clust_3="69.12559" pt_clust_4="14000.00000" pt_clust_5="65.49352" pt_clust_6="36.66309"></scales>
<clustering>
<clus scale="   65.494">  1  5  2 -1</clus>
<clus scale="   36.663">  1  6  2 -1</clus>
<clus scale="   69.126">  1  3  2 -1</clus>
<clus scale="   65.494">  1  3  2 -1</clus>
</clustering>
</event>
<event>
 6    0  0.1463946E+003  0.1284890E+03  0.7546771E-02  0.1229715E+00
         21   -1    0    0  503  501  0.00000000000E+00  0.00000000000E+00  0.62627800232E+03  0.62627800232E+03  0.00000000000E+00 0.  1.
         21   -1    0    0  504  502 -0.00000000000E+00 -0.00000000000E+00 -0.72032187047E+02  0.72032187047E+02  0.00000000000E+00 0.  1.
         21    1    1    2  503  502 -0.52069753255E+02 -0.65893058960E+02  0.35239762791E+03  0.36226681131E+03  0.00000000000E+00 0.  1.
         21    1    1    2  504  505  0.59354237463E+02 -0.50994839323E+02  0.43423388778E+02  0.89492959697E+02  0.00000000000E+00 0.  1.
         21    1    1    2  505  506  0.53797192237E+02  0.49007309530E+01  0.18244232091E+02  0.57017603081E+02  0.00000000000E+00 0.  1.
         21    1    1    2  506  501 -0.61081676445E+02  0.11198716733E+03  0.14018056649E+03  0.18953281528E+03  0.00000000000E+00 0.  1.
<scales pt_clust_3="83.98306" pt_clust_4="43.44810" pt_clust_5="43.44810" pt_clust_6="117.36643"></scales>
<clustering>
<clus scale="   43.448">  4  5 -1 -1</clus>
<clus scale="   83.983">  1  3  2 -1</clus>
<clus scale="  117.366">  1  6  2 -1</clus>
<clus scale="   83.983">  1  3  2 -1</clus>
</clustering>
</event>
<event>
 6    0  0.1463946E+003  0.1571513E+03  0.7546771E-02  0.1191951E+00
         21   -1    0    0  505  501  0.00000000000E+00  0.00000000000E+00  0.23703439720E+03  0.23703439720E+03  0.00000000000E+00 0. -1.
         21   -1    0    0  501  502 -0.00000000000E+00 -0.00000000000E+00 -0.72407053674E+03  0.72407053674E+03  0.00000000000E+00 0.  1.
         21    1    1    2  503  506 -0.13793227214E+02  0.12065382770E+03 -0.92098551957E+02  0.15241306547E+03  0.00000000000E+00 0.  1.
         21    1    1    2  504  503 -0.97527881412E+01 -0.16264851928E+03  0.10838358621E+03  0.19569532304E+03  0.00000000000E+00 0. -1.
         21    1    1    2  505  504  0.34764878052E+02 -0.14239853189E+02  0.46733168799E+02  0.59961314452E+02  0.00000000000E+00 0. -1.
         21    1    1    2  506  502 -0.11218862697E+02  0.56234544772E+02 -0.55005434258E+03  0.55303523097E+03  0.00000000000E+00 0.  1.
<scales pt_clust_3="14000.00000" pt_clust_4="157.15128" pt_clust_5="37.56821" pt_clust_6="57.17478"></scales>
<clustering>
<clus scale="   37.568">  1  5  2 -1</clus>
<clus scale="   57.175">  2  6  1 -1</clus>
<clus scale="  157.151">  1  4  2 -1</clus>
<clus scale="   37.568">  1  3  2 -1</clus>
</clustering>
</event>
<event>
 6    0  0.1463946E+003  0.1575189E+03  0.7546771E-02  0.1191527E+00
         21   -1    0    0  504  501  0.00000000000E+00  0.00000000000E+00  0.11486771175E+04  0.11486771175E+04  0.00000000000E+00 0. -1.
         21   -1    0    0  503  502 -0.00000000000E+00 -0.00000000000E+00 -0.16426179361E+04  0.16426179361E+04  0.00000000000E+00 0. -1.
         21    1    1    2  503  501  0.22005341566E+03  0.54964873013E+02 -0.18435412833E+03  0.29228596895E+03  0.00000000000E+00 0. -1.
         21    1    1    2  504  505 -0.95675623854E+02  0.45288084964E+02  0.10861493084E+04  0.10912951736E+04  0.00000000000E+00 0. -1.
         21    1    1    2  505  506 -0.92308630498E+02 -0.79939263797E+02 -0.67346250902E+03  0.68444351134E+03  0.00000000000E+00 0. -1.
         21    1    1    2  506  502 -0.32069161310E+02 -0.20313694179E+02 -0.72227348971E+03  0.72327039979E+03  0.00000000000E+00 0.  1.
<scales pt_clust_3="14000.00000" pt_clust_4="105.90970" pt_clust_5="157.51893" pt_clust_6="37.96152"></scales>
<clustering>
<clus scale="   37.962">  2  6  1 -1</clus>
<clus scale="  105.910">  1  4  2 -1</clus>
<clus scale="  157.519">  2  5  1 -1</clus>
<clus scale="  105.910">  1  3  2 -1</clus>
</clustering>
</event>
<event>
 6    0  0.1463946E+003  0.1067215E+03  0.7546771E-02  0.1266765E+00
         21   -1    0    0  505  501  0.00000000000E+00  0.00000000000E+00  0.32854247481E+03  0.32854247481E+03  0.00000000000E+00 0.  1.
         21   -1    0    0  506  502 -0.00000000000E+00 -0.00000000000E+00 -0.19458727064E+03  0.19458727064E+03  0.00000000000E+00 0.  1.
         21    1    1    2  503  502  0.21235352732E+02  0.25337922887E+02 -0.79064059340E+02  0.85697584687E+02  0.00000000000E+00 0.  1.
         21    1    1    2  504  503  0.63744977587E+02 -0.31636629298E+02 -0.50700124215E+02  0.87377348760E+02  0.00000000000E+00 0.  1.
         21    1    1    2  505  504 -0.13361489551E+03 -0.56263936385E+02  0.20650871287E+03  0.25231809157E+03  0.00000000000E+00 0.  1.
         21    1    1    2  506  501  0.48634565190E+02  0.62562642795E+02  0.57210674848E+02  0.97736720434E+02  0.00000000000E+00 0.  1.
<scales pt_clust_3="33.05980" pt_clust_4="78.46899" pt_clust_5="14000.00000" pt_clust_6="106.72145"></scales>
<clustering>
<clus scale="   33.060">  2  3  1 -1</clus>
<clus scale="   78.469">  2  4  1 -1</clus>
<clus scale="  106.721">  1  6  2 -1</clus>
<clus scale="  106.721">  1  3  2 -1</clus>
</clustering>
</event>
<event>
 6    0  0.1463946E+003  0.2205528E+03  0.7546771E-02  0.1133472E+00
         21   -1    0    0  505  501  0.00000000000E+00  0.00000000000E+00  0.42309544225E+03  0.42309544225E+03  0.00000000000E+00 0.  1.
         21   -1    0    0  504  502 -0.00000000000E+00 -0.00000000000E+00 -0.84791429062E+03  0.84791429062E+03  0.00000000000E+00 0.  1.
         21    1    1    2  503  501 -0.15170873566E+03 -0.86316799908E+02  0.33430335316E+03  0.37712711697E+03  0.00000000000E+00 0.  1.
         21    1    1    2  504  506 -0.40481330502E+02 -0.50352639502E+01 -0.45485887158E+03  0.45668444801E+03  0.00000000000E+00 0.  1.
         21    1    1    2  505  502  0.22019758259E+03  0.10526581899E+03 -0.31978783967E+03  0.40228364425E+03  0.00000000000E+00 0.  1.
         21    1    1    2  506  503 -0.28007516424E+02 -0.13913755137E+02  0.15524509725E+02  0.34914523632E+02  0.00000000000E+00 0.  1.
<scales pt_clust_3="30.09393" pt_clust_4="40.79328" pt_clust_5="208.77942" pt_clust_6="30.09393"></scales>
<clustering>
<clus scale="   30.094">  3  6 -1 -1</clus>
<clus scale="   40.793">  2  4  1 -1</clus>
<clus scale="  208.779">  2  5  1 -1</clus>
<clus scale="  220.553">  1  3  2 -1</clus>
</clustering>
</event>
<event>
 6    0  0.1463946E+003  0.8278307E+02  0.7546771E-02  0.1321334E+00
         21   -1    0    0  505  501  0.00000000000E+00  0.00000000000E+00  0.11252498507E+03  0.11252498507E+03  0.00000000000E+00 0. -1.
         21   -1    0    0  503  502 -0.00000000000E+00 -0.00000000000E+00 -0.66712680294E+03  0.66712680294E+03  0.00000000000E+00 0. -1.
         21    1    1    2  503  506  0.25557476596E+02 -0.22654887629E+02 -0.54984983266E+02  0.64728486219E+02  0.00000000000E+00 0. -1.
         21    1    1    2  504  502  0.59934827896E+02  0.29635470636E+01 -0.50857717336E+03  0.51210517227E+03  0.00000000000E+00 0. -1.
         21    1    1    2  505  504 -0.91222531445E+02 -0.42915922107E+02 -0.53556920875E+02  0.11415634186E+03  0.00000000000E+00 0. -1.
         21    1    1    2  506  501  0.57302269537E+01  0.62607262673E+02  0.62517259624E+02  0.88661787661E+02  0.00000000000E+00 0. -1.
<scales pt_clust_3="34.15302" pt_clust_4="82.78307" pt_clust_5="14000.00000" pt_clust_6="62.43626"></scales>
<clustering>
<clus scale="   34.153">  2  3  1 -1</clus>
<clus scale="   62.436">  1  6  2 -1</clus>
<clus scale="   82.783">  2  4  1 -1</clus>
<clus scale="   62.436">  1  3  2 -1</clus>
</clustering>
</event>
<event>
 6    0  0.1463946E+003  0.1129350E+03  0.7546771E-02  0.1255229E+00
         21   -1    0    0  503  501  0.00000000000E+00  0.00000000000E+00  0.19989274468E+03  0.19989274468E+03  0.00000000000E+00 0. -1.
         21   -1    0    0  504  502 -0.00000000000E+00 -0.00000000000E+00 -0.35421463481E+03  0.35421463481E+03  0.00000000000E+00 0. -1.
         21    1    1    2  503  502  0.45441420856E+00 -0.45506331558E+02  0.14577337281E+03  0.15271184933E+03  0.00000000000E+00 0. -1.
         21    1    1    2  504  506  0.30189356891E+02 -0.17389660184E+01 -0.27574787814E+02  0.40924200606E+02  0.00000000000E+00 0. -1.
         21    1    1    2  505  501 -0.13124651242E+02 -0.87951278117E+02 -0.57566289745E+02  0.10593187201E+03  0.00000000000E+00 0. -1.
         21    1    1    2  506  505 -0.17519119858E+02  0.13519657569E+03 -0.21495418538E+03  0.25453945755E+03  0.00000000000E+00 0. -1.
<scales pt_clust_3="45.53190" pt_clust_4="30.23940" pt_clust_5="14000.00000" pt_clust_6="112.93500"></scales>
<clustering>
<clus scale="   30.239">  2  4  1 -1</clus>
<clus scale="   45.532">  1  3  2 -1</clus>
<clus scale="  112.935">  2  6  1 -1</clus>
<clus scale="   45.532">  1  3  2 -1</clus>
</clustering>
</event>
<event>
 6    0  0.1463946E+003  0.2597573E+03  0.7546771E-02  0.1107289E+00
         21   -1    0    0  505  501  0.00000000000E+00  0.00000000000E+00  0.83338487228E+02  0.83338487228E+02  0.00000000000E+00 0.  1.
         21   -1    0    0  506  502 -0.00000000000E+00 -0.00000000000E+00 -0.21040459856E+04  0.21040459856E+04  0.00000000000E+00 0.  1.
         21    1    1    2  503  501  0.16088430461E+03  0.15429487133E+03 -0.11334320390E+04  0.11551445164E+04  0.00000000000E+00 0.  1.
         21    1    1    2  504  502  0.92378466832E+01 -0.35574117655E+02 -0.44510542041E+03  0.44662029839E+03  0.00000000000E+00 0.  1.
         21    1    1    2  505  504 -0.21509601304E+03 -0.11573124528E+03 -0.14292156404E+03  0.28299574101E+03  0.00000000000E+00 0.  1.
         21    1    1    2  506  503  0.44973861744E+02 -0.29895083898E+01 -0.29924847491E+03  0.30262391699E+03  0.00000000000E+00 0.  1.
<scales pt_clust_3="40.35991" pt_clust_4="36.75399" pt_clust_5="245.41680" pt_clust_6="40.35991"></scales>
<clustering>
<clus scale="   36.754">  2  4  1 -1</clus>
<clus scale="   40.360">  3  6 -1 -1</clus>
<clus scale="  245.417">  1  5  2 -1</clus>
<clus scale="  245.417">  1  3  2 -1</clus>
</clustering>
</event>
<event>
 6    0  0.1463946E+003  0.1478891E+03  0.7546771E-02  0.1203091E+00
         21   -1    0    0  506  501  0.00000000000E+00  0.00000000000E+00  0.39619006629E+03  0.39619006629E+03  0.00000000000E+00 0.  1.
         21   -1    0    0  505  502 -0.00000000000E+00 -0.00000000000E+00 -0.70534427634E+03  0.70534427634E+03  0.00000000000E+00 0.  1.
         21    1    1    2  503  504  0.99370132946E+02  0.19753841372E+03  0.96747642100E+02  0.24136270314E+03  0.00000000000E+00 0.  1.
         21    1    1    2  504  502 -0.50556192696E+02 -0.10305436509E+03 -0.38726319286E+03  0.40391696094E+03  0.00000000000E+00 0.  1.
         21    1    1    2  505  501 -0.32030572183E+02  0.34757359650E+02 -0.21524604762E+03  0.22037443731E+03  0.00000000000E+00 0.  1.
         21    1    1    2  506  503 -0.16783368067E+02 -0.12924140828E+03  0.19660738834E+03  0.23588024124E+03  0.00000000000E+00 0.  1.
<scales pt_clust_3="147.88915" pt_clust_4="107.06127" pt_clust_5="47.26554" pt_clust_6="14000.00000"></scales>
<clustering>
<clus scale="   47.266">  2  5  1 -1</clus>
<clus scale="  107.061">  2  4  1 -1</clus>
<clus scale="  147.889">  2  3  1 -1</clus>
<clus scale="  147.889">  1  3  2 -1</clus>
</clustering>
</event>
<event>
 6    0  0.1463946E+003  0.1824424E+03  0.7546771E-02  0.1165460E+00
         21   -1    0    0  505  501  0.00000000000E+00  0.00000000000E+00  0.50147155683E+03  0.50147155683E+03  0.00000000000E+00 0. -1.
         21   -1    0    0  504  502 -0.00000000000E+00 -0.00000000000E+00 -0.83049268234E+03  0.83049268234E+03  0.00000000000E+00 0. -1.
         21    1    1    2  503  502  0.41855195344E+02 -0.29553345104E+01 -0.48107347880E+03  0.48289986890E+03  0.00000000000E+00 0. -1.
         21    1    1    2  504  501  0.12779700970E+03  0.90352711382E+02 -0.15633269882E+03  0.22121392556E+03  0.00000000000E+00 0. -1.
         21    1    1    2  505  506  0.37751612781E+02 -0.30842599376E+02  0.39359520704E+03  0.39660261876E+03  0.00000000000E+00 0. -1.
         21    1    1    2  506  503 -0.20740381783E+03 -0.56554777496E+02 -0.85210154923E+02  0.23124782595E+03  0.00000000000E+00 0. -1.
<scales pt_clust_3="41.95940" pt_clust_4="14000.00000" pt_clust_5="48.89688" pt_clust_6="182.44238"></scales>
<clustering>
<clus scale="   41.959">  2  3  1 -1</clus>
<clus scale="   48.897">  1  5  2 -1</clus>
<clus scale="  182.442">  1  6  2 -1</clus>
<clus scale="   48.897">  1  3  2 -1</clus>
</clustering>
</event>
<event>
 6    0  0.1463946E+003  0.7323560E+02  0.7546771E-02  0.1349424E+00
         21   -1    0    0  504  501  0.00000000000E+00  0.00000000000E+00  0.25915016497E+03  0.25915016497E+03  0.00000000000E+00 0.  1.
         21   -1    0    0  505  502 -0.00000000000E+00 -0.00000000000E+00 -0.15830600758E+03  0.15830600758E+03  0.00000000000E+00 0.  1.
         21    1    1    2  503  501  0.66977273345E+02  0.32883822064E+01  0.13899274410E+03  0.15432352871E+03  0.00000000000E+00 0.  1.
         21    1    1    2  504  506 -0.98227830578E+02 -0.48551520431E+02  0.45332990929E+02  0.11857924314E+03  0.00000000000E+00 0.  1.
         21    1    1    2  505  503  0.62117877674E+02  0.50611660569E+02 -0.36410822854E+02  0.88010902354E+02  0.00000000000E+00 0.  1.
         21    1    1    2  506  502 -0.30867320440E+02 -0.53485223442E+01 -0.47070754791E+02  0.56542498344E+02  0.00000000000E+00 0.  1.
<scales pt_clust_3="73.23560" pt_clust_4="14000.00000" pt_clust_5="64.79744" pt_clust_6="31.32728"></scales>
<clustering>
<clus scale="   31.327">  2  6  1 -1</clus>
<clus scale="   64.797">  2  5  1 -1</clus>
<clus scale="   73.236">  1  3  2 -1</clus>
<clus scale="   73.236">  1  3  2 -1</clus>
</clustering>
</event>
<event>
 6    0  0.1463946E+003  0.1244196E+03  0.7546771E-02  0.1235979E+00
         21   -1    0    0  504  501  0.00000000000E+00  0.00000000000E+00  0.20892810100E+03  0.20892810100E+03  0.00000000000E+00 0. -1.
         21   -1    0    0  503  502 -0.00000000000E+00 -0.00000000000E+00 -0.53324904608E+03  0.53324904608E+03  0.00000000000E+00 0.  1.
         21    1    1    2  503  501 -0.23313785376E+02  0.30193712829E+02 -0.42483291119E+03  0.42654213779E+03  0.00000000000E+00 0.  1.
         21    1    1    2  504  506  0.40468619585E+02 -0.39057855695E+02  0.41537043398E+02  0.69918175297E+02  0.00000000000E+00 0.  1.
         21    1    1    2  505  502 -0.75730389256E+02  0.46778383749E+02 -0.60312074318E+02  0.10752141811E+03  0.00000000000E+00 0.  1.
         21    1    1    2  506  505  0.58575555047E+02 -0.37914240883E+02  0.11928699703E+03  0.13819541589E+03  0.00000000000E+00 0. -1.
<scales pt_clust_3="38.14699" pt_clust_4="37.15266" pt_clust_5="117.33624" pt_clust_6="37.15266"></scales>
<clustering>
<clus scale="   37.153">  4  6 -1 -1</clus>
<clus scale="   38.147">  2  3  1 -1</clus>
<clus scale="  117.336">  2  5  1 -1</clus>
<clus scale="  124.420">  1  3  2 -1</clus>
</clustering>
</event>
<event>
 6    0  0.1463946E+003  0.8827167E+02  0.7546771E-02  0.1307092E+00
         21   -1    0    0  503  501  0.00000000000E+00  0.00000000000E+00  0.18358251514E+04  0.18358251514E+04  0.00000000000E+00 0.  1.
         21   -1    0    0  504  502 -0.00000000000E+00 -0.00000000000E+00 -0.73717159385E+02  0.73717159385E+02  0.00000000000E+00 0. -1.
         21    1    1    2  503  505 -0.10116451110E+03  0.47390132580E+02  0.21863969496E+02  0.11383372142E+03  0.00000000000E+00 0. -1.
         21    1    1    2  504  501  0.87811454203E+02  0.62256270869E+01  0.17018811710E+04  0.17041564278E+04  0.00000000000E+00 0.  1.
         21    1    1    2  505  506 -0.18953629895E+02 -0.42489929797E+02  0.11078567403E+02  0.47826445363E+02  0.00000000000E+00 0. -1.
         21    1    1    2  506  502  0.32306686788E+02 -0.11125829870E+02  0.27284284019E+02  0.43725716185E+02  0.00000000000E+00 0. -1.
<scales pt_clust_3="88.27167" pt_clust_4="14000.00000" pt_clust_5="46.67113" pt_clust_6="34.16879"></scales>
<clustering>
<clus scale="   34.169">  2  6  1 -1</clus>
<clus scale="   46.671">  2  5  1 -1</clus>
<clus scale="   88.272">  2  3  1 -1</clus>
<clus scale="   88.272">  1  3  2 -1</clus>
</clustering>
</event>
<event>
 6    0  0.1463946E+003  0.9283653E+02  0.7546771E-02  0.1296124E+00
         21   -1    0    0  506  501  0.00000000000E+00  0.00000000000E+00  0.18370339944E+03  0.18370339944E+03  0.00000000000E+00 0. -1.
         21   -1    0    0  503  502 -0.00000000000E+00 -0.00000000000E+00 -0.85550035473E+03  0.85550035473E+03  0.00000000000E+00 0.  1.
         21    1    1    2  503  505 -0.16256229944E+02  0.46905235824E+02 -0.61263444950E+03  0.61464244474E+03  0.00000000000E+00 0.  1.
         21    1    1    2  504  501  0.67996069292E+01 -0.95976380642E+02  0.93900424066E+02  0.13444325917E+03  0.00000000000E+00 0. -1.
         21    1    1    2  505  504 -0.71044908007E+02  0.14039637970E+02 -0.18344022053E+03  0.19721765868E+03  0.00000000000E+00 0.  1.
         21    1    1    2  506  502  0.80501531022E+02  0.35031506848E+02  0.30377290673E+02  0.92900391589E+02  0.00000000000E+00 0. -1.
<scales pt_clust_3="49.64238" pt_clust_4="92.83653" pt_clust_5="14000.00000" pt_clust_6="88.51750"></scales>
<clustering>
<clus scale="   49.642">  2  3  1 -1</clus>
<clus scale="   88.517">  1  6  2 -1</clus>
<clus scale="   92.837">  1  4  2 -1</clus>
<clus scale="   88.517">  1  3  2 -1</clus>
</clustering>
</event>
<event>
 6    0  0.1463946E+003  0.8341951E+02  0.7546771E-02  0.1319618E+00
         21   -1    0    0  505  501  0.00000000000E+00  0.00000000000E+00  0.75529288241E+03  0.75529288241E+03  0.00000000000E+00 0. -1.
         21   -1    0    0  504  502 -0.00000000000E+00 -0.00000000000E+00 -0.74052790308E+02  0.74052790308E+02  0.00000000000E+00 0. -1.
         21    1    1    2  503  502  0.28377567022E+02  0.14762601823E+02  0.20485595123E+02  0.37985264646E+02  0.00000000000E+00 0. -1.
         21    1    1    2  504  506 -0.91006292140E+02 -0.63437659950E+02 -0.36591050992E+01  0.11099491411E+03  0.00000000000E+00 0. -1.
         21    1    1    2  505  503  0.87830443324E+02  0.23042708344E+02  0.59793789155E+03  0.60479325007E+03  0.00000000000E+00 0. -1.
         21    1    1    2  506  501 -0.25201718206E+02  0.25632349783E+02  0.66475710536E+02  0.75572243894E+02  0.00000000000E+00 0.  1.
<scales pt_clust_3="31.98782" pt_clust_4="83.41951" pt_clust_5="14000.00000" pt_clust_6="35.35813"></scales>
<clustering>
<clus scale="   31.988">  2  3  1 -1</clus>
<clus scale="   35.358">  1  6  2 -1</clus>
<clus scale="   83.420">  2  4  1 -1</clus>
<clus scale="   35.358">  1  3  2 -1</clus>
</clustering>
</event>
<event>
 6    0  0.1463946E+003  0.9200894E+02  0.7546771E-02  0.1298058E+00
         21   -1    0    0  506  501  0.00000000000E+00  0.00000000000E+00  0.94335131738E+03  0.94335131738E+03  0.00000000000E+00 0.  1.
         21   -1    0    0  504  502 -0.00000000000E+00 -0.00000000000E+00 -0.27004495646E+03  0.27004495646E+03  0.00000000000E+00 0. -1.
         21    1    1    2  503  502  0.14139769593E+02 -0.48552021121E+02 -0.10109870396E+03  0.11304061120E+03  0.00000000000E+00 0. -1.
         21    1    1    2  504  505 -0.85595463145E+02  0.10793022672E+03 -0.12208704163E+03  0.18406727815E+03  0.00000000000E+00 0. -1.
         21    1    1    2  505  501  0.68326023349E+02 -0.24535038097E+02  0.12920145997E+03  0.14820064379E+03  0.00000000000E+00 0.  1.
         21    1    1    2  506  503  0.31296702032E+01 -0.34843167501E+02  0.76729064653E+03  0.76808774070E+03  0.00000000000E+00 0.  1.
<scales pt_clust_3="51.73645" pt_clust_4="92.00894" pt_clust_5="14000.00000" pt_clust_6="34.98344"></scales>
<clustering>
<clus scale="   34.983">  1  6  2 -1</clus>
<clus scale="   51.736">  2  3  1 -1</clus>
<clus scale="   92.009">  2  4  1 -1</clus>
<clus scale="   34.983">  1  3  2 -1</clus>
</clustering>
</event>
<event>
 6    0  0.1463946E+003  0.1075365E+03  0.7546771E-02  0.1265201E+00
         21   -1    0    0  505  501  0.00000000000E+00  0.00000000000E+00  0.65063314495E+02  0.65063314495E+02  0.00000000000E+00 0. -1.
         21   -1    0    0  503  502 -0.00000000000E+00 -0.00000000000E+00 -0.46957343671E+03  0.46957343671E+03  0.00000000000E+00 0. -1.
         21    1    1    2  503  504  0.13951656666E+02  0.77883883916E+02 -0.20048428547E+03  0.21553305273E+03  0.00000000000E+00 0. -1.
         21    1    1    2  504  501 -0.20573822114E+02 -0.11585455714E+03 -0.27493830088E+02  0.12083654770E+03  0.00000000000E+00 0. -1.
         21    1    1    2  505  506  0.35180326884E+02  0.18662422377E+02 -0.36384993835E+02  0.53942647182E+02  0.00000000000E+00 0. -1.
         21    1    1    2  506  502 -0.28558161436E+02  0.19308250850E+02 -0.14014701282E+03  0.14432450360E+03  0.00000000000E+00 0. -1.
<scales pt_clust_3="107.53655" pt_clust_4="14000.00000" pt_clust_5="37.82537" pt_clust_6="34.47285"></scales>
<clustering>
<clus scale="   34.473">  2  6  1 -1</clus>
<clus scale="   37.825">  2  5  1 -1</clus>
<clus scale="  107.537">  2  3  1 -1</clus>
<clus scale="  107.537">  1  3  2 -1</clus>
</clustering>
</event>
<event>
 6    0  0.1463946E+003  0.8329974E+02  0.7546771E-02  0.1319940E+00
         21   -1    0    0  503  501  0.00000000000E+00  0.00000000000E+00  0.36080593815E+03  0.36080593815E+03  0.00000000000E+00 0. -1.
         21   -1    0    0  506  502 -0.00000000000E+00 -0.00000000000E+00 -0.28113647364E+03  0.28113647364E+03  0.00000000000E+00 0. -1.
         21    1    1    2  503  504 -0.35883726982E+02  0.59362429966E+02  0.22832064386E+03  0.23862492821E+03  0.00000000000E+00 0. -1.
         21    1    1    2  504  502 -0.31975005605E+02 -0.95877489876E+02  0.71064914909E+02  0.12355207881E+03  0.00000000000E+00 0. -1.
         21    1    1    2  505  501  0.63503859432E+02  0.90484692262E+02 -0.10296298191E+03  0.15106818110E+03  0.00000000000E+00 0. -1.
         21    1    1    2  506  505  0.43548731559E+01 -0.53969632352E+02 -0.11675311235E+03  0.12869722366E+03  0.00000000000E+00 0. -1.
<scales pt_clust_3="67.79438" pt_clust_4="83.29974" pt_clust_5="14000.00000" pt_clust_6="54.14505"></scales>
<clustering>
<clus scale="   54.145">  2  6  1 -1</clus>
<clus scale="   67.794">  1  3  2 -1</clus>
<clus scale="   83.300">  1  4  2 -1</clus>
<clus scale="   67.794">  1  3  2 -1</clus>
</clustering>
</event>
<event>
 6    0  0.1463946E+003  0.1004249E+03  0.7546771E-02  0.1279405E+00
         21   -1    0    0  504  501  0.00000000000E+00  0.00000000000E+00  0.25997264002E+03  0.25997264002E+03  0.00000000000E+00 0. -1.
         21   -1    0    0  503  502 -0.00000000000E+00 -0.00000000000E+00 -0.94609637252E+03  0.94609637252E+03  0.00000000000E+00 0.  1.
         21    1    1    2  503  501  0.93927859289E+02 -0.15353692535E+02 -0.15091008783E+03  0.17841533912E+03  0.00000000000E+00 0.  1.
         21    1    1    2  504  506 -0.25694156486E+02  0.37098480713E+02  0.18981721643E+03  0.19510782301E+03  0.00000000000E+00 0. -1.
         21    1    1    2  505  502  0.28911488455E+00 -0.57217603295E+02 -0.74943674060E+03  0.75161783233E+03  0.00000000000E+00 0.  1.
         21    1    1    2  506  505 -0.68522817688E+02  0.35472815117E+02  0.24405879496E+02  0.80928018079E+02  0.00000000000E+00 0.  1.
<scales pt_clust_3="100.42486" pt_clust_4="45.12745" pt_clust_5="56.61846" pt_clust_6="14000.00000"></scales>
<clustering>
<clus scale="   45.127">  1  4  2 -1</clus>
<clus scale="   56.618">  2  5  1 -1</clus>
<clus scale="  100.425">  2  3  1 -1</clus>
<clus scale="   45.127">  1  3  2 -1</clus>
</clustering>
</event>
<event>
 6    0  0.1463946E+003  0.7342968E+02  0.7546771E-02  0.1348804E+00
         21   -1    0    0  504  501  0.00000000000E+00  0.00000000000E+00  0.43901913028E+03  0.43901913028E+03  0.00000000000E+00 0. -1.
         21   -1    0    0  503  502 -0.00000000000E+00 -0.00000000000E+00 -0.14048248007E+03  0.14048248007E+03  0.00000000000E+00 0.  1.
         21    1    1    2  503  501  0.16772831955E+02  0.25559172714E+02  0.15521374920E+03  0.15819578737E+03  0.00000000000E+00 0. -1.
         21    1    1    2  504  506 -0.52216435468E+02 -0.74854921313E+02  0.21304840053E+03  0.23177453775E+03  0.00000000000E+00 0. -1.
         21    1    1    2  505  502 -0.26450331258E+02  0.77289682400E+02 -0.87100205980E+02  0.11941424082E+03  0.00000000000E+00 0.  1.
         21    1    1    2  506  505  0.61893934771E+02 -0.27993933801E+02  0.17374706454E+02  0.70117044400E+02  0.00000000000E+00 0. -1.
<scales pt_clust_3="30.57122" pt_clust_4="67.19650" pt_clust_5="14000.00000" pt_clust_6="73.42968"></scales>
<clustering>
<clus scale="   30.571">  1  3  2 -1</clus>
<clus scale="   67.197">  1  4  2 -1</clus>
<clus scale="   73.430">  1  6  2 -1</clus>
<clus scale="   30.571">  1  3  2 -1</clus>
</clustering>
</event>
<event>
 6    0  0.1463946E+003  0.9615190E+02  0.7546771E-02  0.1288603E+00
         21   -1    0    0  506  501  0.00000000000E+00  0.00000000000E+00  0.73112904003E+03  0.73112904003E+03  0.00000000000E+00 0.  1.
         21   -1    0    0  504  502 -0.00000000000E+00 -0.00000000000E+00 -0.25408235691E+03  0.25408235691E+03  0.00000000000E+00 0. -1.
         21    1    1    2  503  505  0.30509809880E+02  0.14419812447E+02 -0.27685275550E+01  0.33859182429E+02  0.00000000000E+00 0. -1.
         21    1    1    2  504  503  0.12361969310E+02  0.37400995114E+02 -0.29258024994E+02  0.49068164295E+02  0.00000000000E+00 0. -1.
         21    1    1    2  505  501  0.27529656655E+02  0.91018961691E+02  0.66951164464E+03  0.67623085976E+03  0.00000000000E+00 0.  1.
         21    1    1    2  506  502 -0.70401435845E+02 -0.14283976925E+03 -0.16043840897E+03  0.22605319047E+03  0.00000000000E+00 0. -1.
<scales pt_clust_3="33.72774" pt_clust_4="76.49343" pt_clust_5="96.15190" pt_clust_6="14000.00000"></scales>
<clustering>
<clus scale="   33.728">  3  4 -1 -1</clus>
<clus scale="   76.493">  2  3  1 -1</clus>
<clus scale="   96.152">  1  5  2 -1</clus>
<clus scale="   96.152">  1  3  2 -1</clus>
</clustering>
</event>
<event>
 6    0  0.1463946E+003  0.1486020E+03  0.7546771E-02  0.1202201E+00
         21   -1    0    0  506  501  0.00000000000E+00  0.00000000000E+00  0.26382936327E+03  0.26382936327E+03  0.00000000000E+00 0.  1.
         21   -1    0    0  505  502 -0.00000000000E+00 -0.00000000000E+00 -0.10884453695E+03  0.10884453695E+03  0.00000000000E+00 0.  1.
         21    1    1    2  503  501  0.59954260863E+02  0.24781518501E+02  0.87702840115E+02  0.10908907012E+03  0.00000000000E+00 0.  1.
         21    1    1    2  504  502 -0.28007297188E+02 -0.46714757540E+02  0.10934108261E+02  0.55553865673E+02  0.00000000000E+00 0.  1.
         21    1    1    2  505  503  0.47112890563E+02  0.65791204600E+02  0.80819633583E+02  0.11436747891E+03  0.00000000000E+00 0.  1.
         21    1    1    2  506  504 -0.79059854238E+02 -0.43857965561E+02 -0.24471755640E+02  0.93663485519E+02  0.00000000000E+00 0.  1.
<scales pt_clust_3="38.68004" pt_clust_4="38.14923" pt_clust_5="146.74129" pt_clust_6="38.14923"></scales>
<clustering>
<clus scale="   38.149">  4  6 -1 -1</clus>
<clus scale="   38.680">  3  5 -1 -1</clus>
<clus scale="  146.741">  1  3  2 -1</clus>
<clus scale="  146.741">  1  3  2 -1</clus>
</clustering>
</event>
<event>
 6    0  0.1463946E+003  0.7189388E+02  0.7546771E-02  0.1353769E+00
         21   -1    0    0  504  501  0.00000000000E+00  0.00000000000E+00  0.22420137375E+04  0.22420137375E+04  0.00000000000E+00 0.  1.
         21   -1    0    0  506  502 -0.00000000000E+00 -0.00000000000E+00 -0.15644487917E+02  0.15644487917E+02  0.00000000000E+00 0.  1.
         21    1    1    2  503  501  0.36387712503E+02  0.40253617572E+02  0.28344128578E+03  0.28858860309E+03  0.00000000000E+00 0.  1.
         21    1    1    2  504  505 -0.60803559160E+02  0.31870366298E+02  0.13054583014E+04  0.13072620891E+04  0.00000000000E+00 0.  1.
         21    1    1    2  505  502  0.53421331767E+02 -0.11439563775E+03  0.43537343019E+03  0.45331029587E+03  0.00000000000E+00 0.  1.
         21    1    1    2  506  503 -0.29005485110E+02  0.42271653878E+02  0.20209623222E+03  0.20849723731E+03  0.00000000000E+00 0.  1.
<scales pt_clust_3="57.65509" pt_clust_4="14000.00000" pt_clust_5="71.89388" pt_clust_6="51.26608"></scales>
<clustering>
<clus scale="   51.266">  2  6  1 -1</clus>
<clus scale="   57.655">  2  3  1 -1</clus>
<clus scale="   71.894">  2  5  1 -1</clus>
<clus scale="   71.894">  1  3  2 -1</clus>
</clustering>
</event>
<event>
 6    0  0.1463946E+003  0.1582403E+03  0.7546771E-02  0.1190698E+00
         21   -1    0    0  505  501  0.00000000000E+00  0.00000000000E+00  0.16527467810E+03  0.16527467810E+03  0.00000000000E+00 0.  1.
         21   -1    0    0  504  502 -0.00000000000E+00 -0.00000000000E+00 -0.35474327541E+03  0.35474327541E+03  0.00000000000E+00 0.  1.
         21    1    1    2  503  502 -0.28682383169E+02 -0.47817552647E+02 -0.87710234363E+02  0.10393403031E+03  0.00000000000E+00 0. -1.
         21    1    1    2  504  501  0.28794688212E+02  0.62690936251E+02 -0.46319071556E+02  0.83094788928E+02  0.00000000000E+00 0.  1.
         21    1    1    2  505  506  0.15800144480E+03  0.24202451688E+01  0.15602139319E+02  0.15878835252E+03  0.00000000000E+00 0.  1.
         21    1    1    2  506  503 -0.15811374984E+03 -0.17293628774E+02 -0.71041430708E+02  0.17420078175E+03  0.00000000000E+00 0.  1.
<scales pt_clust_3="55.76018" pt_clust_4="55.15749" pt_clust_5="158.24032" pt_clust_6="14000.00000"></scales>
<clustering>
<clus scale="   55.760">  2  3  1 -1</clus>
<clus scale="   55.157">  2  4  1 -1</clus>
<clus scale="  158.240">  1  5  2 -1</clus>
<clus scale="  158.240">  1  3  2 -1</clus>
</clustering>
</event>
<event>
 6    0  0.1463946E+003  0.1152401E+03  0.7546771E-02  0.1251163E+00
         21   -1    0    0  504  501  0.00000000000E+00  0.00000000000E+00  0.58539471528E+02  0.58539471528E+02  0.00000000000E+00 0. -1.
         21   -1    0    0  503  502 -0.00000000000E+00 -0.00000000000E+00 -0.11116616054E+04  0.11116616054E+04  0.00000000000E+00 0. -1.
         21    1    1    2  503  505 -0.22252650424E+02 -0.26973440557E+02 -0.36440321824E+03  0.36607711266E+03  0.00000000000E+00 0. -1.
         21    1    1    2  504  506  0.10432442226E+03  0.68277251293E+02 -0.45421367724E+02  0.13269690566E+03  0.00000000000E+00 0. -1.
         21    1    1    2  505  501 -0.16651337209E+02 -0.10104710096E+03 -0.38351899558E+03  0.39695667725E+03  0.00000000000E+00 0. -1.
         21    1    1    2  506  502 -0.65420434633E+02  0.59743290228E+02 -0.25977855228E+03  0.27447038131E+03  0.00000000000E+00 0. -1.
<scales pt_clust_3="34.96780" pt_clust_4="115.24009" pt_clust_5="14000.00000" pt_clust_6="88.84960"></scales>
<clustering>
<clus scale="   34.968">  2  3  1 -1</clus>
<clus scale="   88.850">  2  6  1 -1</clus>
<clus scale="  115.240">  1  4  2 -1</clus>
<clus scale="  115.240">  1  3  2 -1</clus>
</clustering>
</event>
<event>
 6    0  0.1463946E+003  0.1239004E+03  0.7546771E-02  0.1236798E+00
         21   -1    0    0  506  501  0.00000000000E+00  0.00000000000E+00  0.91708260191E+03  0.91708260191E+03  0.00000000000E+00 0. -1.
         21   -1    0    0  503  502 -0.00000000000E+00 -0.00000000000E+00 -0.60303433047E+03  0.60303433047E+03  0.00000000000E+00 0. -1.
         21    1    1    2  503  504 -0.16006320205E+02  0.93444688827E+02  0.47796734251E+01  0.94926062989E+02  0.00000000000E+00 0.  1.
         21    1    1    2  504  501  0.28842120409E+02 -0.15593010334E+02  0.76293189790E+01  0.33663279535E+02  0.00000000000E+00 0. -1.
         21    1    1    2  505  502 -0.85580942186E+02  0.72679104463E+01 -0.53781940147E+03  0.54463439920E+03  0.00000000000E+00 0. -1.
         21    1    1    2  506  505  0.72745141982E+02 -0.85119588940E+02  0.83945868051E+03  0.84689319066E+03  0.00000000000E+00 0. -1.
<scales pt_clust_3="123.90045" pt_clust_4="32.78734" pt_clust_5="85.77476" pt_clust_6="14000.00000"></scales>
<clustering>
<clus scale="   32.787">  1  4  2 -1</clus>
<clus scale="   85.775">  2  5  1 -1</clus>
<clus scale="  123.900">  2  3  1 -1</clus>
<clus scale="   32.787">  1  3  2 -1</clus>
</clustering>
</event>
<event>
 6    0  0.1463946E+003  0.9317445E+02  0.7546771E-02  0.1295341E+00
         21   -1    0    0  503  501  0.00000000000E+00  0.00000000000E+00  0.10620959560E+04  0.10620959560E+04  0.00000000000E+00 0. -1.
         21   -1    0    0  506  502 -0.00000000000E+00 -0.00000000000E+00 -0.32604669755E+02  0.32604669755E+02  0.00000000000E+00 0. -1.
         21    1    1    2  503  505 -0.26151036736E+02 -0.23514840968E+02  0.49302729820E+03  0.49428002310E+03  0.00000000000E+00 0. -1.
         21    1    1    2  504  502  0.66832941049E+02 -0.25286644231E+02  0.56179107136E+02  0.90896361117E+02  0.00000000000E+00 0. -1.
         21    1    1    2  505  504 -0.89041545330E+02  0.98154600828E+01  0.38850893109E+03  0.39870280861E+03  0.00000000000E+00 0. -1.
         21    1    1    2  506  501  0.48359641017E+02  0.38986025116E+02  0.91775949861E+02  0.11082143297E+03  0.00000000000E+00 0. -1.
<scales pt_clust_3="35.16852" pt_clust_4="93.17445" pt_clust_5="14000.00000" pt_clust_6="55.86029"></scales>
<clustering>
<clus scale="   35.169">  1  3  2 -1</clus>
<clus scale="   55.860">  2  6  1 -1</clus>
<clus scale="   93.174">  2  4  1 -1</clus>
<clus scale="   35.169">  1  3  2 -1</clus>
</clustering>
</event>
<event>
 6    0  0.1463946E+003  0.2828562E+03  0.7546771E-02  0.1094139E+00
         21   -1    0    0  504  501  0.00000000000E+00  0.00000000000E+00  0.64885242567E+03  0.64885242567E+03  0.00000000000E+00 0.  1.
         21   -1    0    0  506  502 -0.00000000000E+00 -0.00000000000E+00 -0.34416212126E+03  0.34416212126E+03  0.00000000000E+00 0.  1.
         21    1    1    2  503  505 -0.80687204588E+02  0.23075800560E+02 -0.20945583473E+02  0.86496445145E+02  0.00000000000E+00 0. -1.
         21    1    1    2  504  503  0.37958470693E+02  0.86248066288E+01  0.15663486539E+03  0.16139923742E+03  0.00000000000E+00 0.  1.
         21    1    1    2  505  502 -0.15405657716E+03  0.10347115718E+03 -0.22054518762E+03  0.28823582205E+03  0.00000000000E+00 0.  1.
         21    1    1    2  506  501  0.19678531105E+03 -0.13517176437E+03  0.38954621012E+03  0.45688304231E+03  0.00000000000E+00 0.  1.
<scales pt_clust_3="69.87469" pt_clust_4="38.92599" pt_clust_5="69.87469" pt_clust_6="262.71642"></scales>
<clustering>
<clus scale="   38.926">  1  4  2 -1</clus>
<clus scale="   69.875">  3  5 -1 -1</clus>
<clus scale="  262.716">  1  6  2 -1</clus>
<clus scale="   38.926">  1  3  2 -1</clus>
</clustering>
</event>
<event>
 6    0  0.1463946E+003  0.1304753E+03  0.7546771E-02  0.1226752E+00
         21   -1    0    0  505  501  0.00000000000E+00  0.00000000000E+00  0.33572813217E+03  0.33572813217E+03  0.00000000000E+00 0.  1.
         21   -1    0    0  503  502 -0.00000000000E+00 -0.00000000000E+00 -0.40233219260E+03  0.40233219260E+03  0.00000000000E+00 0.  1.
         21    1    1    2  503  506 -0.27729279515E+02  0.46972855155E+02 -0.10102520791E+03  0.11481051649E+03  0.00000000000E+00 0.  1.
         21    1    1    2  504  502  0.12652692827E+03 -0.11837177276E+03 -0.22093980302E+03  0.28077631082E+03  0.00000000000E+00 0.  1.
         21    1    1    2  505  504 -0.36389209312E+02 -0.67019948612E+02  0.80426378989E+02  0.11083433811E+03  0.00000000000E+00 0.  1.
         21    1    1    2  506  501 -0.62408439440E+02  0.13841886621E+03  0.17493457151E+03  0.23163915935E+03  0.00000000000E+00 0.  1.
<scales pt_clust_3="54.54688" pt_clust_4="14000.00000" pt_clust_5="74.85221" pt_clust_6="130.47527"></scales>
<clustering>
<clus scale="   54.547">  2  3  1 -1</clus>
<clus scale="   74.852">  1  5  2 -1</clus>
<clus scale="  130.475">  1  6  2 -1</clus>
<clus scale="   74.852">  1  3  2 -1</clus>
</clustering>
</event>
<event>
 6    0  0.1463946E+003  0.1182440E+03  0.7546771E-02  0.1246022E+00
         21   -1    0    0  504  501  0.00000000000E+00  0.00000000000E+00  0.15114876140E+03  0.15114876140E+03  0.00000000000E+00 0.  1.
         21   -1    0    0  503  502 -0.00000000000E+00 -0.00000000000E+00 -0.82382722168E+03  0.82382722168E+03  0.00000000000E+00 0.  1.
         21    1    1    2  503  505  0.16702919598E+02 -0.31828445958E+02 -0.11984688655E+03  0.12512119609E+03  0.00000000000E+00 0.  1.
         21    1    1    2  504  506 -0.85882582728E+02  0.21253139314E+02  0.10909740004E+03  0.14046265213E+03  0.00000000000E+00 0.  1.
         21    1    1    2  505  501 -0.24643134178E+02 -0.72853830788E+02 -0.69026577708E+02  0.10334231056E+03  0.00000000000E+00 0.  1.
         21    1    1    2  506  502  0.93822797308E+02  0.83429137432E+02 -0.59290239606E+03  0.60604982429E+03  0.00000000000E+00 0.  1.
<scales pt_clust_3="35.94492" pt_clust_4="14000.00000" pt_clust_5="80.02006" pt_clust_6="118.24400"></scales>
<clustering>
<clus scale="   35.945">  2  3  1 -1</clus>
<clus scale="   80.020">  1  5  2 -1</clus>
<clus scale="  118.244">  2  6  1 -1</clus>
<clus scale="   80.020">  1  3  2 -1</clus>
</clustering>
</event>
<event>
 6    0  0.1463946E+003  0.1088960E+03  0.7546771E-02  0.1262628E+00
         21   -1    0    0  506  501  0.00000000000E+00  0.00000000000E+00  0.22376018762E+03  0.22376018762E+03  0.00000000000E+00 0.  1.
         21   -1    0    0  505  502 -0.00000000000E+00 -0.00000000000E+00 -0.30172075959E+03  0.30172075959E+03  0.00000000000E+00 0. -1.
         21    1    1    2  503  502 -0.32288722346E+02  0.16263184767E+02 -0.17548787729E+02  0.40187220857E+02  0.00000000000E+00 0.  1.
         21    1    1    2  504  501 -0.47600588642E+02 -0.21546312835E+02  0.98539860090E+02  0.11153548163E+03  0.00000000000E+00 0.  1.
         21    1    1    2  505  504  0.13976358263E+03 -0.52149708375E+02 -0.22345041605E+03  0.26866994537E+03  0.00000000000E+00 0. -1.
         21    1    1    2  506  503 -0.59874271641E+02  0.57432836442E+02  0.64498771722E+02  0.10508829935E+03  0.00000000000E+00 0. -1.
<scales pt_clust_3="36.15318" pt_clust_4="52.79503" pt_clust_5="108.89600" pt_clust_6="14000.00000"></scales>
<clustering>
<clus scale="   36.153">  2  3  1 -1</clus>
<clus scale="   52.795">  1  4  2 -1</clus>
<clus scale="  108.896">  2  5  1 -1</clus>
<clus scale="   52.795">  1  3  2 -1</clus>
</clustering>
</event>
<event>
 6    0  0.1463946E+003  0.7047955E+02  0.7546771E-02  0.1358470E+00
         21   -1    0    0  503  501  0.00000000000E+00  0.00000000000E+00  0.20423212548E+03  0.20423212548E+03  0.00000000000E+00 0.  1.
         21   -1    0    0  505  502 -0.00000000000E+00 -0.00000000000E+00 -0.47160606344E+03  0.47160606344E+03  0.00000000000E+00 0.  1.
         21    1    1    2  503  506 -0.62945188726E+01 -0.47911290070E+02 -0.51713221484E+02  0.70776902731E+02  0.00000000000E+00 0.  1.
         21    1    1    2  504  501 -0.58675133219E+02 -0.10281518409E+02  0.45915462688E+02  0.75211106845E+02  0.00000000000E+00 0.  1.
         21    1    1    2  505  504  0.82500667291E+02  0.84295046578E+02  0.10740972154E+03  0.15952699853E+03  0.00000000000E+00 0.  1.
         21    1    1    2  506  502 -0.17531015200E+02 -0.26102238099E+02 -0.36898590070E+03  0.37032318081E+03  0.00000000000E+00 0.  1.
<scales pt_clust_3="70.47955" pt_clust_4="62.78202" pt_clust_5="14000.00000" pt_clust_6="31.44302"></scales>
<clustering>
<clus scale="   31.443">  2  6  1 -1</clus>
<clus scale="   62.782">  1  4  2 -1</clus>
<clus scale="   70.480">  2  3  1 -1</clus>
<clus scale="   62.782">  1  3  2 -1</clus>
</clustering>
</event>
<event>
 6    0  0.1463946E+003  0.1565811E+03  0.7546771E-02  0.1192612E+00
         21   -1    0    0  505  501  0.00000000000E+00  0.00000000000E+00  0.36533033611E+03  0.36533033611E+03  0.00000000000E+00 0.  1.
         21   -1    0    0  506  502 -0.00000000000E+00 -0.00000000000E+00 -0.84955225281E+03  0.84955225281E+03  0.00000000000E+00 0. -1.
         21    1    1    2  503  501  0.14815407802E+03  0.59529310189E+02  0.20939861692E+03  0.26332707869E+03  0.00000000000E+00 0.  1.
         21    1    1    2  504  502 -0.63760639288E+02 -0.52045806189E+02  0.49985461010E+02  0.96295022596E+02  0.00000000000E+00 0.  1.
         21    1    1    2  505  504 -0.50423029355E+02  0.17492118884E+02  0.42376092941E+02  0.68148289526E+02  0.00000000000E+00 0.  1.
         21    1    1    2  506  503 -0.33970409373E+02 -0.24975622884E+02 -0.78598208757E+03  0.78711219812E+03  0.00000000000E+00 0. -1.
<scales pt_clust_3="142.26235" pt_clust_4="50.67936" pt_clust_5="50.67936" pt_clust_6="42.16362"></scales>
<clustering>
<clus scale="   42.164">  2  6  1 -1</clus>
<clus scale="   50.679">  4  5 -1 -1</clus>
<clus scale="  142.262">  1  3  2 -1</clus>
<clus scale="  142.262">  1  3  2 -1</clus>
</clustering>
</event>
<event>
 6    0  0.1463946E+003  0.1300137E+03  0.7546771E-02  0.1227435E+00
         21   -1    0    0  505  501  0.00000000000E+00  0.00000000000E+00  0.46178020935E+02  0.46178020935E+02  0.00000000000E+00 0. -1.
         21   -1    0    0  506  502 -0.00000000000E+00 -0.00000000000E+00 -0.72579129732E+03  0.72579129732E+03  0.00000000000E+00 0. -1.
         21    1    1    2  503  504  0.77030124307E+01  0.39577747774E+02 -0.47442756287E+02  0.62261943782E+02  0.00000000000E+00 0. -1.
         21    1    1    2  504  502  0.54092012302E+02 -0.67344847465E+02 -0.19207481378E+03  0.21060391346E+03  0.00000000000E+00 0. -1.
         21    1    1    2  505  503  0.80886974106E+02  0.28069046398E+02 -0.10925369467E+03  0.13880541685E+03  0.00000000000E+00 0. -1.
         21    1    1    2  506  501 -0.14268199884E+03 -0.30194670711E+00 -0.33084201165E+03  0.36029804417E+03  0.00000000000E+00 0. -1.
<scales pt_clust_3="40.30783" pt_clust_4="86.37867" pt_clust_5="40.30783" pt_clust_6="115.98936"></scales>
<clustering>
<clus scale="   40.308">  3  5 -1 -1</clus>
<clus scale="   86.379">  2  4  1 -1</clus>
<clus scale="  115.989">  2  6  1 -1</clus>
<clus scale="  130.014">  1  3  2 -1</clus>
</clustering>
</event>
<event>
 6    0  0.1463946E+003  0.1090072E+03  0.7546771E-02  0.1262419E+00
         21   -1    0    0  503  501  0.00000000000E+00  0.00000000000E+00  0.22488373341E+03  0.22488373341E+03  0.00000000000E+00 0. -1.
         21   -1    0    0  504  502 -0.00000000000E+00 -0.00000000000E+00 -0.18100849764E+03  0.18100849764E+03  0.00000000000E+00 0.  1.
         21    1    1    2  503  502  0.35587727325E+02 -0.13005394765E+03 -0.92635916476E+02  0.16359073524E+03  0.00000000000E+00 0.  1.
         21    1    1    2  504  506 -0.36570127356E+02  0.13069160734E+02 -0.65091674785E+01  0.39376978533E+02  0.00000000000E+00 0.  1.
         21    1    1    2  505  501  0.38452761829E+02  0.45442446254E+02  0.38724411834E+02  0.71015567911E+02  0.00000000000E+00 0. -1.
         21    1    1    2  506  505 -0.37470361798E+02  0.71542340659E+02  0.10429590790E+03  0.13190894937E+03  0.00000000000E+00 0. -1.
<scales pt_clust_3="109.00723" pt_clust_4="38.83526" pt_clust_5="58.25304" pt_clust_6="14000.00000"></scales>
<clustering>
<clus scale="   38.835">  2  4  1 -1</clus>
<clus scale="   58.253">  1  5  2 -1</clus>
<clus scale="  109.007">  2  3  1 -1</clus>
<clus scale="   58.253">  1  3  2 -1</clus>
</clustering>
</event>
<event>
 6    0  0.1463946E+003  0.1247680E+03  0.7546771E-02  0.1235432E+00
         21   -1    0    0  506  501  0.00000000000E+00  0.00000000000E+00  0.94802206660E+02  0.94802206660E+02  0.00000000000E+00 0.  1.
         21   -1    0    0  504  502 -0.00000000000E+00 -0.00000000000E+00 -0.93460079409E+03  0.93460079409E+03  0.00000000000E+00 0. -1.
         21    1    1    2  503  501  0.72727875634E+01 -0.68844320357E+02 -0.55089155902E+02  0.88471741151E+02  0.00000000000E+00 0.  1.
         21    1    1    2  504  503 -0.47026420389E+02  0.68969188392E+02 -0.67153190071E+03  0.67670032277E+03  0.00000000000E+00 0. -1.
         21    1    1    2  505  502 -0.78379311580E+02 -0.66352423291E+00 -0.12282414150E+03  0.14570355686E+03  0.00000000000E+00 0.  1.
         21    1    1    2  506  505  0.11813294441E+03  0.53865619817E+00  0.96466106781E+01  0.11852737997E+03  0.00000000000E+00 0.  1.
<scales pt_clust_3="69.22741" pt_clust_4="14000.00000" pt_clust_5="78.05742" pt_clust_6="124.76805"></scales>
<clustering>
<clus scale="   69.227">  1  3  2 -1</clus>
<clus scale="   78.057">  2  5  1 -1</clus>
<clus scale="  124.768">  1  6  2 -1</clus>
<clus scale="   69.227">  1  3  2 -1</clus>
</clustering>
</event>
<event>
 6    0  0.1463946E+003  0.7085943E+02  0.7546771E-02  0.1357195E+00
         21   -1    0    0  503  501  0.00000000000E+00  0.00000000000E+00  0.42198183998E+03  0.42198183998E+03  0.00000000000E+00 0.  1.
         21   -1    0    0  505  502 -0.00000000000E+00 -0.00000000000E+00 -0.70515207457E+03  0.70515207457E+03  0.00000000000E+00 0. -1.
         21    1    1    2  503  504 -0.18788705356E+02 -0.35891804183E+02  0.36383790716E+03  0.36608641021E+03  0.00000000000E+00 0.  1.
         21    1    1    2  504  502  0.55237141099E+02 -0.25357826258E+02  0.24304515553E+02  0.65458922887E+02  0.00000000000E+00 0.  1.
         21    1    1    2  505  506  0.48758258207E+02 -0.29937622386E+02 -0.22409454095E+03  0.23128335924E+03  0.00000000000E+00 0.  1.
         21    1    1    2  506  501 -0.85206693949E+02  0.91187252827E+02 -0.44721811635E+03  0.46430522221E+03  0.00000000000E+00 0. -1.
<scales pt_clust_3="40.51218" pt_clust_4="70.85943" pt_clust_5="57.44669" pt_clust_6="14000.00000"></scales>
<clustering>
<clus scale="   40.512">  1  3  2 -1</clus>
<clus scale="   57.447">  2  5  1 -1</clus>
<clus scale="   70.859">  1  4  2 -1</clus>
<clus scale="   40.512">  1  3  2 -1</clus>
</clustering>
</event>
<event>
 6    0  0.1463946E+003  0.6675493E+02  0.7546771E-02  0.1371489E+00
         21   -1    0    0  505  501  0.00000000000E+00  0.00000000000E+00  0.27129967169E+03  0.27129967169E+03  0.00000000000E+00 0.  1.
         21   -1    0    0  503  502 -0.00000000000E+00 -0.00000000000E+00 -0.12287153759E+03  0.12287153759E+03  0.00000000000E+00 0. -1.
         21    1    1    2  503  504 -0.16198129633E+02 -0.29055120012E+02  0.60641374765E+01  0.33813505672E+02  0.00000000000E+00 0.  1.
         21    1    1    2  504  501 -0.61812206255E+02 -0.31883708891E+02  0.17227867678E+03  0.18578821870E+03  0.00000000000E+00 0.  1.
         21    1    1    2  505  506  0.69776002502E+02 -0.26624837544E+02  0.14442652704E+02  0.76066830594E+02  0.00000000000E+00 0. -1.
         21    1    1    2  506  502  0.82343333858E+01  0.87563666446E+02 -0.44357332862E+02  0.98502654311E+02  0.00000000000E+00 0. -1.
<scales pt_clust_3="33.26529" pt_clust_4="66.75493" pt_clust_5="14000.00000" pt_clust_6="68.56404"></scales>
<clustering>
<clus scale="   33.265">  2  3  1 -1</clus>
<clus scale="   68.564">  2  6  1 -1</clus>
<clus scale="   66.755">  1  4  2 -1</clus>
<clus scale="   66.755">  1  3  2 -1</clus>
</clustering>
</event>
<event>
 6    0  0.1463946E+003  0.1105372E+03  0.7546771E-02  0.1259578E+00
         21   -1    0    0  506  501  0.00000000000E+00  0.00000000000E+00  0.86193767386E+03  0.86193767386E+03  0.00000000000E+00 0. -1.
         21   -1    0    0  503  502 -0.00000000000E+00 -0.00000000000E+00 -0.23433297886E+03  0.23433297886E+03  0.00000000000E+00 0. -1.
         21    1    1    2  503  504  0.51874660293E+02 -0.10327300023E+03  0.62849746785E+03  0.63903470958E+03  0.00000000000E+00 0. -1.
         21    1    1    2  504  501 -0.62110607978E+02 -0.17340704091E+02  0.19563817819E+03  0.20599204938E+03  0.00000000000E+00 0.  1.
         21    1    1    2  505  502  0.35930025569E+02  0.56636388009E+02 -0.15940099092E+03  0.17293733862E+03  0.00000000000E+00 0. -1.
         21    1    1    2  506  505 -0.25694077883E+02  0.63977316312E+02 -0.37129960113E+02  0.78306555145E+02  0.00000000000E+00 0. -1.
<scales pt_clust_3="110.53723" pt_clust_4="64.48587" pt_clust_5="66.58290" pt_clust_6="14000.00000"></scales>
<clustering>
<clus scale="   64.486">  1  4  2 -1</clus>
<clus scale="   66.583">  2  5  1 -1</clus>
<clus scale="  110.537">  1  3  2 -1</clus>
<clus scale="   64.486">  1  3  2 -1</clus>
</clustering>
</event>
<event>
 6    0  0.1463946E+003  0.1093034E+03  0.7546771E-02  0.1261865E+00
         21   -1    0    0  506  501  0.00000000000E+00  0.00000000000E+00  0.22696125615E+03  0.22696125615E+03  0.00000000000E+00 0.  1.
         21   -1    0    0  505  502 -0.00000000000E+00 -0.00000000000E+00 -0.32366116147E+03  0.32366116147E+03  0.00000000000E+00 0. -1.
         21    1    1    2  503  504  0.18317000970E+02  0.35791330047E+02 -0.46575871870E+02  0.61529209905E+02  0.00000000000E+00 0. -1.
         21    1    1    2  504  502  0.49599848257E+02  0.39948457146E+02 -0.15564101220E+03  0.16816702665E+03  0.00000000000E+00 0. -1.
         21    1    1    2  505  501 -0.10082566273E+03 -0.43264898589E+02 -0.76094690611E+02  0.13352178719E+03  0.00000000000E+00 0.  1.
         21    1    1    2  506  503  0.32908813507E+02 -0.32474888604E+02  0.18161166936E+03  0.18740439387E+03  0.00000000000E+00 0.  1.
<scales pt_clust_3="30.97193" pt_clust_4="30.97193" pt_clust_5="102.11636" pt_clust_6="46.23428"></scales>
<clustering>
<clus scale="   30.972">  3  4 -1 -1</clus>
<clus scale="   46.234">  1  6  2 -1</clus>
<clus scale="  102.116">  1  5  2 -1</clus>
<clus scale="   46.234">  1  3  2 -1</clus>
</clustering>
</event>
<event>
 6    0  0.1463946E+003  0.9622807E+02  0.7546771E-02  0.1288434E+00
         21   -1    0    0  504  501  0.00000000000E+00  0.00000000000E+00  0.97419037880E+02  0.97419037880E+02  0.00000000000E+00 0.  1.
         21   -1    0    0  505  502 -0.00000000000E+00 -0.00000000000E+00 -0.30346013339E+03  0.30346013339E+03  0.00000000000E+00 0.  1.
         21    1    1    2  503  506  0.63315660009E+01  0.49113707541E+02  0.17189603882E+02  0.52418770284E+02  0.00000000000E+00 0.  1.
         21    1    1    2  504  502 -0.58812568983E+02 -0.65812000068E+02 -0.74719391035E+01  0.88577466081E+02  0.00000000000E+00 0.  1.
         21    1    1    2  505  503  0.58041336075E+02 -0.33159922799E+02 -0.19401219509E+03  0.20520504140E+03  0.00000000000E+00 0.  1.
         21    1    1    2  506  501 -0.55603330931E+01  0.49858215326E+02 -0.21746565195E+02  0.54677893498E+02  0.00000000000E+00 0.  1.
<scales pt_clust_3="40.39271" pt_clust_4="87.21782" pt_clust_5="66.84592" pt_clust_6="40.39271"></scales>
<clustering>
<clus scale="   40.393">  3  6 -1 -1</clus>
<clus scale="   66.846">  2  5  1 -1</clus>
<clus scale="   87.218">  1  4  2 -1</clus>
<clus scale="   87.218">  1  3  2 -1</clus>
</clustering>
</event>
<event>
 6    0  0.1463946E+003  0.1061268E+03  0.7546771E-02  0.1267915E+00
         21   -1    0    0  505  501  0.00000000000E+00  0.00000000000E+00  0.12002554889E+03  0.12002554889E+03  0.00000000000E+00 0. -1.
         21   -1    0    0  504  502 -0.00000000000E+00 -0.00000000000E+00 -0.74203827545E+03  0.74203827545E+03  0.00000000000E+00 0.  1.
         21    1    1    2  503  501  0.26987542105E+02  0.39731101532E+02  0.74665207630E+02  0.88779395629E+02  0.00000000000E+00 0. -1.
         21    1    1    2  504  506 -0.68420639986E+01 -0.29565098385E+02 -0.40120629680E+03  0.40235233500E+03  0.00000000000E+00 0.  1.
         21    1    1    2  505  502 -0.10027718165E+03 -0.71573024965E+02 -0.15706923127E+03  0.19962202903E+03  0.00000000000E+00 0.  1.
         21    1    1    2  506  503  0.80131703547E+02  0.61407021817E+02 -0.13840240612E+03  0.17131006468E+03  0.00000000000E+00 0. -1.
<scales pt_clust_3="47.44364" pt_clust_4="30.34648" pt_clust_5="14000.00000" pt_clust_6="106.12678"></scales>
<clustering>
<clus scale="   30.346">  2  4  1 -1</clus>
<clus scale="   47.444">  1  3  2 -1</clus>
<clus scale="  106.127">  2  6  1 -1</clus>
<clus scale="   47.444">  1  3  2 -1</clus>
</clustering>
</event>
<event>
 6    0  0.1463946E+003  0.7538816E+02  0.7546771E-02  0.1342673E+00
         21   -1    0    0  503  501  0.00000000000E+00  0.00000000000E+00  0.20774261170E+03  0.20774261170E+03  0.00000000000E+00 0.  1.
         21   -1    0    0  505  502 -0.00000000000E+00 -0.00000000000E+00 -0.71974736421E+03  0.71974736421E+03  0.00000000000E+00 0. -1.
         21    1    1    2  503  502  0.29916862921E+02 -0.71311184853E+02 -0.37168497905E+03  0.37964460674E+03  0.00000000000E+00 0. -1.
         21    1    1    2  504  501 -0.58401644673E+02 -0.92725545658E+01  0.17648145664E+03  0.18612478853E+03  0.00000000000E+00 0.  1.
         21    1    1    2  505  506 -0.46369762940E+02  0.93882192128E+00 -0.18384397786E+03  0.18960391477E+03  0.00000000000E+00 0. -1.
         21    1    1    2  506  504  0.74854544692E+02  0.79644917497E+02 -0.13295725224E+03  0.17211666586E+03  0.00000000000E+00 0. -1.
<scales pt_clust_3="14000.00000" pt_clust_4="59.54616" pt_clust_5="46.37927" pt_clust_6="75.38816"></scales>
<clustering>
<clus scale="   46.379">  2  5  1 -1</clus>
<clus scale="   59.546">  1  4  2 -1</clus>
<clus scale="   75.388">  1  6  2 -1</clus>
<clus scale="   59.546">  1  3  2 -1</clus>
</clustering>
</event>
<event>
 6    0  0.1463946E+003  0.9092915E+02  0.7546771E-02  0.1300617E+00
         21   -1    0    0  505  501  0.00000000000E+00  0.00000000000E+00  0.81200308143E+02  0.81200308143E+02  0.00000000000E+00 0.  1.
         21   -1    0    0  504  502 -0.00000000000E+00 -0.00000000000E+00 -0.39907930635E+03  0.39907930635E+03  0.00000000000E+00 0.  1.
         21    1    1    2  503  502 -0.40034972873E+02 -0.12116599418E+03 -0.95813165070E+02  0.15957493474E+03  0.00000000000E+00 0.  1.
         21    1    1    2  504  506  0.35892750766E+02  0.29765302108E+02 -0.21010898950E+03  0.21522093354E+03  0.00000000000E+00 0.  1.
         21    1    1    2  505  503  0.12537186023E+02  0.62417516423E+02  0.14566429654E+02  0.65309327532E+02  0.00000000000E+00 0.  1.
         21    1    1    2  506  501 -0.83949639152E+01  0.28983175645E+02 -0.26523273292E+02  0.40174418674E+02  0.00000000000E+00 0.  1.
<scales pt_clust_3="14000.00000" pt_clust_4="47.05234" pt_clust_5="90.92915" pt_clust_6="30.17449"></scales>
<clustering>
<clus scale="   30.174">  1  6  2 -1</clus>
<clus scale="   47.052">  2  4  1 -1</clus>
<clus scale="   90.929">  1  5  2 -1</clus>
<clus scale="   30.174">  1  3  2 -1</clus>
</clustering>
</event>
<event>
 6    0  0.1463946E+003  0.7625971E+02  0.7546771E-02  0.1340014E+00
         21   -1    0    0  505  501  0.00000000000E+00  0.00000000000E+00  0.73436219916E+03  0.73436219916E+03  0.00000000000E+00 0. -1.
         21   -1    0    0  506  502 -0.00000000000E+00 -0.00000000000E+00 -0.85535629439E+02  0.85535629439E+02  0.00000000000E+00 0. -1.
         21    1    1    2  503  502  0.19051945936E+02  0.23934531920E+02 -0.54737030861E+02  0.62705510202E+02  0.00000000000E+00 0. -1.
         21    1    1    2  504  503 -0.48225776731E+02  0.61681752915E+02  0.21908667475E+03  0.23265711947E+03  0.00000000000E+00 0. -1.
         21    1    1    2  505  504 -0.44446955716E+02 -0.67376361032E+02  0.41129090497E+03  0.41913639118E+03  0.00000000000E+00 0. -1.
         21    1    1    2  506  501  0.73620786511E+02 -0.18239923803E+02  0.73186020858E+02  0.10539880775E+03  0.00000000000E+00 0. -1.
<scales pt_clust_3="30.59148" pt_clust_4="75.55998" pt_clust_5="76.25971" pt_clust_6="14000.00000"></scales>
<clustering>
<clus scale="   30.591">  2  3  1 -1</clus>
<clus scale="   76.260">  1  5  2 -1</clus>
<clus scale="   75.560">  1  4  2 -1</clus>
<clus scale="   76.260">  1  3  2 -1</clus>
</clustering>
</event>
<event>
 6    0  0.1463946E+003  0.8751303E+02  0.7546771E-02  0.1308988E+00
         21   -1    0    0  505  501  0.00000000000E+00  0.00000000000E+00  0.42708799831E+03  0.42708799831E+03  0.00000000000E+00 0. -1.
         21   -1    0    0  504  502 -0.00000000000E+00 -0.00000000000E+00 -0.16300662821E+03  0.16300662821E+03  0.00000000000E+00 0. -1.
         21    1    1    2  503  501  0.98585332007E+02 -0.42668423177E+02  0.35429217744E+02  0.11311450611E+03  0.00000000000E+00 0. -1.
         21    1    1    2  504  503 -0.17784378292E+02  0.90260141393E+02 -0.90508259769E+02  0.12905395121E+03  0.00000000000E+00 0. -1.
         21    1    1    2  505  506 -0.28065133457E+02 -0.26981226912E+02  0.27044611476E+03  0.27323385462E+03  0.00000000000E+00 0. -1.
         21    1    1    2  506  502 -0.52735820258E+02 -0.20610491304E+02  0.48714297363E+02  0.74692314582E+02  0.00000000000E+00 0. -1.
<scales pt_clust_3="87.51303" pt_clust_4="14000.00000" pt_clust_5="38.93120" pt_clust_6="71.16039"></scales>
<clustering>
<clus scale="   38.931">  1  5  2 -1</clus>
<clus scale="   71.160">  1  6  2 -1</clus>
<clus scale="   87.513">  1  3  2 -1</clus>
<clus scale="   38.931">  1  3  2 -1</clus>
</clustering>
</event>
<event>
 6    0  0.1463946E+003  0.8768239E+02  0.7546771E-02  0.1308563E+00
         21   -1    0    0  504  501  0.00000000000E+00  0.00000000000E+00  0.25537584141E+04  0.25537584141E+04  0.00000000000E+00 0.  1.
         21   -1    0    0  505  502 -0.00000000000E+00 -0.00000000000E+00 -0.13643857146E+03  0.13643857146E+03  0.00000000000E+00 0.  1.
         21    1    1    2  503  502  0.46752945907E+02  0.12568164236E+03  0.28462412093E+02  0.13708326695E+03  0.00000000000E+00 0.  1.
         21    1    1    2  504  503  0.34571627290E+02 -0.66407237722E+02  0.14529140205E+04  0.14548416648E+04  0.00000000000E+00 0.  1.
         21    1    1    2  505  506 -0.17792588276E+02 -0.43386233055E+02 -0.73240152841E+02  0.86965863443E+02  0.00000000000E+00 0.  1.
         21    1    1    2  506  501 -0.63531984921E+02 -0.15888171580E+02  0.10091835629E+04  0.10113061904E+04  0.00000000000E+00 0.  1.
<scales pt_clust_3="14000.00000" pt_clust_4="87.68239" pt_clust_5="46.89287" pt_clust_6="66.01584"></scales>
<clustering>
<clus scale="   46.893">  2  5  1 -1</clus>
<clus scale="   66.016">  1  6  2 -1</clus>
<clus scale="   87.682">  1  4  2 -1</clus>
<clus scale="   66.016">  1  3  2 -1</clus>
</clustering>
</event>
<event>
 6    0  0.1463946E+003  0.6054344E+02  0.7546771E-02  0.1395565E+00
         21   -1    0    0  504  501  0.00000000000E+00  0.00000000000E+00  0.10634656184E+03  0.10634656184E+03  0.00000000000E+00 0.  1.
         21   -1    0    0  503  502 -0.00000000000E+00 -0.00000000000E+00 -0.30425806844E+03  0.30425806844E+03  0.00000000000E+00 0. -1.
         21    1    1    2  503  506 -0.15149315280E+02  0.62564441706E+02 -0.11429751267E+03  0.13117824714E+03  0.00000000000E+00 0. -1.
         21    1    1    2  504  505  0.48830874009E+02  0.15653612249E+02  0.60111897718E+02  0.79012214753E+02  0.00000000000E+00 0.  1.
         21    1    1    2  505  502 -0.71000309620E+02 -0.34036644191E+02 -0.10314811527E+03  0.12976544532E+03  0.00000000000E+00 0. -1.
         21    1    1    2  506  501  0.37318750891E+02 -0.44181409764E+02 -0.40577776366E+02  0.70648723072E+02  0.00000000000E+00 0.  1.
<scales pt_clust_3="14000.00000" pt_clust_4="51.27855" pt_clust_5="60.41086" pt_clust_6="60.54344"></scales>
<clustering>
<clus scale="   51.279">  1  4  2 -1</clus>
<clus scale="   60.411">  1  5  2 -1</clus>
<clus scale="   60.543">  1  6  2 -1</clus>
<clus scale="   51.279">  1  3  2 -1</clus>
</clustering>
</event>
<event>
 6    0  0.1463946E+003  0.1040597E+03  0.7546771E-02  0.1271983E+00
         21   -1    0    0  506  501  0.00000000000E+00  0.00000000000E+00  0.13232512953E+04  0.13232512953E+04  0.00000000000E+00 0. -1.
         21   -1    0    0  503  502 -0.00000000000E+00 -0.00000000000E+00 -0.28682267662E+03  0.28682267662E+03  0.00000000000E+00 0.  1.
         21    1    1    2  503  504 -0.35145942075E+02 -0.37401456216E+02 -0.11314448929E+00  0.51323668741E+02  0.00000000000E+00 0.  1.
         21    1    1    2  504  505  0.69534884511E+02 -0.24946835249E+02  0.54260993952E+02  0.91660788877E+02  0.00000000000E+00 0.  1.
         21    1    1    2  505  501  0.85692941052E+02  0.59147321594E+02  0.12074235989E+04  0.12119048779E+04  0.00000000000E+00 0. -1.
         21    1    1    2  506  502 -0.12008188349E+03  0.32009698713E+01 -0.22514282965E+03  0.25518463648E+03  0.00000000000E+00 0.  1.
<scales pt_clust_3="51.32354" pt_clust_4="72.48828" pt_clust_5="14000.00000" pt_clust_6="104.05971"></scales>
<clustering>
<clus scale="   51.324">  2  3  1 -1</clus>
<clus scale="   72.488">  2  4  1 -1</clus>
<clus scale="  104.060">  2  6  1 -1</clus>
<clus scale="  104.060">  1  3  2 -1</clus>
</clustering>
</event>
<event>
 6    0  0.1463946E+003  0.1186631E+03  0.7546771E-02  0.1245319E+00
         21   -1    0    0  504  501  0.00000000000E+00  0.00000000000E+00  0.15976342018E+03  0.15976342018E+03  0.00000000000E+00 0. -1.
         21   -1    0    0  503  502 -0.00000000000E+00 -0.00000000000E+00 -0.11603712034E+04  0.11603712034E+04  0.00000000000E+00 0. -1.
         21    1    1    2  503  501 -0.43611206648E+01 -0.67511024206E+02 -0.30419025171E+02  0.74175972223E+02  0.00000000000E+00 0. -1.
         21    1    1    2  504  505 -0.63154751944E+02  0.36557160171E+02  0.10021715055E+03  0.12396945558E+03  0.00000000000E+00 0. -1.
         21    1    1    2  505  506 -0.45522028393E+02  0.85809462548E+02 -0.86423750283E+02  0.13001762782E+03  0.00000000000E+00 0.  1.
         21    1    1    2  506  502  0.11303790100E+03 -0.54855598512E+02 -0.98398215829E+03  0.99197156793E+03  0.00000000000E+00 0. -1.
<scales pt_clust_3="67.65174" pt_clust_4="69.17182" pt_clust_5="118.66307" pt_clust_6="14000.00000"></scales>
<clustering>
<clus scale="   67.652">  1  3  2 -1</clus>
<clus scale="   69.172">  1  4  2 -1</clus>
<clus scale="  118.663">  1  5  2 -1</clus>
<clus scale="   67.652">  1  3  2 -1</clus>
</clustering>
</event>
<event>
 6    0  0.1463946E+003  0.1932005E+03  0.7546771E-02  0.1155606E+00
         21   -1    0    0  504  501  0.00000000000E+00  0.00000000000E+00  0.95967487835E+03  0.95967487835E+03  0.00000000000E+00 0.  1.
         21   -1    0    0  503  502 -0.00000000000E+00 -0.00000000000E+00 -0.12578491239E+03  0.12578491239E+03  0.00000000000E+00 0.  1.
         21    1    1    2  503  505  0.17587050173E+03  0.38485397870E+02  0.14982515658E+02  0.18065446300E+03  0.00000000000E+00 0.  1.
         21    1    1    2  504  506 -0.18234360166E+03 -0.50013239518E+01  0.59675973711E+03  0.62401633484E+03  0.00000000000E+00 0.  1.
         21    1    1    2  505  501 -0.19606183123E+02  0.62069403413E+02  0.13055529162E+03  0.14588247814E+03  0.00000000000E+00 0. -1.
         21    1    1    2  506  502  0.26079283058E+02 -0.95553477331E+02  0.91592421568E+02  0.13490651476E+03  0.00000000000E+00 0.  1.
<scales pt_clust_3="193.20052" pt_clust_4="14000.00000" pt_clust_5="65.09234" pt_clust_6="90.08225"></scales>
<clustering>
<clus scale="   65.092">  1  5  2 -1</clus>
<clus scale="   90.082">  2  6  1 -1</clus>
<clus scale="  193.201">  2  3  1 -1</clus>
<clus scale="   65.092">  1  3  2 -1</clus>
</clustering>
</event>
<event>
 6    0  0.1463946E+003  0.8788451E+02  0.7546771E-02  0.1308057E+00
         21   -1    0    0  504  501  0.00000000000E+00  0.00000000000E+00  0.83083788811E+03  0.83083788811E+03  0.00000000000E+00 0.  1.
         21   -1    0    0  505  502 -0.00000000000E+00 -0.00000000000E+00 -0.18968916761E+03  0.18968916761E+03  0.00000000000E+00 0. -1.
         21    1    1    2  503  506  0.12092150731E+03 -0.13220231118E+02  0.12116246131E+03  0.17168904296E+03  0.00000000000E+00 0.  1.
         21    1    1    2  504  502 -0.59221964125E+02 -0.15377866283E+02 -0.11010937640E+02  0.62168806921E+02  0.00000000000E+00 0. -1.
         21    1    1    2  505  503 -0.34822844454E+02  0.94951280024E+01 -0.12486576609E+03  0.12997787309E+03  0.00000000000E+00 0. -1.
         21    1    1    2  506  501 -0.26876698726E+02  0.19102969399E+02  0.65586296292E+03  0.65669133275E+03  0.00000000000E+00 0.  1.
<scales pt_clust_3="87.88451" pt_clust_4="14000.00000" pt_clust_5="36.54781" pt_clust_6="32.97393"></scales>
<clustering>
<clus scale="   32.974">  1  6  2 -1</clus>
<clus scale="   36.548">  2  5  1 -1</clus>
<clus scale="   87.885">  1  3  2 -1</clus>
<clus scale="   32.974">  1  3  2 -1</clus>
</clustering>
</event>
<event>
 6    0  0.1463946E+003  0.7883236E+02  0.7546771E-02  0.1332398E+00
         21   -1    0    0  504  501  0.00000000000E+00  0.00000000000E+00  0.50486022423E+03  0.50486022423E+03  0.00000000000E+00 0. -1.
         21   -1    0    0  506  502 -0.00000000000E+00 -0.00000000000E+00 -0.97632585480E+03  0.97632585480E+03  0.00000000000E+00 0.  1.
         21    1    1    2  503  501  0.45512623629E+01 -0.32039396729E+02  0.45906732755E+02  0.56166404942E+02  0.00000000000E+00 0. -1.
         21    1    1    2  504  502 -0.67255568238E+02  0.42462058669E+02  0.36877800117E+03  0.37725793833E+03  0.00000000000E+00 0. -1.
         21    1    1    2  505  503  0.11058677230E+03  0.51408611397E+02  0.32165029746E+02  0.12612243524E+03  0.00000000000E+00 0. -1.
         21    1    1    2  506  505 -0.47882466421E+02 -0.61831273338E+02 -0.91831539425E+03  0.92163930052E+03  0.00000000000E+00 0.  1.
<scales pt_clust_3="32.36104" pt_clust_4="65.53022" pt_clust_5="14000.00000" pt_clust_6="78.83236"></scales>
<clustering>
<clus scale="   32.361">  1  3  2 -1</clus>
<clus scale="   65.530">  1  4  2 -1</clus>
<clus scale="   78.832">  2  6  1 -1</clus>
<clus scale="   32.361">  1  3  2 -1</clus>
</clustering>
</event>
<event>
 6    0  0.1463946E+003  0.9112739E+02  0.7546771E-02  0.1300144E+00
         21   -1    0    0  503  501  0.00000000000E+00  0.00000000000E+00  0.23502286889E+04  0.23502286889E+04  0.00000000000E+00 0. -1.
         21   -1    0    0  505  502 -0.00000000000E+00 -0.00000000000E+00 -0.78461293277E+02  0.78461293277E+02  0.00000000000E+00 0. -1.
         21    1    1    2  503  504  0.69328106758E+02  0.43398109749E+02  0.12010172023E+04  0.12037990291E+04  0.00000000000E+00 0. -1.
         21    1    1    2  504  502 -0.45747824007E+02  0.10012303882E+02 -0.53882991947E+02  0.71389680288E+02  0.00000000000E+00 0. -1.
         21    1    1    2  505  506 -0.11481045003E+02 -0.87183163916E+02  0.12286600164E+03  0.15109193501E+03  0.00000000000E+00 0. -1.
         21    1    1    2  506  501 -0.12099237748E+02  0.33772750286E+02  0.10017671837E+04  0.10024093378E+04  0.00000000000E+00 0. -1.
<scales pt_clust_3="91.12739" pt_clust_4="46.95469" pt_clust_5="14000.00000" pt_clust_6="35.87465"></scales>
<clustering>
<clus scale="   35.875">  1  6  2 -1</clus>
<clus scale="   46.955">  2  4  1 -1</clus>
<clus scale="   91.127">  1  3  2 -1</clus>
<clus scale="   35.875">  1  3  2 -1</clus>
</clustering>
</event>
<event>
 6    0  0.1463946E+003  0.1565811E+03  0.7546771E-02  0.1192612E+00
         21   -1    0    0  504  501  0.00000000000E+00  0.00000000000E+00  0.50040509559E+02  0.50040509559E+02  0.00000000000E+00 0. -1.
         21   -1    0    0  503  502 -0.00000000000E+00 -0.00000000000E+00 -0.14360994649E+04  0.14360994649E+04  0.00000000000E+00 0. -1.
         21    1    1    2  503  505 -0.13330613396E+02 -0.26904615600E+02 -0.44423602716E+03  0.44524960575E+03  0.00000000000E+00 0.  1.
         21    1    1    2  504  502 -0.10095645854E+02  0.47749517467E+02 -0.77417162465E+02  0.91516968523E+02  0.00000000000E+00 0.  1.
         21    1    1    2  505  506 -0.13866248395E+03 -0.32454076359E+02 -0.71361434841E+03  0.72768536456E+03  0.00000000000E+00 0. -1.
         21    1    1    2  506  501  0.16208874320E+03  0.11609174493E+02 -0.15079141728E+03  0.22168803561E+03  0.00000000000E+00 0. -1.
<scales pt_clust_3="30.02605" pt_clust_4="46.82412" pt_clust_5="156.58106" pt_clust_6="14000.00000"></scales>
<clustering>
<clus scale="   30.026">  2  3  1 -1</clus>
<clus scale="   46.824">  1  4  2 -1</clus>
<clus scale="  156.581">  2  5  1 -1</clus>
<clus scale="   46.824">  1  3  2 -1</clus>
</clustering>
</event>
<event>
 6    0  0.1463946E+003  0.9681205E+02  0.7546771E-02  0.1287146E+00
         21   -1    0    0  506  501  0.00000000000E+00  0.00000000000E+00  0.37685611992E+03  0.37685611992E+03  0.00000000000E+00 0. -1.
         21   -1    0    0  505  502 -0.00000000000E+00 -0.00000000000E+00 -0.13878432122E+03  0.13878432122E+03  0.00000000000E+00 0. -1.
         21    1    1    2  503  501  0.54025918786E+02  0.82284493181E+02  0.15742500895E+03  0.18566682839E+03  0.00000000000E+00 0. -1.
         21    1    1    2  504  502 -0.84591237393E+02 -0.10217567313E+03 -0.15023009126E+02  0.13349620379E+03  0.00000000000E+00 0. -1.
         21    1    1    2  505  503  0.96033677315E+02  0.91010062091E+01  0.25231511509E+02  0.99709200507E+02  0.00000000000E+00 0. -1.
         21    1    1    2  506  504 -0.65468358708E+02  0.10790173743E+02  0.70438287358E+02  0.96768208453E+02  0.00000000000E+00 0. -1.
<scales pt_clust_3="14000.00000" pt_clust_4="96.81205" pt_clust_5="82.87500" pt_clust_6="66.35159"></scales>
<clustering>
<clus scale="   66.352">  1  6  2 -1</clus>
<clus scale="   82.875">  2  5  1 -1</clus>
<clus scale="   96.812">  2  4  1 -1</clus>
<clus scale="   66.352">  1  3  2 -1</clus>
</clustering>
</event>
<event>
 6    0  0.1463946E+003  0.5005151E+02  0.7546771E-02  0.1445064E+00
         21   -1    0    0  505  501  0.00000000000E+00  0.00000000000E+00  0.10157180323E+04  0.10157180323E+04  0.00000000000E+00 0.  1.
         21   -1    0    0  506  502 -0.00000000000E+00 -0.00000000000E+00 -0.14147737526E+04  0.14147737526E+04  0.00000000000E+00 0.  1.
         21    1    1    2  503  504 -0.40931578714E+02  0.66419575521E+02 -0.11068634040E+03  0.13541942290E+03  0.00000000000E+00 0.  1.
         21    1    1    2  504  501 -0.10536441702E+02 -0.86212268022E+02  0.43385507181E+03  0.44246332628E+03  0.00000000000E+00 0.  1.
         21    1    1    2  505  502  0.51338497331E+01  0.37840949598E+02  0.56406631256E+03  0.56535749650E+03  0.00000000000E+00 0.  1.
         21    1    1    2  506  503  0.46334170683E+02 -0.18048257097E+02 -0.12862907643E+04  0.12872515392E+04  0.00000000000E+00 0.  1.
<scales pt_clust_3="14000.00000" pt_clust_4="50.05151" pt_clust_5="38.18761" pt_clust_6="49.71568"></scales>
<clustering>
<clus scale="   38.188">  1  5  2 -1</clus>
<clus scale="   49.716">  2  6  1 -1</clus>
<clus scale="   50.052">  1  4  2 -1</clus>
<clus scale="   38.188">  1  3  2 -1</clus>
</clustering>
</event>
<event>
 6    0  0.1463946E+003  0.1475979E+03  0.7546771E-02  0.1203456E+00
         21   -1    0    0  504  501  0.00000000000E+00  0.00000000000E+00  0.23355705726E+03  0.23355705726E+03  0.00000000000E+00 0. -1.
         21   -1    0    0  503  502 -0.00000000000E+00 -0.00000000000E+00 -0.17204679376E+04  0.17204679376E+04  0.00000000000E+00 0.  1.
         21    1    1    2  503  501  0.66402430953E+02 -0.13443970684E+03 -0.37489220099E+03  0.40376661573E+03  0.00000000000E+00 0.  1.
         21    1    1    2  504  506 -0.48121864159E+02 -0.76349525553E+01  0.20337647454E+03  0.20913152968E+03  0.00000000000E+00 0. -1.
         21    1    1    2  505  502 -0.43621423528E+02 -0.17474412115E+02 -0.79140114813E+03  0.79279503084E+03  0.00000000000E+00 0.  1.
         21    1    1    2  506  505  0.25340856734E+02  0.15954907151E+03 -0.52399400580E+03  0.54833181866E+03  0.00000000000E+00 0.  1.
<scales pt_clust_3="147.59788" pt_clust_4="48.86581" pt_clust_5="46.99131" pt_clust_6="14000.00000"></scales>
<clustering>
<clus scale="   46.991">  2  5  1 -1</clus>
<clus scale="   48.866">  1  4  2 -1</clus>
<clus scale="  147.598">  1  3  2 -1</clus>
<clus scale="   48.866">  1  3  2 -1</clus>
</clustering>
</event>
<event>
 6    0  0.1463946E+003  0.8067748E+02  0.7546771E-02  0.1327140E+00
         21   -1    0    0  506  501  0.00000000000E+00  0.00000000000E+00  0.20682340907E+04  0.20682340907E+04  0.00000000000E+00 0. -1.
         21   -1    0    0  505  502 -0.00000000000E+00 -0.00000000000E+00 -0.82969593807E+02  0.82969593807E+02  0.00000000000E+00 0.  1.
         21    1    1    2  503  504  0.73043305124E+02 -0.13803034047E+02  0.40364179614E+03  0.41042971112E+03  0.00000000000E+00 0.  1.
         21    1    1    2  504  501  0.22416148070E+02  0.34190155791E+02  0.13727444423E+04  0.13733531062E+04  0.00000000000E+00 0. -1.
         21    1    1    2  505  503 -0.24004870192E+02 -0.77903082055E+02 -0.48039263332E+02  0.94619737942E+02  0.00000000000E+00 0.  1.
         21    1    1    2  506  502 -0.71454583002E+02  0.57515960311E+02  0.25691752182E+03  0.27280112929E+03  0.00000000000E+00 0.  1.
<scales pt_clust_3="14000.00000" pt_clust_4="40.88338" pt_clust_5="80.20273" pt_clust_6="80.67748"></scales>
<clustering>
<clus scale="   40.883">  1  4  2 -1</clus>
<clus scale="   80.203">  2  5  1 -1</clus>
<clus scale="   80.677">  2  6  1 -1</clus>
<clus scale="   40.883">  1  3  2 -1</clus>
</clustering>
</event>
<event>
 6    0  0.1463946E+003  0.6869191E+02  0.7546771E-02  0.1364599E+00
         21   -1    0    0  505  501  0.00000000000E+00  0.00000000000E+00  0.58245816540E+03  0.58245816540E+03  0.00000000000E+00 0.  1.
         21   -1    0    0  506  502 -0.00000000000E+00 -0.00000000000E+00 -0.13546837995E+03  0.13546837995E+03  0.00000000000E+00 0.  1.
         21    1    1    2  503  501 -0.29014284918E+02 -0.43895104946E+02  0.49064444103E+03  0.49345777579E+03  0.00000000000E+00 0.  1.
         21    1    1    2  504  502  0.76617739580E+02 -0.40975925692E+02 -0.26721206188E+02  0.90902845746E+02  0.00000000000E+00 0.  1.
         21    1    1    2  505  504 -0.65897248886E+01  0.82947497624E+02  0.10961421776E+02  0.83927734412E+02  0.00000000000E+00 0.  1.
         21    1    1    2  506  503 -0.41013729774E+02  0.19235330140E+01 -0.27894871173E+02  0.49638189401E+02  0.00000000000E+00 0.  1.
<scales pt_clust_3="52.92570" pt_clust_4="14000.00000" pt_clust_5="68.69191" pt_clust_6="41.05881"></scales>
<clustering>
<clus scale="   41.059">  2  6  1 -1</clus>
<clus scale="   52.926">  1  3  2 -1</clus>
<clus scale="   68.692">  1  5  2 -1</clus>
<clus scale="   52.926">  1  3  2 -1</clus>
</clustering>
</event>
<event>
 6    0  0.1463946E+003  0.6700500E+02  0.7546771E-02  0.1370584E+00
         21   -1    0    0  503  501  0.00000000000E+00  0.00000000000E+00  0.28321953672E+04  0.28321953672E+04  0.00000000000E+00 0.  1.
         21   -1    0    0  504  502 -0.00000000000E+00 -0.00000000000E+00 -0.15412717202E+02  0.15412717202E+02  0.00000000000E+00 0.  1.
         21    1    1    2  503  505  0.33682657293E+02  0.32910954173E+01  0.17109113631E+04  0.17112460504E+04  0.00000000000E+00 0.  1.
         21    1    1    2  504  501 -0.81416016449E+02 -0.63536409403E+01  0.72668928051E+03  0.73126345929E+03  0.00000000000E+00 0.  1.
         21    1    1    2  505  506  0.34789029441E+02 -0.64718079773E+02  0.20261715740E+03  0.21552823224E+03  0.00000000000E+00 0.  1.
         21    1    1    2  506  502  0.12944329715E+02  0.67780625296E+02  0.17656484901E+03  0.18957034247E+03  0.00000000000E+00 0.  1.
<scales pt_clust_3="33.84306" pt_clust_4="59.66374" pt_clust_5="14000.00000" pt_clust_6="67.00500"></scales>
<clustering>
<clus scale="   33.843">  1  3  2 -1</clus>
<clus scale="   59.664">  1  4  2 -1</clus>
<clus scale="   67.005">  2  6  1 -1</clus>
<clus scale="   33.843">  1  3  2 -1</clus>
</clustering>
</event>
<event>
 6    0  0.1463946E+003  0.1240130E+03  0.7546771E-02  0.1236620E+00
         21   -1    0    0  504  501  0.00000000000E+00  0.00000000000E+00  0.27870049772E+03  0.27870049772E+03  0.00000000000E+00 0.  1.
         21   -1    0    0  505  502 -0.00000000000E+00 -0.00000000000E+00 -0.12188330494E+04  0.12188330494E+04  0.00000000000E+00 0. -1.
         21    1    1    2  503  506 -0.10329668690E+03 -0.93073312288E+00  0.39124138631E+01  0.10337494267E+03  0.00000000000E+00 0. -1.
         21    1    1    2  504  502  0.52974122806E+02 -0.73090709231E+02 -0.14296743922E+02  0.91394235867E+02  0.00000000000E+00 0. -1.
         21    1    1    2  505  503  0.12675692034E+02  0.12878828084E+03 -0.11064427331E+04  0.11139850161E+04  0.00000000000E+00 0. -1.
         21    1    1    2  506  501  0.37646872062E+02 -0.54766838488E+02  0.17669451143E+03  0.18877935254E+03  0.00000000000E+00 0.  1.
<scales pt_clust_3="88.09379" pt_clust_4="14000.00000" pt_clust_5="124.01303" pt_clust_6="66.45821"></scales>
<clustering>
<clus scale="   66.458">  1  6  2 -1</clus>
<clus scale="   88.094">  1  3  2 -1</clus>
<clus scale="  124.013">  2  5  1 -1</clus>
<clus scale="   66.458">  1  3  2 -1</clus>
</clustering>
</event>
<event>
 6    0  0.1463946E+003  0.1258533E+03  0.7546771E-02  0.1233742E+00
         21   -1    0    0  506  501  0.00000000000E+00  0.00000000000E+00  0.18686192097E+03  0.18686192097E+03  0.00000000000E+00 0.  1.
         21   -1    0    0  504  502 -0.00000000000E+00 -0.00000000000E+00 -0.12083572675E+04  0.12083572675E+04  0.00000000000E+00 0. -1.
         21    1    1    2  503  502 -0.31443124494E+02 -0.18654152406E+00 -0.38701881376E+03  0.38829404719E+03  0.00000000000E+00 0. -1.
         21    1    1    2  504  501 -0.73957189158E+02  0.85975875653E+02 -0.44951754025E+03  0.46360277827E+03  0.00000000000E+00 0. -1.
         21    1    1    2  505  503  0.14963136390E+03 -0.27347723686E+02 -0.33964525391E+03  0.37215096609E+03  0.00000000000E+00 0. -1.
         21    1    1    2  506  505 -0.44231050252E+02 -0.58441610443E+02  0.15468626143E+03  0.17117139689E+03  0.00000000000E+00 0.  1.
<scales pt_clust_3="31.44368" pt_clust_4="125.85328" pt_clust_5="14000.00000" pt_clust_6="73.48511"></scales>
<clustering>
<clus scale="   31.444">  2  3  1 -1</clus>
<clus scale="   73.485">  1  6  2 -1</clus>
<clus scale="  125.853">  2  4  1 -1</clus>
<clus scale="   73.485">  1  3  2 -1</clus>
</clustering>
</event>
<event>
 6    0  0.1463946E+003  0.7146227E+02  0.7546771E-02  0.1355190E+00
         21   -1    0    0  503  501  0.00000000000E+00  0.00000000000E+00  0.20478986368E+03  0.20478986368E+03  0.00000000000E+00 0. -1.
         21   -1    0    0  505  502 -0.00000000000E+00 -0.00000000000E+00 -0.70498703139E+03  0.70498703139E+03  0.00000000000E+00 0. -1.
         21    1    1    2  503  502  0.11206146376E+03 -0.47097783891E+02  0.51694725369E+01  0.12166633205E+03  0.00000000000E+00 0. -1.
         21    1    1    2  504  501 -0.42371435762E+02 -0.28096255346E+01  0.11236898820E+03  0.12012502684E+03  0.00000000000E+00 0. -1.
         21    1    1    2  505  506 -0.46300803044E+02  0.93026017851E+01 -0.61930188833E+03  0.62109993693E+03  0.00000000000E+00 0. -1.
         21    1    1    2  506  504 -0.23389224953E+02  0.40604807641E+02  0.15662598920E+01  0.46885599255E+02  0.00000000000E+00 0. -1.
<scales pt_clust_3="71.46227" pt_clust_4="42.46449" pt_clust_5="47.64239" pt_clust_6="14000.00000"></scales>
<clustering>
<clus scale="   42.464">  1  4  2 -1</clus>
<clus scale="   47.642">  2  5  1 -1</clus>
<clus scale="   71.462">  2  3  1 -1</clus>
<clus scale="   42.464">  1  3  2 -1</clus>
</clustering>
</event>
<event>
 6    0  0.1463946E+003  0.9023346E+02  0.7546771E-02  0.1302287E+00
         21   -1    0    0  506  501  0.00000000000E+00  0.00000000000E+00  0.23573893954E+03  0.23573893954E+03  0.00000000000E+00 0.  1.
         21   -1    0    0  504  502 -0.00000000000E+00 -0.00000000000E+00 -0.72005768508E+03  0.72005768508E+03  0.00000000000E+00 0.  1.
         21    1    1    2  503  502  0.29831326441E+02  0.35177179657E+02 -0.53210302020E+03  0.53409827384E+03  0.00000000000E+00 0.  1.
         21    1    1    2  504  501  0.50008432043E+02  0.14365068695E+02 -0.15167997973E+03  0.16035590019E+03  0.00000000000E+00 0.  1.
         21    1    1    2  505  503 -0.11491534623E+03 -0.59421685506E+02  0.13298111819E+03  0.18552749474E+03  0.00000000000E+00 0.  1.
         21    1    1    2  506  505  0.35075587743E+02  0.98794371541E+01  0.66483136200E+02  0.75814955866E+02  0.00000000000E+00 0. -1.
<scales pt_clust_3="46.30646" pt_clust_4="90.23346" pt_clust_5="14000.00000" pt_clust_6="36.44036"></scales>
<clustering>
<clus scale="   36.440">  1  6  2 -1</clus>
<clus scale="   46.306">  2  3  1 -1</clus>
<clus scale="   90.233">  2  4  1 -1</clus>
<clus scale="   36.440">  1  3  2 -1</clus>
</clustering>
</event>
<event>
 6    0  0.1463946E+003  0.6708817E+02  0.7546771E-02  0.1370284E+00
         21   -1    0    0  504  501  0.00000000000E+00  0.00000000000E+00  0.54159404964E+03  0.54159404964E+03  0.00000000000E+00 0.  1.
         21   -1    0    0  505  502 -0.00000000000E+00 -0.00000000000E+00 -0.95960301190E+02  0.95960301190E+02  0.00000000000E+00 0.  1.
         21    1    1    2  503  502 -0.17067007172E+02  0.44403281573E+02  0.36654169381E+02  0.60053828198E+02  0.00000000000E+00 0.  1.
         21    1    1    2  504  503  0.14029566582E+02  0.80782659493E+02  0.32708305298E+03  0.33720318854E+03  0.00000000000E+00 0.  1.
         21    1    1    2  505  506  0.13975780501E+01 -0.71987747009E+02 -0.56819958925E+02  0.91720753791E+02  0.00000000000E+00 0.  1.
         21    1    1    2  506  501  0.16398625398E+01 -0.53198194057E+02  0.13871648501E+03  0.14857658030E+03  0.00000000000E+00 0.  1.
<scales pt_clust_3="47.57031" pt_clust_4="67.08817" pt_clust_5="35.57063" pt_clust_6="14000.00000"></scales>
<clustering>
<clus scale="   47.570">  2  3  1 -1</clus>
<clus scale="   35.571">  2  5  1 -1</clus>
<clus scale="   67.088">  2  4  1 -1</clus>
<clus scale="   67.088">  1  3  2 -1</clus>
</clustering>
</event>
<event>
 6    0  0.1463946E+003  0.7991427E+02  0.7546771E-02  0.1329295E+00
         21   -1    0    0  505  501  0.00000000000E+00  0.00000000000E+00  0.42208055739E+03  0.42208055739E+03  0.00000000000E+00 0. -1.
         21   -1    0    0  506  502 -0.00000000000E+00 -0.00000000000E+00 -0.50067950075E+03  0.50067950075E+03  0.00000000000E+00 0. -1.
         21    1    1    2  503  502 -0.13440781765E+02  0.54945330612E+02 -0.45299171897E+03  0.45650973859E+03  0.00000000000E+00 0. -1.
         21    1    1    2  504  503  0.66601247199E+02  0.36344653606E+01  0.26712911337E+02  0.71850644389E+02  0.00000000000E+00 0. -1.
         21    1    1    2  505  504  0.47614598450E+02  0.56203600644E+00  0.20257682760E+03  0.20809814259E+03  0.00000000000E+00 0. -1.
         21    1    1    2  506  501 -0.10077506388E+03 -0.59141831979E+02  0.14510303667E+03  0.18630153258E+03  0.00000000000E+00 0. -1.
<scales pt_clust_3="56.47926" pt_clust_4="79.91427" pt_clust_5="47.61792" pt_clust_6="14000.00000"></scales>
<clustering>
<clus scale="   47.618">  1  5  2 -1</clus>
<clus scale="   56.479">  2  3  1 -1</clus>
<clus scale="   79.914">  2  4  1 -1</clus>
<clus scale="   47.618">  1  3  2 -1</clus>
</clustering>
</event>
<event>
 6    0  0.1463946E+003  0.1784339E+03  0.7546771E-02  0.1169327E+00
         21   -1    0    0  502  501  0.00000000000E+00  0.00000000000E+00  0.77373930223E+03  0.77373930223E+03  0.00000000000E+00 0. -1.
         21   -1    0    0  506  502 -0.00000000000E+00 -0.00000000000E+00 -0.25478271565E+03  0.25478271565E+03  0.00000000000E+00 0. -1.
         21    1    1    2  503  504 -0.52348997378E+02 -0.11801567979E+02  0.17197027319E+03  0.18014846486E+03  0.00000000000E+00 0. -1.
         21    1    1    2  504  501 -0.83463571671E+02 -0.92002143640E+02  0.23181533473E+03  0.26299983203E+03  0.00000000000E+00 0. -1.
         21    1    1    2  505  503  0.15122342775E+03  0.65074870718E+02  0.32880183674E+03  0.36771444321E+03  0.00000000000E+00 0. -1.
         21    1    1    2  506  505 -0.15410858706E+02  0.38728840901E+02 -0.21363085808E+03  0.21765927779E+03  0.00000000000E+00 0. -1.
<scales pt_clust_3="43.63833" pt_clust_4="43.63833" pt_clust_5="166.49726" pt_clust_6="41.68234"></scales>
<clustering>
<clus scale="   41.682">  2  6  1 -1</clus>
<clus scale="   43.638">  3  4 -1 -1</clus>
<clus scale="  166.497">  2  5  1 -1</clus>
<clus scale="  178.434">  1  3  2 -1</clus>
</clustering>
</event>
<event>
 6    0  0.1463946E+003  0.1430297E+03  0.7546771E-02  0.1209309E+00
         21   -1    0    0  505  501  0.00000000000E+00  0.00000000000E+00  0.32673609528E+03  0.32673609528E+03  0.00000000000E+00 0.  1.
         21   -1    0    0  503  502 -0.00000000000E+00 -0.00000000000E+00 -0.28900145709E+03  0.28900145709E+03  0.00000000000E+00 0.  1.
         21    1    1    2  503  501 -0.68155208442E+02 -0.18769735242E+02  0.20553169025E+03  0.21734928364E+03  0.00000000000E+00 0.  1.
         21    1    1    2  504  502  0.14107838788E+03 -0.37768801698E+02 -0.23377747170E+03  0.27564742006E+03  0.00000000000E+00 0.  1.
         21    1    1    2  505  506 -0.44955815050E+02  0.18137918937E+02  0.56235944892E+02  0.74246150797E+02  0.00000000000E+00 0.  1.
         21    1    1    2  506  504 -0.27967364392E+02  0.38400618002E+02  0.97444747563E+01  0.48494697878E+02  0.00000000000E+00 0.  1.
<scales pt_clust_3="70.69254" pt_clust_4="135.12958" pt_clust_5="46.40553" pt_clust_6="46.40553"></scales>
<clustering>
<clus scale="   46.406">  5  6 -1 -1</clus>
<clus scale="   70.693">  1  3  2 -1</clus>
<clus scale="  135.130">  2  4  1 -1</clus>
<clus scale="   70.693">  1  3  2 -1</clus>
</clustering>
</event>
<event>
 6    0  0.1463946E+003  0.9003340E+02  0.7546771E-02  0.1302771E+00
         21   -1    0    0  505  501  0.00000000000E+00  0.00000000000E+00  0.27302041530E+02  0.27302041530E+02  0.00000000000E+00 0. -1.
         21   -1    0    0  506  502 -0.00000000000E+00 -0.00000000000E+00 -0.31333790230E+04  0.31333790230E+04  0.00000000000E+00 0. -1.
         21    1    1    2  503  502 -0.34220105467E+02 -0.10929030668E+03 -0.21866660279E+04  0.21896629203E+04  0.00000000000E+00 0. -1.
         21    1    1    2  504  501  0.77776247062E+02  0.65193813154E+01 -0.47348535748E+03  0.47987501569E+03  0.00000000000E+00 0. -1.
         21    1    1    2  505  503 -0.29758476944E+02  0.43209196560E+02 -0.13173905423E+02  0.54093931281E+02  0.00000000000E+00 0. -1.
         21    1    1    2  506  504 -0.13797664650E+02  0.59561728801E+02 -0.43275169060E+03  0.43704919724E+03  0.00000000000E+00 0. -1.
<scales pt_clust_3="14000.00000" pt_clust_4="69.23443" pt_clust_5="52.46524" pt_clust_6="90.03340"></scales>
<clustering>
<clus scale="   52.465">  1  5  2 -1</clus>
<clus scale="   69.234">  1  4  2 -1</clus>
<clus scale="   90.033">  1  6  2 -1</clus>
<clus scale="   52.465">  1  3  2 -1</clus>
</clustering>
</event>
<event>
 6    0  0.1463946E+003  0.7351424E+02  0.7546771E-02  0.1348535E+00
         21   -1    0    0  504  501  0.00000000000E+00  0.00000000000E+00  0.21433117724E+02  0.21433117724E+02  0.00000000000E+00 0.  1.
         21   -1    0    0  503  502 -0.00000000000E+00 -0.00000000000E+00 -0.27722757743E+04  0.27722757743E+04  0.00000000000E+00 0.  1.
         21    1    1    2  503  506 -0.21601815709E+02  0.71348107069E+02 -0.22915429415E+04  0.22927551644E+04  0.00000000000E+00 0.  1.
         21    1    1    2  504  505  0.21727074548E+02 -0.52109784112E+02 -0.23168339918E+03  0.23846318966E+03  0.00000000000E+00 0.  1.
         21    1    1    2  505  502  0.56197232191E+02 -0.40121016544E+02 -0.10099230662E+03  0.12234079806E+03  0.00000000000E+00 0.  1.
         21    1    1    2  506  501 -0.56322491031E+02  0.20882693587E+02 -0.12662400926E+03  0.14014973995E+03  0.00000000000E+00 0.  1.
<scales pt_clust_3="73.51424" pt_clust_4="56.45791" pt_clust_5="14000.00000" pt_clust_6="48.19781"></scales>
<clustering>
<clus scale="   56.458">  1  4  2 -1</clus>
<clus scale="   48.198">  1  6  2 -1</clus>
<clus scale="   73.514">  2  3  1 -1</clus>
<clus scale="   56.458">  1  3  2 -1</clus>
</clustering>
</event>
<event>
 6    0  0.1463946E+003  0.8539411E+02  0.7546771E-02  0.1314405E+00
         21   -1    0    0  505  501  0.00000000000E+00  0.00000000000E+00  0.12996824102E+03  0.12996824102E+03  0.00000000000E+00 0. -1.
         21   -1    0    0  506  502 -0.00000000000E+00 -0.00000000000E+00 -0.26374292971E+04  0.26374292971E+04  0.00000000000E+00 0. -1.
         21    1    1    2  503  501  0.60392191427E+02 -0.13242046309E+01 -0.50893418740E+03  0.51250656329E+03  0.00000000000E+00 0. -1.
         21    1    1    2  504  502 -0.12140720488E+03 -0.29569783290E+01 -0.13965841884E+04  0.14018544319E+04  0.00000000000E+00 0. -1.
         21    1    1    2  505  504  0.30462494904E+02  0.20339277696E+02  0.12245564073E+03  0.12781640646E+03  0.00000000000E+00 0. -1.
         21    1    1    2  506  503  0.30552518545E+02 -0.16058094736E+02 -0.72439832102E+03  0.72522013644E+03  0.00000000000E+00 0. -1.
<scales pt_clust_3="14000.00000" pt_clust_4="85.39411" pt_clust_5="36.65168" pt_clust_6="34.51549"></scales>
<clustering>
<clus scale="   34.515">  2  6  1 -1</clus>
<clus scale="   36.652">  1  5  2 -1</clus>
<clus scale="   85.394">  2  4  1 -1</clus>
<clus scale="   36.652">  1  3  2 -1</clus>
</clustering>
</event>
<event>
 6    0  0.1463946E+003  0.1527846E+03  0.7546771E-02  0.1197092E+00
         21   -1    0    0  503  501  0.00000000000E+00  0.00000000000E+00  0.16181834163E+04  0.16181834163E+04  0.00000000000E+00 0. -1.
         21   -1    0    0  506  502 -0.00000000000E+00 -0.00000000000E+00 -0.45336003287E+03  0.45336003287E+03  0.00000000000E+00 0.  1.
         21    1    1    2  503  505  0.14888412242E+03  0.22466649743E+02  0.10057423210E+04  0.10169507601E+04  0.00000000000E+00 0. -1.
         21    1    1    2  504  502 -0.10607926418E+03  0.11015318671E+03 -0.39825708950E+03  0.42660900620E+03  0.00000000000E+00 0.  1.
         21    1    1    2  505  504  0.61260287001E+02 -0.14618892773E+03  0.45327803809E+03  0.48019267505E+03  0.00000000000E+00 0. -1.
         21    1    1    2  506  501 -0.10406514524E+03  0.13569091277E+02  0.10406011384E+03  0.14779100779E+03  0.00000000000E+00 0. -1.
<scales pt_clust_3="84.51166" pt_clust_4="14000.00000" pt_clust_5="152.78460" pt_clust_6="104.94606"></scales>
<clustering>
<clus scale="  104.946">  1  6  2 -1</clus>
<clus scale="   84.512">  1  3  2 -1</clus>
<clus scale="  152.785">  1  5  2 -1</clus>
<clus scale="  104.946">  1  3  2 -1</clus>
</clustering>
</event>
<event>
 6    0  0.1463946E+003  0.8030939E+02  0.7546771E-02  0.1328176E+00
         21   -1    0    0  502  501  0.00000000000E+00  0.00000000000E+00  0.33566824253E+02  0.33566824253E+02  0.00000000000E+00 0.  1.
         21   -1    0    0  506  502 -0.00000000000E+00 -0.00000000000E+00 -0.95314221323E+03  0.95314221323E+03  0.00000000000E+00 0. -1.
         21    1    1    2  503  504  0.60590048019E+02  0.80898632581E+02 -0.34441354764E+03  0.35893792565E+03  0.00000000000E+00 0. -1.
         21    1    1    2  504  501  0.11077357408E+02 -0.52909438968E+02 -0.16594623799E+02  0.56546424450E+02  0.00000000000E+00 0.  1.
         21    1    1    2  505  503 -0.31984555905E+02 -0.60303664618E+02 -0.30510849274E+03  0.31265114125E+03  0.00000000000E+00 0. -1.
         21    1    1    2  506  505 -0.39682849522E+02  0.32314471006E+02 -0.25345872479E+03  0.25857354612E+03  0.00000000000E+00 0. -1.
<scales pt_clust_3="14000.00000" pt_clust_4="51.99828" pt_clust_5="80.30939" pt_clust_6="51.17571"></scales>
<clustering>
<clus scale="   51.176">  2  6  1 -1</clus>
<clus scale="   51.998">  1  4  2 -1</clus>
<clus scale="   80.309">  2  5  1 -1</clus>
<clus scale="   51.998">  1  3  2 -1</clus>
</clustering>
</event>
<event>
 6    0  0.1463946E+003  0.1110800E+03  0.7546771E-02  0.1258583E+00
         21   -1    0    0  503  501  0.00000000000E+00  0.00000000000E+00  0.44616308231E+03  0.44616308231E+03  0.00000000000E+00 0. -1.
         21   -1    0    0  501  502 -0.00000000000E+00 -0.00000000000E+00 -0.40209916997E+02  0.40209916997E+02  0.00000000000E+00 0. -1.
         21    1    1    2  503  504  0.82755980544E+02  0.50237028987E+02  0.18846910486E+03  0.21187948198E+03  0.00000000000E+00 0. -1.
         21    1    1    2  504  505 -0.58312702547E+02 -0.39972793825E+02  0.99608413583E+02  0.12214758115E+03  0.00000000000E+00 0. -1.
         21    1    1    2  505  506 -0.11195265249E+02 -0.49983657760E+02  0.84448802048E+02  0.98768923121E+02  0.00000000000E+00 0. -1.
         21    1    1    2  506  502 -0.13248012748E+02  0.39719422598E+02  0.33426844823E+02  0.53577013057E+02  0.00000000000E+00 0. -1.
<scales pt_clust_3="101.66236" pt_clust_4="38.09977" pt_clust_5="38.09977" pt_clust_6="41.87054"></scales>
<clustering>
<clus scale="   38.100">  4  5 -1 -1</clus>
<clus scale="   41.871">  2  6  1 -1</clus>
<clus scale="  101.662">  1  3  2 -1</clus>
<clus scale="  101.662">  1  3  2 -1</clus>
</clustering>
</event>
<event>
 6    0  0.1463946E+003  0.1689837E+03  0.7546771E-02  0.1178912E+00
         21   -1    0    0  506  501  0.00000000000E+00  0.00000000000E+00  0.46442966897E+03  0.46442966897E+03  0.00000000000E+00 0.  1.
         21   -1    0    0  505  502 -0.00000000000E+00 -0.00000000000E+00 -0.31180431110E+03  0.31180431110E+03  0.00000000000E+00 0.  1.
         21    1    1    2  503  504 -0.19399271421E+03  0.13475995931E+02  0.18226031601E+02  0.19531247748E+03  0.00000000000E+00 0.  1.
         21    1    1    2  504  501  0.19389833642E+02 -0.23921639876E+02  0.17294706124E+03  0.17566700457E+03  0.00000000000E+00 0.  1.
         21    1    1    2  505  503  0.50737495169E+02  0.10424775560E+03 -0.16724482707E+03  0.20350115514E+03  0.00000000000E+00 0.  1.
         21    1    1    2  506  502  0.12386538539E+03 -0.93802111651E+02  0.12869709209E+03  0.20175334288E+03  0.00000000000E+00 0.  1.
<scales pt_clust_3="14000.00000" pt_clust_4="30.79303" pt_clust_5="115.13856" pt_clust_6="168.98372"></scales>
<clustering>
<clus scale="   30.793">  1  4  2 -1</clus>
<clus scale="  115.139">  2  5  1 -1</clus>
<clus scale="  168.984">  1  6  2 -1</clus>
<clus scale="   30.793">  1  3  2 -1</clus>
</clustering>
</event>
<event>
 6    0  0.1463946E+003  0.9825740E+02  0.7546771E-02  0.1284004E+00
         21   -1    0    0  505  501  0.00000000000E+00  0.00000000000E+00  0.36577260674E+03  0.36577260674E+03  0.00000000000E+00 0. -1.
         21   -1    0    0  503  502 -0.00000000000E+00 -0.00000000000E+00 -0.14625318029E+03  0.14625318029E+03  0.00000000000E+00 0. -1.
         21    1    1    2  503  504 -0.36593813321E+02  0.91825716629E+02 -0.93313680056E+02  0.13593569176E+03  0.00000000000E+00 0. -1.
         21    1    1    2  504  501 -0.83231865092E+01 -0.37329728074E+02  0.83578110425E+01  0.39148908506E+02  0.00000000000E+00 0. -1.
         21    1    1    2  505  506  0.48547862324E+01  0.30810465689E+02  0.16933476114E+03  0.17218337630E+03  0.00000000000E+00 0. -1.
         21    1    1    2  506  502  0.40062213598E+02 -0.85306454244E+02  0.13514053433E+03  0.16475781047E+03  0.00000000000E+00 0. -1.
<scales pt_clust_3="14000.00000" pt_clust_4="34.45562" pt_clust_5="31.19060" pt_clust_6="98.25740"></scales>
<clustering>
<clus scale="   31.191">  1  5  2 -1</clus>
<clus scale="   34.456">  1  4  2 -1</clus>
<clus scale="   98.257">  1  6  2 -1</clus>
<clus scale="   31.191">  1  3  2 -1</clus>
</clustering>
</event>
<event>
 6    0  0.1463946E+003  0.8007091E+02  0.7546771E-02  0.1328850E+00
         21   -1    0    0  504  501  0.00000000000E+00  0.00000000000E+00  0.11543553250E+04  0.11543553250E+04  0.00000000000E+00 0. -1.
         21   -1    0    0  506  502 -0.00000000000E+00 -0.00000000000E+00 -0.31693357812E+02  0.31693357812E+02  0.00000000000E+00 0. -1.
         21    1    1    2  503  502  0.36475386232E+02  0.11598139845E+02  0.87758494751E+02  0.95741965980E+02  0.00000000000E+00 0. -1.
         21    1    1    2  504  503 -0.74386559741E+02 -0.10208412445E+03  0.58927713281E+03  0.60266248265E+03  0.00000000000E+00 0. -1.
         21    1    1    2  505  501  0.14037613486E+02  0.49247373895E+02  0.43604287951E+03  0.43903957817E+03  0.00000000000E+00 0. -1.
         21    1    1    2  506  505  0.23873560023E+02  0.41238610715E+02  0.95834601569E+01  0.48604656057E+02  0.00000000000E+00 0. -1.
<scales pt_clust_3="38.27493" pt_clust_4="14000.00000" pt_clust_5="52.38151" pt_clust_6="80.07091"></scales>
<clustering>
<clus scale="   38.275">  2  3  1 -1</clus>
<clus scale="   52.382">  1  5  2 -1</clus>
<clus scale="   80.071">  2  6  1 -1</clus>
<clus scale="   52.382">  1  3  2 -1</clus>
</clustering>
</event>
<event>
 6    0  0.1463946E+003  0.7827246E+02  0.7546771E-02  0.1334027E+00
         21   -1    0    0  506  501  0.00000000000E+00  0.00000000000E+00  0.54438741599E+02  0.54438741599E+02  0.00000000000E+00 0.  1.
         21   -1    0    0  504  502 -0.00000000000E+00 -0.00000000000E+00 -0.11921359823E+04  0.11921359823E+04  0.00000000000E+00 0.  1.
         21    1    1    2  503  502 -0.23483510735E+02  0.84243844622E+02 -0.52138095071E+03  0.52866491882E+03  0.00000000000E+00 0.  1.
         21    1    1    2  504  501 -0.44483750174E+01 -0.73949276488E+02 -0.57862321627E+03  0.58334647504E+03  0.00000000000E+00 0.  1.
         21    1    1    2  505  503  0.60330008599E+02 -0.33004878351E+02 -0.58117837797E+02  0.90037297842E+02  0.00000000000E+00 0.  1.
         21    1    1    2  506  505 -0.32398122846E+02  0.22710310217E+02  0.20424764085E+02  0.44526032184E+02  0.00000000000E+00 0.  1.
<scales pt_clust_3="78.27246" pt_clust_4="14000.00000" pt_clust_5="40.31961" pt_clust_6="39.56509"></scales>
<clustering>
<clus scale="   39.565">  1  6  2 -1</clus>
<clus scale="   40.320">  1  5  2 -1</clus>
<clus scale="   78.272">  1  3  2 -1</clus>
<clus scale="   39.565">  1  3  2 -1</clus>
</clustering>
</event>
<event>
 6    0  0.1463946E+003  0.1356971E+03  0.7546771E-02  0.1219239E+00
         21   -1    0    0  504  501  0.00000000000E+00  0.00000000000E+00  0.12213009141E+04  0.12213009141E+04  0.00000000000E+00 0. -1.
         21   -1    0    0  506  502 -0.00000000000E+00 -0.00000000000E+00 -0.12030901050E+03  0.12030901050E+03  0.00000000000E+00 0. -1.
         21    1    1    2  503  501 -0.54490920722E+02  0.19757876304E+02  0.90157945289E+02  0.10718250424E+03  0.00000000000E+00 0. -1.
         21    1    1    2  504  505 -0.92166481658E+02  0.56910583523E+01  0.10296337690E+04  0.10337662921E+04  0.00000000000E+00 0. -1.
         21    1    1    2  505  502  0.63292701467E+02 -0.42307197760E+02  0.50156405769E+02  0.91167593371E+02  0.00000000000E+00 0.  1.
         21    1    1    2  506  503  0.83364700912E+02  0.16858263103E+02 -0.68956216436E+02  0.10949353487E+03  0.00000000000E+00 0. -1.
<scales pt_clust_3="57.96235" pt_clust_4="135.69712" pt_clust_5="72.59325" pt_clust_6="14000.00000"></scales>
<clustering>
<clus scale="   57.962">  1  3  2 -1</clus>
<clus scale="   72.593">  2  5  1 -1</clus>
<clus scale="  135.697">  1  4  2 -1</clus>
<clus scale="   57.962">  1  3  2 -1</clus>
</clustering>
</event>
<event>
 6    0  0.1463946E+003  0.1745973E+03  0.7546771E-02  0.1173137E+00
         21   -1    0    0  504  501  0.00000000000E+00  0.00000000000E+00  0.24668570110E+04  0.24668570110E+04  0.00000000000E+00 0. -1.
         21   -1    0    0  501  502 -0.00000000000E+00 -0.00000000000E+00 -0.64110912761E+02  0.64110912761E+02  0.00000000000E+00 0.  1.
         21    1    1    2  503  502  0.68445745377E+02 -0.67489137314E+00 -0.26787005246E+02  0.73503871930E+02  0.00000000000E+00 0.  1.
         21    1    1    2  504  505 -0.18625260092E+03 -0.32383569749E+02  0.19779639841E+04  0.19869776670E+04  0.00000000000E+00 0. -1.
         21    1    1    2  505  506  0.85742076591E+02  0.22616027142E+02  0.39321020015E+03  0.40308491647E+03  0.00000000000E+00 0. -1.
         21    1    1    2  506  503  0.32064778957E+02  0.10442433980E+02  0.58358919235E+02  0.67401468317E+02  0.00000000000E+00 0. -1.
<scales pt_clust_3="68.44907" pt_clust_4="167.37011" pt_clust_5="30.65738" pt_clust_6="30.65738"></scales>
<clustering>
<clus scale="   30.657">  5  6 -1 -1</clus>
<clus scale="   68.449">  2  3  1 -1</clus>
<clus scale="  167.370">  1  4  2 -1</clus>
<clus scale="  167.370">  1  3  2 -1</clus>
</clustering>
</event>
<event>
 6    0  0.1463946E+003  0.3802008E+03  0.7546771E-02  0.1050860E+00
         21   -1    0    0  505  501  0.00000000000E+00  0.00000000000E+00  0.21363751518E+03  0.21363751518E+03  0.00000000000E+00 0. -1.
         21   -1    0    0  504  502 -0.00000000000E+00 -0.00000000000E+00 -0.13420973903E+04  0.13420973903E+04  0.00000000000E+00 0. -1.
         21    1    1    2  503  501 -0.39101823502E+03  0.80166830763E+02 -0.69207028704E+03  0.79892631892E+03  0.00000000000E+00 0. -1.
         21    1    1    2  504  503 -0.25307554226E+01 -0.40854310336E+02 -0.31790872821E+03  0.32053305425E+03  0.00000000000E+00 0.  1.
         21    1    1    2  505  506  0.50125667093E+02  0.57389857577E+00  0.31724759790E+02  0.59324297255E+02  0.00000000000E+00 0. -1.
         21    1    1    2  506  502  0.34342332335E+03 -0.39886419003E+02 -0.15020561970E+03  0.37695123508E+03  0.00000000000E+00 0. -1.
<scales pt_clust_3="14000.00000" pt_clust_4="40.93262" pt_clust_5="50.09153" pt_clust_6="380.20076"></scales>
<clustering>
<clus scale="   40.933">  2  4  1 -1</clus>
<clus scale="   50.092">  1  5  2 -1</clus>
<clus scale="  380.201">  1  6  2 -1</clus>
<clus scale="   50.092">  1  3  2 -1</clus>
</clustering>
</event>
<event>
 6    0  0.1463946E+003  0.1216365E+03  0.7546771E-02  0.1240422E+00
         21   -1    0    0  505  501  0.00000000000E+00  0.00000000000E+00  0.84581851646E+02  0.84581851646E+02  0.00000000000E+00 0.  1.
         21   -1    0    0  503  502 -0.00000000000E+00 -0.00000000000E+00 -0.27439299933E+04  0.27439299933E+04  0.00000000000E+00 0.  1.
         21    1    1    2  503  501  0.65919834852E+02 -0.65009754622E+02  0.30039090174E+02  0.97334679130E+02  0.00000000000E+00 0.  1.
         21    1    1    2  504  502  0.10208475289E+03 -0.30444964993E+02 -0.13725808824E+04  0.13767085645E+04  0.00000000000E+00 0.  1.
         21    1    1    2  505  506 -0.14848362096E+02  0.58578696649E+02 -0.51516112968E+02  0.79409366282E+02  0.00000000000E+00 0.  1.
         21    1    1    2  506  504 -0.15315622565E+03  0.36876022967E+02 -0.12652902364E+04  0.12750592351E+04  0.00000000000E+00 0.  1.
<scales pt_clust_3="53.92866" pt_clust_4="121.63649" pt_clust_5="60.43126" pt_clust_6="14000.00000"></scales>
<clustering>
<clus scale="   60.431">  1  5  2 -1</clus>
<clus scale="   53.929">  1  3  2 -1</clus>
<clus scale="  121.636">  2  4  1 -1</clus>
<clus scale="   60.431">  1  3  2 -1</clus>
</clustering>
</event>
<event>
 6    0  0.1463946E+003  0.1717952E+03  0.7546771E-02  0.1175989E+00
         21   -1    0    0  506  501  0.00000000000E+00  0.00000000000E+00  0.11667652990E+04  0.11667652990E+04  0.00000000000E+00 0. -1.
         21   -1    0    0  503  502 -0.00000000000E+00 -0.00000000000E+00 -0.13369477028E+04  0.13369477028E+04  0.00000000000E+00 0. -1.
         21    1    1    2  503  505 -0.11074989412E+03 -0.13206964789E+03 -0.12140567737E+04  0.12262307208E+04  0.00000000000E+00 0. -1.
         21    1    1    2  504  502  0.88121208283E+02 -0.40765771521E+02 -0.76898007707E+02  0.12385676835E+03  0.00000000000E+00 0. -1.
         21    1    1    2  505  501  0.41296454869E+02  0.67484643424E+02  0.10120740014E+03  0.12846210385E+03  0.00000000000E+00 0. -1.
         21    1    1    2  506  504 -0.18667769031E+02  0.10535077598E+03  0.10195649774E+04  0.10251634088E+04  0.00000000000E+00 0. -1.
<scales pt_clust_3="14000.00000" pt_clust_4="97.31370" pt_clust_5="79.11747" pt_clust_6="171.79524"></scales>
<clustering>
<clus scale="   79.117">  1  5  2 -1</clus>
<clus scale="   97.314">  2  4  1 -1</clus>
<clus scale="  171.795">  1  6  2 -1</clus>
<clus scale="   79.117">  1  3  2 -1</clus>
</clustering>
</event>
<event>
 6    0  0.1463946E+003  0.8323970E+02  0.7546771E-02  0.1320101E+00
         21   -1    0    0  503  501  0.00000000000E+00  0.00000000000E+00  0.81885860869E+02  0.81885860869E+02  0.00000000000E+00 0.  1.
         21   -1    0    0  506  502 -0.00000000000E+00 -0.00000000000E+00 -0.88201395681E+03  0.88201395681E+03  0.00000000000E+00 0. -1.
         21    1    1    2  503  502 -0.39934909712E+02 -0.62802604035E+02 -0.15294707495E+03  0.17009342087E+03  0.00000000000E+00 0. -1.
         21    1    1    2  504  505  0.78003848620E+02 -0.49493397033E+01 -0.15087778157E+03  0.16992116211E+03  0.00000000000E+00 0. -1.
         21    1    1    2  505  501 -0.78854123499E+02  0.31005104371E+02  0.33597283078E+02  0.91148596918E+02  0.00000000000E+00 0.  1.
         21    1    1    2  506  504  0.40785184591E+02  0.36746839367E+02 -0.52990052250E+03  0.53273663778E+03  0.00000000000E+00 0. -1.
<scales pt_clust_3="50.51868" pt_clust_4="83.23970" pt_clust_5="14000.00000" pt_clust_6="54.89774"></scales>
<clustering>
<clus scale="   54.898">  2  6  1 -1</clus>
<clus scale="   50.519">  2  3  1 -1</clus>
<clus scale="   83.240">  2  4  1 -1</clus>
<clus scale="   83.240">  1  3  2 -1</clus>
</clustering>
</event>
<event>
 6    0  0.1463946E+003  0.1887923E+03  0.7546771E-02  0.1159555E+00
         21   -1    0    0  504  501  0.00000000000E+00  0.00000000000E+00  0.94470986358E+03  0.94470986358E+03  0.00000000000E+00 0.  1.
         21   -1    0    0  506  502 -0.00000000000E+00 -0.00000000000E+00 -0.79202781554E+02  0.79202781554E+02  0.00000000000E+00 0. -1.
         21    1    1    2  503  501 -0.35187954042E+02 -0.52861627079E+02  0.42348643738E+03  0.42822109520E+03  0.00000000000E+00 0.  1.
         21    1    1    2  504  502 -0.14722591550E+03  0.25872009418E+02  0.33844223054E+03  0.36998374894E+03  0.00000000000E+00 0.  1.
         21    1    1    2  505  503  0.10417021351E+03  0.31124768962E+02  0.99291348448E+02  0.14723775501E+03  0.00000000000E+00 0. -1.
         21    1    1    2  506  505  0.78243656035E+02 -0.41351513013E+01  0.42870656653E+01  0.78470045992E+02  0.00000000000E+00 0. -1.
<scales pt_clust_3="63.50231" pt_clust_4="171.55248" pt_clust_5="69.50748" pt_clust_6="69.50748"></scales>
<clustering>
<clus scale="   63.502">  1  3  2 -1</clus>
<clus scale="   69.507">  5  6 -1 -1</clus>
<clus scale="  171.552">  1  4  2 -1</clus>
<clus scale="   63.502">  1  3  2 -1</clus>
</clustering>
</event>
<event>
 6    0  0.1463946E+003  0.7361844E+02  0.7546771E-02  0.1348203E+00
         21   -1    0    0  505  501  0.00000000000E+00  0.00000000000E+00  0.20139992205E+03  0.20139992205E+03  0.00000000000E+00 0.  1.
         21   -1    0    0  504  502 -0.00000000000E+00 -0.00000000000E+00 -0.82281358071E+03  0.82281358071E+03  0.00000000000E+00 0. -1.
         21    1    1    2  503  501 -0.66770929422E+02 -0.70456535912E+01  0.11076742853E+03  0.12952768613E+03  0.00000000000E+00 0. -1.
         21    1    1    2  504  506 -0.35668760259E+02  0.64583036805E+02 -0.45047819953E+03  0.45647983236E+03  0.00000000000E+00 0. -1.
         21    1    1    2  505  502  0.20401353276E+02 -0.28629189907E+02  0.68697988198E+02  0.77170326633E+02  0.00000000000E+00 0.  1.
         21    1    1    2  506  503  0.82038336405E+02 -0.28908193307E+02 -0.35040087586E+03  0.36103565764E+03  0.00000000000E+00 0. -1.
<scales pt_clust_3="58.46586" pt_clust_4="14000.00000" pt_clust_5="35.15460" pt_clust_6="73.61844"></scales>
<clustering>
<clus scale="   35.155">  1  5  2 -1</clus>
<clus scale="   58.466">  1  3  2 -1</clus>
<clus scale="   73.618">  1  6  2 -1</clus>
<clus scale="   35.155">  1  3  2 -1</clus>
</clustering>
</event>
<event>
 6    0  0.1463946E+003  0.8357235E+02  0.7546771E-02  0.1319209E+00
         21   -1    0    0  505  501  0.00000000000E+00  0.00000000000E+00  0.21310421316E+04  0.21310421316E+04  0.00000000000E+00 0.  1.
         21   -1    0    0  506  502 -0.00000000000E+00 -0.00000000000E+00 -0.20187289631E+03  0.20187289631E+03  0.00000000000E+00 0.  1.
         21    1    1    2  503  501  0.27448745242E+02  0.30851104096E+02  0.12470135552E+04  0.12476970911E+04  0.00000000000E+00 0.  1.
         21    1    1    2  504  503  0.12736900389E+03 -0.11500328350E+02  0.21057690815E+03  0.24636914367E+03  0.00000000000E+00 0.  1.
         21    1    1    2  505  502 -0.96129785250E+02 -0.17806610537E+02  0.64675197018E+03  0.65409947403E+03  0.00000000000E+00 0.  1.
         21    1    1    2  506  504 -0.58687963887E+02 -0.15441652090E+01 -0.17517319822E+03  0.18474931915E+03  0.00000000000E+00 0.  1.
<scales pt_clust_3="41.29436" pt_clust_4="14000.00000" pt_clust_5="83.57235" pt_clust_6="58.55543"></scales>
<clustering>
<clus scale="   41.294">  1  3  2 -1</clus>
<clus scale="   58.555">  2  6  1 -1</clus>
<clus scale="   83.572">  1  5  2 -1</clus>
<clus scale="   41.294">  1  3  2 -1</clus>
</clustering>
</event>
<event>
 6    0  0.1463946E+003  0.1071868E+03  0.7546771E-02  0.1265870E+00
         21   -1    0    0  504  501  0.00000000000E+00  0.00000000000E+00  0.42971485910E+03  0.42971485910E+03  0.00000000000E+00 0. -1.
         21   -1    0    0  506  502 -0.00000000000E+00 -0.00000000000E+00 -0.13507719686E+04  0.13507719686E+04  0.00000000000E+00 0. -1.
         21    1    1    2  503  502  0.81866665898E+02 -0.58329870168E+02 -0.67852074757E+03  0.68592632959E+03  0.00000000000E+00 0. -1.
         21    1    1    2  504  505 -0.99954972245E+01 -0.29324926152E+02  0.29896962896E+03  0.30057062447E+03  0.00000000000E+00 0. -1.
         21    1    1    2  505  503 -0.37471454160E+02 -0.49647935770E+02  0.11049581495E+03  0.12680044371E+03  0.00000000000E+00 0. -1.
         21    1    1    2  506  501 -0.34399714513E+02  0.13730273209E+03 -0.65200180586E+03  0.66718942995E+03  0.00000000000E+00 0. -1.
<scales pt_clust_3="107.18677" pt_clust_4="30.98163" pt_clust_5="89.50939" pt_clust_6="14000.00000"></scales>
<clustering>
<clus scale="   30.982">  1  4  2 -1</clus>
<clus scale="   89.509">  1  5  2 -1</clus>
<clus scale="  107.187">  2  3  1 -1</clus>
<clus scale="   30.982">  1  3  2 -1</clus>
</clustering>
</event>
<event>
 6    0  0.1463946E+003  0.1308669E+03  0.7546771E-02  0.1226175E+00
         21   -1    0    0  503  501  0.00000000000E+00  0.00000000000E+00  0.14057231893E+03  0.14057231893E+03  0.00000000000E+00 0.  1.
         21   -1    0    0  506  502 -0.00000000000E+00 -0.00000000000E+00 -0.39558665547E+03  0.39558665547E+03  0.00000000000E+00 0. -1.
         21    1    1    2  503  504  0.84870096545E+02 -0.25917706873E+02 -0.22535053731E+02  0.91555936257E+02  0.00000000000E+00 0.  1.
         21    1    1    2  504  505 -0.51080383288E+02  0.17448331973E+02 -0.79407750787E+02  0.96016877321E+02  0.00000000000E+00 0.  1.
         21    1    1    2  505  502 -0.84708515707E+02 -0.19148416752E+02 -0.23369533745E+03  0.24931045956E+03  0.00000000000E+00 0. -1.
         21    1    1    2  506  501  0.50918802450E+02  0.27617791652E+02  0.80623805430E+02  0.99275701260E+02  0.00000000000E+00 0.  1.
<scales pt_clust_3="119.79249" pt_clust_4="41.53724" pt_clust_5="41.53724" pt_clust_6="57.92639"></scales>
<clustering>
<clus scale="   41.537">  4  5 -1 -1</clus>
<clus scale="   57.926">  1  6  2 -1</clus>
<clus scale="  119.792">  1  3  2 -1</clus>
<clus scale="   57.926">  1  3  2 -1</clus>
</clustering>
</event>
<event>
 6    0  0.1463946E+003  0.9740166E+02  0.7546771E-02  0.1285857E+00
         21   -1    0    0  506  501  0.00000000000E+00  0.00000000000E+00  0.23835840054E+03  0.23835840054E+03  0.00000000000E+00 0. -1.
         21   -1    0    0  505  502 -0.00000000000E+00 -0.00000000000E+00 -0.69584236717E+03  0.69584236717E+03  0.00000000000E+00 0. -1.
         21    1    1    2  503  502 -0.54739762278E+02 -0.10361095679E+03 -0.61141574615E+03  0.62254388325E+03  0.00000000000E+00 0. -1.
         21    1    1    2  504  501  0.19689117242E+02  0.83044328373E+02  0.19225655383E+03  0.21034876825E+03  0.00000000000E+00 0. -1.
         21    1    1    2  505  504 -0.10471870215E+02  0.30936526653E+02 -0.43430659611E+02  0.54341061283E+02  0.00000000000E+00 0.  1.
         21    1    1    2  506  503  0.45522515252E+02 -0.10369898235E+02  0.51058853022E+01  0.46967054932E+02  0.00000000000E+00 0.  1.
<scales pt_clust_3="14000.00000" pt_clust_4="97.40166" pt_clust_5="32.66081" pt_clust_6="46.14486"></scales>
<clustering>
<clus scale="   32.661">  2  5  1 -1</clus>
<clus scale="   46.145">  1  6  2 -1</clus>
<clus scale="   97.402">  1  4  2 -1</clus>
<clus scale="   46.145">  1  3  2 -1</clus>
</clustering>
</event>
<event>
 6    0  0.1463946E+003  0.1350367E+03  0.7546771E-02  0.1220168E+00
         21   -1    0    0  504  501  0.00000000000E+00  0.00000000000E+00  0.14648487040E+03  0.14648487040E+03  0.00000000000E+00 0.  1.
         21   -1    0    0  505  502 -0.00000000000E+00 -0.00000000000E+00 -0.29200823064E+03  0.29200823064E+03  0.00000000000E+00 0.  1.
         21    1    1    2  503  506  0.94029196954E+02 -0.37348716312E+02 -0.84893575542E+02  0.13207322082E+03  0.00000000000E+00 0.  1.
         21    1    1    2  504  502 -0.84810783248E+02  0.38889478654E+02 -0.34720590118E+02  0.99552899924E+02  0.00000000000E+00 0.  1.
         21    1    1    2  505  503  0.33176048323E+02 -0.27724035913E+02 -0.10490717029E+03  0.11346711738E+03  0.00000000000E+00 0.  1.
         21    1    1    2  506  501 -0.42394462029E+02  0.26183273571E+02  0.78997975712E+02  0.93399862914E+02  0.00000000000E+00 0.  1.
<scales pt_clust_3="40.56178" pt_clust_4="119.93675" pt_clust_5="40.56178" pt_clust_6="49.82825"></scales>
<clustering>
<clus scale="   40.562">  3  5 -1 -1</clus>
<clus scale="   49.828">  1  6  2 -1</clus>
<clus scale="  119.937">  1  4  2 -1</clus>
<clus scale="   49.828">  1  3  2 -1</clus>
</clustering>
</event>
<event>
 6    0  0.1463946E+003  0.1494363E+03  0.7546771E-02  0.1201167E+00
         21   -1    0    0  503  501  0.00000000000E+00  0.00000000000E+00  0.46325119196E+03  0.46325119196E+03  0.00000000000E+00 0.  1.
         21   -1    0    0  505  502 -0.00000000000E+00 -0.00000000000E+00 -0.12310676186E+04  0.12310676186E+04  0.00000000000E+00 0.  1.
         21    1    1    2  503  506 -0.12890787538E+01  0.32140963126E+02  0.73686292274E+02  0.80401324018E+02  0.00000000000E+00 0. -1.
         21    1    1    2  504  502 -0.33954273698E+02 -0.55413115155E+02 -0.28424474594E+03  0.29157946023E+03  0.00000000000E+00 0. -1.
         21    1    1    2  505  501  0.33824262399E+02 -0.17583418100E+03  0.35018456165E+03  0.39330772577E+03  0.00000000000E+00 0.  1.
         21    1    1    2  506  504  0.14190900537E+01  0.19910633302E+03 -0.90744253462E+03  0.92903030053E+03  0.00000000000E+00 0.  1.
<scales pt_clust_3="32.16680" pt_clust_4="64.73489" pt_clust_5="14000.00000" pt_clust_6="149.43627"></scales>
<clustering>
<clus scale="   32.167">  1  3  2 -1</clus>
<clus scale="   64.735">  2  4  1 -1</clus>
<clus scale="  149.436">  2  6  1 -1</clus>
<clus scale="   32.167">  1  3  2 -1</clus>
</clustering>
</event>
<event>
 6    0  0.2010214E+003  0.9765226E+02  0.7546771E-02  0.1285312E+00
         21   -1    0    0  504  501  0.00000000000E+00  0.00000000000E+00  0.14501932949E+04  0.14501932949E+04  0.00000000000E+00 0.  1.
         21   -1    0    0  506  502 -0.00000000000E+00 -0.00000000000E+00 -0.35166162676E+03  0.35166162676E+03  0.00000000000E+00 0. -1.
         21    1    1    2  503  502  0.38330449834E+02 -0.10542885688E+02  0.19173171661E+02  0.44135998172E+02  0.00000000000E+00 0.  1.
         21    1    1    2  504  503 -0.84783760917E+02  0.86105415420E+02  0.12943819437E+04  0.13000104019E+04  0.00000000000E+00 0.  1.
         21    1    1    2  505  501  0.29740893244E+02 -0.57070707898E+01  0.11553423376E+03  0.11943722434E+03  0.00000000000E+00 0.  1.
         21    1    1    2  506  505  0.16712417838E+02 -0.69855458942E+02 -0.33055768104E+03  0.33827129726E+03  0.00000000000E+00 0. -1.
<scales pt_clust_3="40.47104" pt_clust_4="14000.00000" pt_clust_5="30.28352" pt_clust_6="97.65226"></scales>
<clustering>
<clus scale="   30.284">  1  5  2 -1</clus>
<clus scale="   40.471">  2  3  1 -1</clus>
<clus scale="   97.652">  2  6  1 -1</clus>
<clus scale="   30.284">  1  3  2 -1</clus>
</clustering>
</event>
<event>
 6    0  0.1463946E+003  0.7898426E+02  0.7546771E-02  0.1331959E+00
         21   -1    0    0  504  501  0.00000000000E+00  0.00000000000E+00  0.93477982261E+03  0.93477982261E+03  0.00000000000E+00 0. -1.
         21   -1    0    0  503  502 -0.00000000000E+00 -0.00000000000E+00 -0.32318336205E+03  0.32318336205E+03  0.00000000000E+00 0.  1.
         21    1    1    2  503  506 -0.43602361264E+02  0.50856909930E+02  0.58264405407E+01  0.67242386966E+02  0.00000000000E+00 0. -1.
         21    1    1    2  504  505 -0.58753482169E+01 -0.37218127835E+02  0.21915071865E+03  0.22236624348E+03  0.00000000000E+00 0.  1.
         21    1    1    2  505  502  0.11340863307E+02 -0.11977806410E+03 -0.27343493080E+03  0.29873409782E+03  0.00000000000E+00 0.  1.
         21    1    1    2  506  501  0.38136846174E+02  0.10613928200E+03  0.66005423216E+03  0.66962045639E+03  0.00000000000E+00 0. -1.
<scales pt_clust_3="65.75580" pt_clust_4="37.67902" pt_clust_5="78.98426" pt_clust_6="14000.00000"></scales>
<clustering>
<clus scale="   37.679">  1  4  2 -1</clus>
<clus scale="   65.756">  2  3  1 -1</clus>
<clus scale="   78.984">  2  5  1 -1</clus>
<clus scale="   37.679">  1  3  2 -1</clus>
</clustering>
</event>
<event>
 6    0  0.1463946E+003  0.7944706E+02  0.7546771E-02  0.1330628E+00
         21   -1    0    0  504  501  0.00000000000E+00  0.00000000000E+00  0.28062190026E+03  0.28062190026E+03  0.00000000000E+00 0.  1.
         21   -1    0    0  506  502 -0.00000000000E+00 -0.00000000000E+00 -0.16134371980E+03  0.16134371980E+03  0.00000000000E+00 0.  1.
         21    1    1    2  503  501  0.68390736986E+01 -0.67639440872E+02  0.19179098017E+03  0.20348377568E+03  0.00000000000E+00 0.  1.
         21    1    1    2  504  505  0.56658491797E+02  0.51748281244E+02 -0.22696754456E+02  0.80020072277E+02  0.00000000000E+00 0.  1.
         21    1    1    2  505  502  0.27638743487E+02  0.14472285486E+02 -0.59113704152E+02  0.66841433312E+02  0.00000000000E+00 0.  1.
         21    1    1    2  506  503 -0.91136308982E+02  0.14188741423E+01  0.92976588842E+01  0.91620338787E+02  0.00000000000E+00 0.  1.
<scales pt_clust_3="67.31577" pt_clust_4="79.44706" pt_clust_5="31.19851" pt_clust_6="14000.00000"></scales>
<clustering>
<clus scale="   31.199">  2  5  1 -1</clus>
<clus scale="   67.316">  1  3  2 -1</clus>
<clus scale="   79.447">  1  4  2 -1</clus>
<clus scale="   67.316">  1  3  2 -1</clus>
</clustering>
</event>
<event>
 6    0  0.1463946E+003  0.1056068E+03  0.7546771E-02  0.1268929E+00
         21   -1    0    0  505  501  0.00000000000E+00  0.00000000000E+00  0.24690891789E+03  0.24690891789E+03  0.00000000000E+00 0. -1.
         21   -1    0    0  506  502 -0.00000000000E+00 -0.00000000000E+00 -0.34563080799E+03  0.34563080799E+03  0.00000000000E+00 0. -1.
         21    1    1    2  503  501 -0.12061091470E+03 -0.39772067106E+02 -0.10691503150E+03  0.16601094551E+03  0.00000000000E+00 0. -1.
         21    1    1    2  504  502 -0.25195659531E+02  0.47536245802E+02 -0.11123613504E+02  0.54938608479E+02  0.00000000000E+00 0. -1.
         21    1    1    2  505  504  0.44567859344E+02  0.41412226646E+02  0.17169343340E+03  0.18215351129E+03  0.00000000000E+00 0. -1.
         21    1    1    2  506  503  0.10123871489E+03 -0.49176405342E+02 -0.15237667848E+03  0.18943666060E+03  0.00000000000E+00 0. -1.
<scales pt_clust_3="14000.00000" pt_clust_4="53.80071" pt_clust_5="61.07679" pt_clust_6="105.60681"></scales>
<clustering>
<clus scale="   53.801">  2  4  1 -1</clus>
<clus scale="   61.077">  1  5  2 -1</clus>
<clus scale="  105.607">  2  6  1 -1</clus>
<clus scale="   61.077">  1  3  2 -1</clus>
</clustering>
</event>
<event>
 6    0  0.1463946E+003  0.1176644E+03  0.7546771E-02  0.1247001E+00
         21   -1    0    0  506  501  0.00000000000E+00  0.00000000000E+00  0.15129739760E+04  0.15129739760E+04  0.00000000000E+00 0. -1.
         21   -1    0    0  503  502 -0.00000000000E+00 -0.00000000000E+00 -0.10235006299E+03  0.10235006299E+03  0.00000000000E+00 0. -1.
         21    1    1    2  503  505 -0.37253572442E+02  0.19357186139E+02 -0.11409048086E+02  0.43505122608E+02  0.00000000000E+00 0. -1.
         21    1    1    2  504  501  0.77879651882E+02 -0.89772480873E+02  0.13861465118E+04  0.13912320046E+04  0.00000000000E+00 0. -1.
         21    1    1    2  505  504 -0.30124566719E+02  0.10875876787E+03  0.65979752521E+02  0.13072599914E+03  0.00000000000E+00 0. -1.
         21    1    1    2  506  502 -0.10501512721E+02 -0.38343473134E+02 -0.30093303267E+02  0.49860912576E+02  0.00000000000E+00 0. -1.
<scales pt_clust_3="41.94968" pt_clust_4="117.66437" pt_clust_5="14000.00000" pt_clust_6="39.75555"></scales>
<clustering>
<clus scale="   39.756">  2  6  1 -1</clus>
<clus scale="   41.950">  2  3  1 -1</clus>
<clus scale="  117.664">  1  4  2 -1</clus>
<clus scale="  117.664">  1  3  2 -1</clus>
</clustering>
</event>
<event>
 6    0  0.1463946E+003  0.1560827E+03  0.7546771E-02  0.1193192E+00
         21   -1    0    0  506  501  0.00000000000E+00  0.00000000000E+00  0.20217011290E+03  0.20217011290E+03  0.00000000000E+00 0. -1.
         21   -1    0    0  503  502 -0.00000000000E+00 -0.00000000000E+00 -0.43325243788E+03  0.43325243788E+03  0.00000000000E+00 0. -1.
         21    1    1    2  503  501  0.92069699542E+02 -0.17320584070E+03  0.84892064499E+02  0.21373758547E+03  0.00000000000E+00 0. -1.
         21    1    1    2  504  505 -0.28771578765E+02  0.46575704424E+02 -0.77254142866E+02  0.94685281735E+02  0.00000000000E+00 0. -1.
         21    1    1    2  505  502 -0.19936172105E+02  0.87929056527E+02 -0.25177432571E+03  0.26743089018E+03  0.00000000000E+00 0. -1.
         21    1    1    2  506  504 -0.43361948672E+02  0.38701079748E+02  0.13054079091E+02  0.59568793401E+02  0.00000000000E+00 0. -1.
<scales pt_clust_3="148.18025" pt_clust_4="38.20947" pt_clust_5="38.20947" pt_clust_6="58.12084"></scales>
<clustering>
<clus scale="   38.209">  4  5 -1 -1</clus>
<clus scale="   58.121">  1  6  2 -1</clus>
<clus scale="  148.180">  1  3  2 -1</clus>
<clus scale="   58.121">  1  3  2 -1</clus>
</clustering>
</event>
<event>
 6    0  0.1463946E+003  0.1156263E+03  0.7546771E-02  0.1250492E+00
         21   -1    0    0  504  501  0.00000000000E+00  0.00000000000E+00  0.15390784284E+04  0.15390784284E+04  0.00000000000E+00 0. -1.
         21   -1    0    0  503  502 -0.00000000000E+00 -0.00000000000E+00 -0.53721832123E+02  0.53721832123E+02  0.00000000000E+00 0. -1.
         21    1    1    2  503  506 -0.27655749797E+02 -0.54704500818E+02  0.38191805211E+02  0.72222135747E+02  0.00000000000E+00 0. -1.
         21    1    1    2  504  505 -0.71225922966E+02  0.95819460809E+02  0.13694473014E+04  0.13746419215E+04  0.00000000000E+00 0. -1.
         21    1    1    2  505  502  0.39095881580E+02  0.12211211161E+02  0.40499625870E+02  0.57600532377E+02  0.00000000000E+00 0. -1.
         21    1    1    2  506  501  0.59785791184E+02 -0.53326171152E+02  0.37217863781E+02  0.88335670834E+02  0.00000000000E+00 0. -1.
<scales pt_clust_3="51.74602" pt_clust_4="14000.00000" pt_clust_5="40.95854" pt_clust_6="115.62635"></scales>
<clustering>
<clus scale="   40.959">  2  5  1 -1</clus>
<clus scale="   51.746">  2  3  1 -1</clus>
<clus scale="  115.626">  2  6  1 -1</clus>
<clus scale="  115.626">  1  3  2 -1</clus>
</clustering>
</event>
<event>
 6    0  0.1463946E+003  0.1590174E+03  0.7546771E-02  0.1189811E+00
         21   -1    0    0  503  501  0.00000000000E+00  0.00000000000E+00  0.12922725563E+03  0.12922725563E+03  0.00000000000E+00 0.  1.
         21   -1    0    0  505  502 -0.00000000000E+00 -0.00000000000E+00 -0.10098228828E+04  0.10098228828E+04  0.00000000000E+00 0.  1.
         21    1    1    2  503  502 -0.11117568858E+03 -0.13859575544E+02 -0.78102309590E+02  0.13657266318E+03  0.00000000000E+00 0.  1.
         21    1    1    2  504  506 -0.48445234225E+02  0.10015323462E+03 -0.12414227568E+03  0.16670007719E+03  0.00000000000E+00 0.  1.
         21    1    1    2  505  504  0.17551882896E+03  0.18771154422E+02 -0.70455678181E+03  0.72633289499E+03  0.00000000000E+00 0.  1.
         21    1    1    2  506  501 -0.15897906155E+02 -0.10506481350E+03  0.26205739879E+02  0.10944450310E+03  0.00000000000E+00 0.  1.
<scales pt_clust_3="159.01739" pt_clust_4="83.51215" pt_clust_5="14000.00000" pt_clust_6="106.26080"></scales>
<clustering>
<clus scale="  106.261">  1  6  2 -1</clus>
<clus scale="   83.512">  1  4  2 -1</clus>
<clus scale="  159.017">  1  3  2 -1</clus>
<clus scale="  106.261">  1  3  2 -1</clus>
</clustering>
</event>
<event>
 6    0  0.1463946E+003  0.1057231E+03  0.7546771E-02  0.1268701E+00
         21   -1    0    0  505  501  0.00000000000E+00  0.00000000000E+00  0.21721423192E+04  0.21721423192E+04  0.00000000000E+00 0.  1.
         21   -1    0    0  503  502 -0.00000000000E+00 -0.00000000000E+00 -0.36194221470E+02  0.36194221470E+02  0.00000000000E+00 0.  1.
         21    1    1    2  503  506 -0.67779486180E+02  0.77716742594E+02  0.68136400801E+02  0.12359821981E+03  0.00000000000E+00 0.  1.
         21    1    1    2  504  502  0.27216694186E+02  0.16635551542E+02  0.83851052886E+02  0.89713371844E+02  0.00000000000E+00 0.  1.
         21    1    1    2  505  504  0.20587106264E+02  0.50873311354E+02  0.32510479435E+03  0.32970448899E+03  0.00000000000E+00 0. -1.
         21    1    1    2  506  501  0.19975685731E+02 -0.14522560549E+03  0.16588558497E+04  0.16653204600E+04  0.00000000000E+00 0.  1.
<scales pt_clust_3="105.72310" pt_clust_4="31.89812" pt_clust_5="56.66831" pt_clust_6="14000.00000"></scales>
<clustering>
<clus scale="   31.898">  2  4  1 -1</clus>
<clus scale="   56.668">  1  5  2 -1</clus>
<clus scale="  105.723">  2  3  1 -1</clus>
<clus scale="   56.668">  1  3  2 -1</clus>
</clustering>
</event>
<event>
 6    0  0.1463946E+003  0.6422337E+02  0.7546771E-02  0.1380917E+00
         21   -1    0    0  504  501  0.00000000000E+00  0.00000000000E+00  0.52244281927E+03  0.52244281927E+03  0.00000000000E+00 0. -1.
         21   -1    0    0  506  502 -0.00000000000E+00 -0.00000000000E+00 -0.13411023496E+03  0.13411023496E+03  0.00000000000E+00 0. -1.
         21    1    1    2  503  501 -0.86873076435E+02  0.17291341690E+02  0.38179501537E+03  0.39193539731E+03  0.00000000000E+00 0. -1.
         21    1    1    2  504  505  0.54081699356E+02 -0.11902825027E+02  0.58187287631E+02  0.80326010051E+02  0.00000000000E+00 0. -1.
         21    1    1    2  505  502  0.46724427308E+02  0.48243820526E+02 -0.93308877672E+02  0.11496601662E+03  0.00000000000E+00 0. -1.
         21    1    1    2  506  503 -0.13933050230E+02 -0.53632337189E+02  0.41659158983E+02  0.69325630240E+02  0.00000000000E+00 0. -1.
<scales pt_clust_3="41.32569" pt_clust_4="55.37605" pt_clust_5="14000.00000" pt_clust_6="64.22337"></scales>
<clustering>
<clus scale="   55.376">  1  4  2 -1</clus>
<clus scale="   41.326">  1  3  2 -1</clus>
<clus scale="   64.223">  1  6  2 -1</clus>
<clus scale="   55.376">  1  3  2 -1</clus>
</clustering>
</event>
<event>
 6    0  0.1463946E+003  0.2286049E+03  0.7546771E-02  0.1127626E+00
         21   -1    0    0  504  501  0.00000000000E+00  0.00000000000E+00  0.13975287240E+03  0.13975287240E+03  0.00000000000E+00 0. -1.
         21   -1    0    0  503  502 -0.00000000000E+00 -0.00000000000E+00 -0.70768869802E+03  0.70768869802E+03  0.00000000000E+00 0. -1.
         21    1    1    2  503  501  0.62791379314E+02  0.10963416492E+03  0.29610156648E+02  0.12976582297E+03  0.00000000000E+00 0. -1.
         21    1    1    2  504  505  0.33899182194E+02  0.11612202932E+03 -0.10457234143E+03  0.15990264175E+03  0.00000000000E+00 0. -1.
         21    1    1    2  505  506 -0.54586704470E+02 -0.20035215471E+03 -0.35468121440E+03  0.41099812415E+03  0.00000000000E+00 0. -1.
         21    1    1    2  506  502 -0.42103857038E+02 -0.25404039521E+02 -0.13829242643E+03  0.14677498155E+03  0.00000000000E+00 0.  1.
<scales pt_clust_3="210.92012" pt_clust_4="120.96892" pt_clust_5="42.90311" pt_clust_6="42.90311"></scales>
<clustering>
<clus scale="   42.903">  5  6 -1 -1</clus>
<clus scale="  120.969">  1  4  2 -1</clus>
<clus scale="  210.920">  1  3  2 -1</clus>
<clus scale="  120.969">  1  3  2 -1</clus>
</clustering>
</event>
<event>
 6    0  0.1463946E+003  0.2347291E+03  0.7546771E-02  0.1123355E+00
         21   -1    0    0  503  501  0.00000000000E+00  0.00000000000E+00  0.20560116742E+03  0.20560116742E+03  0.00000000000E+00 0.  1.
         21   -1    0    0  505  502 -0.00000000000E+00 -0.00000000000E+00 -0.10788406195E+04  0.10788406195E+04  0.00000000000E+00 0.  1.
         21    1    1    2  503  506 -0.23245788784E+02  0.33648145552E+02  0.29304931810E+01  0.41001855880E+02  0.00000000000E+00 0. -1.
         21    1    1    2  504  501  0.24009589883E+03  0.10137308937E+02  0.38020433926E+02  0.24329890888E+03  0.00000000000E+00 0.  1.
         21    1    1    2  505  504  0.79559940496E+02  0.38257993629E+02 -0.12406355758E+03  0.15226695153E+03  0.00000000000E+00 0.  1.
         21    1    1    2  506  502 -0.29641005054E+03 -0.82043448118E+02 -0.79012682164E+03  0.84787407067E+03  0.00000000000E+00 0.  1.
<scales pt_clust_3="40.89700" pt_clust_4="234.72905" pt_clust_5="87.84639" pt_clust_6="14000.00000"></scales>
<clustering>
<clus scale="   40.897">  1  3  2 -1</clus>
<clus scale="   87.846">  2  5  1 -1</clus>
<clus scale="  234.729">  1  4  2 -1</clus>
<clus scale="   40.897">  1  3  2 -1</clus>
</clustering>
</event>
<event>
 6    0  0.1463946E+003  0.7552440E+02  0.7546771E-02  0.1342255E+00
         21   -1    0    0  506  501  0.00000000000E+00  0.00000000000E+00  0.18087912969E+03  0.18087912969E+03  0.00000000000E+00 0. -1.
         21   -1    0    0  503  502 -0.00000000000E+00 -0.00000000000E+00 -0.23307232435E+03  0.23307232435E+03  0.00000000000E+00 0. -1.
         21    1    1    2  503  504 -0.93609869787E+01  0.45521329866E+02 -0.99740227835E+02  0.11003605136E+03  0.00000000000E+00 0. -1.
         21    1    1    2  504  505  0.76884300195E+02 -0.48013758008E+02 -0.60223729345E+02  0.10882745127E+03  0.00000000000E+00 0. -1.
         21    1    1    2  505  501 -0.70237190731E+02 -0.35343734159E+02  0.12940403593E+03  0.15141944070E+03  0.00000000000E+00 0. -1.
         21    1    1    2  506  502  0.27138775139E+01  0.37836162301E+02 -0.21633273417E+02  0.43668510709E+02  0.00000000000E+00 0. -1.
<scales pt_clust_3="65.80330" pt_clust_4="75.52440" pt_clust_5="14000.00000" pt_clust_6="37.93337"></scales>
<clustering>
<clus scale="   37.933">  2  6  1 -1</clus>
<clus scale="   65.803">  2  3  1 -1</clus>
<clus scale="   75.524">  2  4  1 -1</clus>
<clus scale="   75.524">  1  3  2 -1</clus>
</clustering>
</event>
<event>
 6    0  0.1463946E+003  0.1277346E+03  0.7546771E-02  0.1230856E+00
         21   -1    0    0  504  501  0.00000000000E+00  0.00000000000E+00  0.32088977956E+03  0.32088977956E+03  0.00000000000E+00 0. -1.
         21   -1    0    0  503  502 -0.00000000000E+00 -0.00000000000E+00 -0.91773731511E+03  0.91773731511E+03  0.00000000000E+00 0.  1.
         21    1    1    2  503  501  0.14872784599E+03 -0.65800304742E+02  0.24720113880E+03  0.29590210426E+03  0.00000000000E+00 0. -1.
         21    1    1    2  504  505 -0.34540128811E+02  0.73845039764E+01  0.34819842531E+02  0.49598113181E+02  0.00000000000E+00 0. -1.
         21    1    1    2  505  506 -0.10267578609E+03  0.19069820712E+02 -0.43460665164E+03  0.44697753496E+03  0.00000000000E+00 0.  1.
         21    1    1    2  506  502 -0.11511931095E+02  0.39345980053E+02 -0.44426186524E+03  0.44614934227E+03  0.00000000000E+00 0. -1.
<scales pt_clust_3="14000.00000" pt_clust_4="35.32069" pt_clust_5="127.73458" pt_clust_6="41.05248"></scales>
<clustering>
<clus scale="   35.321">  1  4  2 -1</clus>
<clus scale="   41.052">  2  6  1 -1</clus>
<clus scale="  127.735">  2  5  1 -1</clus>
<clus scale="   35.321">  1  3  2 -1</clus>
</clustering>
</event>
<event>
 6    0  0.1463946E+003  0.1476838E+03  0.7546771E-02  0.1203348E+00
         21   -1    0    0  503  501  0.00000000000E+00  0.00000000000E+00  0.67530785734E+03  0.67530785734E+03  0.00000000000E+00 0. -1.
         21   -1    0    0  505  502 -0.00000000000E+00 -0.00000000000E+00 -0.56247001313E+03  0.56247001313E+03  0.00000000000E+00 0.  1.
         21    1    1    2  503  506 -0.12017441295E+03 -0.32094205665E+02 -0.94755408415E+02  0.15636660446E+03  0.00000000000E+00 0.  1.
         21    1    1    2  504  502  0.41927599732E+02  0.79168698890E+01 -0.20059198710E+03  0.20507985210E+03  0.00000000000E+00 0. -1.
         21    1    1    2  505  501 -0.38976762581E+01 -0.37085098134E+02  0.63046567016E+03  0.63156746087E+03  0.00000000000E+00 0. -1.
         21    1    1    2  506  504  0.82144489476E+02  0.61262433910E+02 -0.22228043043E+03  0.24476395305E+03  0.00000000000E+00 0.  1.
<scales pt_clust_3="135.83739" pt_clust_4="38.34752" pt_clust_5="37.28936" pt_clust_6="38.34752"></scales>
<clustering>
<clus scale="   37.289">  1  5  2 -1</clus>
<clus scale="   38.348">  4  6 -1 -1</clus>
<clus scale="  135.837">  1  3  2 -1</clus>
<clus scale="   37.289">  1  3  2 -1</clus>
</clustering>
</event>
<event>
 6    0  0.1463946E+003  0.9132950E+02  0.7546771E-02  0.1299664E+00
         21   -1    0    0  503  501  0.00000000000E+00  0.00000000000E+00  0.75070745876E+02  0.75070745876E+02  0.00000000000E+00 0. -1.
         21   -1    0    0  505  502 -0.00000000000E+00 -0.00000000000E+00 -0.21461624770E+04  0.21461624770E+04  0.00000000000E+00 0. -1.
         21    1    1    2  503  506 -0.34187919891E+02  0.43846147375E+02  0.35958581195E+02  0.66214183281E+02  0.00000000000E+00 0. -1.
         21    1    1    2  504  502 -0.62581569770E+02 -0.14955256546E+03 -0.58363670024E+03  0.60573444724E+03  0.00000000000E+00 0. -1.
         21    1    1    2  505  501  0.72256117047E+02  0.46471188796E+02 -0.14469702367E+04  0.14495183282E+04  0.00000000000E+00 0. -1.
         21    1    1    2  506  504  0.24513372613E+02  0.59235229293E+02 -0.76443375368E+02  0.99766264158E+02  0.00000000000E+00 0. -1.
<scales pt_clust_3="55.59945" pt_clust_4="14000.00000" pt_clust_5="91.32950" pt_clust_6="80.93924"></scales>
<clustering>
<clus scale="   55.599">  1  3  2 -1</clus>
<clus scale="   80.939">  1  6  2 -1</clus>
<clus scale="   91.329">  2  5  1 -1</clus>
<clus scale="   55.599">  1  3  2 -1</clus>
</clustering>
</event>
<event>
 6    0  0.1463946E+003  0.1160644E+03  0.7546771E-02  0.1249735E+00
         21   -1    0    0  506  501  0.00000000000E+00  0.00000000000E+00  0.65903530969E+03  0.65903530969E+03  0.00000000000E+00 0. -1.
         21   -1    0    0  505  502 -0.00000000000E+00 -0.00000000000E+00 -0.21456004053E+04  0.21456004053E+04  0.00000000000E+00 0.  1.
         21    1    1    2  503  502 -0.19036504236E+02  0.44108716772E+02 -0.68379143875E+03  0.68547698656E+03  0.00000000000E+00 0.  1.
         21    1    1    2  504  501 -0.11554755088E+03  0.68595947125E+01  0.63533209910E+03  0.64579034268E+03  0.00000000000E+00 0. -1.
         21    1    1    2  505  504 -0.59430892818E+02  0.15010191017E+02 -0.84797867641E+02  0.10463276357E+03  0.00000000000E+00 0. -1.
         21    1    1    2  506  503  0.19401494793E+03 -0.65978502501E+02 -0.13533078883E+04  0.13687356222E+04  0.00000000000E+00 0.  1.
<scales pt_clust_3="48.04131" pt_clust_4="14000.00000" pt_clust_5="63.24220" pt_clust_6="116.06438"></scales>
<clustering>
<clus scale="   48.041">  2  3  1 -1</clus>
<clus scale="   63.242">  2  5  1 -1</clus>
<clus scale="  116.064">  2  6  1 -1</clus>
<clus scale="  116.064">  1  3  2 -1</clus>
</clustering>
</event>
<event>
 6    0  0.1463946E+003  0.9150947E+02  0.7546771E-02  0.1299237E+00
         21   -1    0    0  505  501  0.00000000000E+00  0.00000000000E+00  0.70746795028E+02  0.70746795028E+02  0.00000000000E+00 0. -1.
         21   -1    0    0  506  502 -0.00000000000E+00 -0.00000000000E+00 -0.13685025038E+04  0.13685025038E+04  0.00000000000E+00 0.  1.
         21    1    1    2  503  504 -0.32238077738E+02  0.67241234172E+02 -0.29749239067E+03  0.30669594020E+03  0.00000000000E+00 0.  1.
         21    1    1    2  504  501 -0.49127657616E+02  0.15506111364E+02  0.48540055826E+02  0.70782082846E+02  0.00000000000E+00 0. -1.
         21    1    1    2  505  502  0.99008068653E+02 -0.54509764295E+02 -0.96499569193E+03  0.97159178542E+03  0.00000000000E+00 0.  1.
         21    1    1    2  506  503 -0.17642333298E+02 -0.28237581241E+02 -0.83807681977E+02  0.90179490334E+02  0.00000000000E+00 0. -1.
<scales pt_clust_3="91.50947" pt_clust_4="51.58966" pt_clust_5="14000.00000" pt_clust_6="33.29584"></scales>
<clustering>
<clus scale="   33.296">  2  6  1 -1</clus>
<clus scale="   51.590">  1  4  2 -1</clus>
<clus scale="   91.509">  1  3  2 -1</clus>
<clus scale="   51.590">  1  3  2 -1</clus>
</clustering>
</event>
<event>
 6    0  0.1463946E+003  0.1077875E+03  0.7546771E-02  0.1264723E+00
         21   -1    0    0  505  501  0.00000000000E+00  0.00000000000E+00  0.13224215552E+04  0.13224215552E+04  0.00000000000E+00 0. -1.
         21   -1    0    0  506  502 -0.00000000000E+00 -0.00000000000E+00 -0.12706062370E+03  0.12706062370E+03  0.00000000000E+00 0.  1.
         21    1    1    2  503  501 -0.80118974504E+02 -0.42901446127E+02  0.10226041704E+04  0.10266347323E+04  0.00000000000E+00 0. -1.
         21    1    1    2  504  502 -0.69045633652E+02 -0.68217650414E+02  0.30832690459E+02  0.10184106321E+03  0.00000000000E+00 0.  1.
         21    1    1    2  505  504  0.10941260444E+03 -0.26270165414E+01  0.16531942863E+03  0.19826379576E+03  0.00000000000E+00 0.  1.
         21    1    1    2  506  503  0.39752003716E+02  0.11374611308E+03 -0.23395358035E+02  0.12274258763E+03  0.00000000000E+00 0.  1.
<scales pt_clust_3="90.88225" pt_clust_4="14000.00000" pt_clust_5="67.01601" pt_clust_6="107.78748"></scales>
<clustering>
<clus scale="   90.882">  1  3  2 -1</clus>
<clus scale="   67.016">  1  5  2 -1</clus>
<clus scale="  107.787">  2  6  1 -1</clus>
<clus scale="   90.882">  1  3  2 -1</clus>
</clustering>
</event>
<event>
 6    0  0.1463946E+003  0.7154548E+02  0.7546771E-02  0.1354915E+00
         21   -1    0    0  505  501  0.00000000000E+00  0.00000000000E+00  0.46076350499E+03  0.46076350499E+03  0.00000000000E+00 0.  1.
         21   -1    0    0  503  502 -0.00000000000E+00 -0.00000000000E+00 -0.62985842404E+03  0.62985842404E+03  0.00000000000E+00 0. -1.
         21    1    1    2  503  501  0.11182970254E+03  0.31803190035E+02  0.14186536627E+03  0.18342057522E+03  0.00000000000E+00 0.  1.
         21    1    1    2  504  506 -0.30617129671E+02  0.37364120134E+02 -0.29938883736E+03  0.30326088115E+03  0.00000000000E+00 0. -1.
         21    1    1    2  505  504 -0.41879914204E+02 -0.52505743814E+02  0.29085681563E+03  0.29851041447E+03  0.00000000000E+00 0.  1.
         21    1    1    2  506  502 -0.39332658669E+02 -0.16661566355E+02 -0.30242826359E+03  0.30543005820E+03  0.00000000000E+00 0. -1.
<scales pt_clust_3="14000.00000" pt_clust_4="71.54548" pt_clust_5="67.60367" pt_clust_6="42.71611"></scales>
<clustering>
<clus scale="   42.716">  2  6  1 -1</clus>
<clus scale="   67.604">  1  5  2 -1</clus>
<clus scale="   71.545">  2  4  1 -1</clus>
<clus scale="   67.604">  1  3  2 -1</clus>
</clustering>
</event>
<event>
 6    0  0.1463946E+003  0.8994490E+02  0.7546771E-02  0.1302985E+00
         21   -1    0    0  503  501  0.00000000000E+00  0.00000000000E+00  0.44992988593E+03  0.44992988593E+03  0.00000000000E+00 0.  1.
         21   -1    0    0  505  502 -0.00000000000E+00 -0.00000000000E+00 -0.13404511208E+03  0.13404511208E+03  0.00000000000E+00 0. -1.
         21    1    1    2  503  502  0.50802697885E+01 -0.42581165753E+02  0.26605559631E+03  0.26948941565E+03  0.00000000000E+00 0.  1.
         21    1    1    2  504  506 -0.27513303829E+02  0.91825216423E+02 -0.48647381405E+01  0.95981862536E+02  0.00000000000E+00 0. -1.
         21    1    1    2  505  504  0.60393393778E+02 -0.66631096466E+02 -0.52035635294E+02  0.10389789396E+03  0.00000000000E+00 0. -1.
         21    1    1    2  506  501 -0.37960359738E+02  0.17387045796E+02  0.10672955097E+03  0.11460582587E+03  0.00000000000E+00 0.  1.
<scales pt_clust_3="38.10311" pt_clust_4="14000.00000" pt_clust_5="89.94490" pt_clust_6="41.75282"></scales>
<clustering>
<clus scale="   41.753">  1  6  2 -1</clus>
<clus scale="   38.103">  1  3  2 -1</clus>
<clus scale="   89.945">  2  5  1 -1</clus>
<clus scale="   41.753">  1  3  2 -1</clus>
</clustering>
</event>
<event>
 6    0  0.1463946E+003  0.6516540E+02  0.7546771E-02  0.1377350E+00
         21   -1    0    0  506  501  0.00000000000E+00  0.00000000000E+00  0.25000826834E+03  0.25000826834E+03  0.00000000000E+00 0.  1.
         21   -1    0    0  504  502 -0.00000000000E+00 -0.00000000000E+00 -0.26446122100E+03  0.26446122100E+03  0.00000000000E+00 0.  1.
         21    1    1    2  503  501 -0.23068615347E+02  0.45773506679E+02  0.26020908762E+02  0.57484455469E+02  0.00000000000E+00 0.  1.
         21    1    1    2  504  503 -0.26472829846E+02  0.43537377202E+02 -0.76232079798E+02  0.91693205441E+02  0.00000000000E+00 0.  1.
         21    1    1    2  505  502  0.87168708512E+02 -0.22044818620E+02 -0.14396666050E+03  0.16973731795E+03  0.00000000000E+00 0.  1.
         21    1    1    2  506  505 -0.37627263319E+02 -0.67266065261E+02  0.17972487888E+03  0.19555451048E+03  0.00000000000E+00 0.  1.
<scales pt_clust_3="55.68603" pt_clust_4="50.95404" pt_clust_5="65.16540" pt_clust_6="14000.00000"></scales>
<clustering>
<clus scale="   50.954">  2  4  1 -1</clus>
<clus scale="   55.686">  1  3  2 -1</clus>
<clus scale="   65.165">  2  5  1 -1</clus>
<clus scale="   55.686">  1  3  2 -1</clus>
</clustering>
</event>
<event>
 6    0  0.1463946E+003  0.1596194E+03  0.7546771E-02  0.1189127E+00
         21   -1    0    0  504  501  0.00000000000E+00  0.00000000000E+00  0.22300601540E+03  0.22300601540E+03  0.00000000000E+00 0. -1.
         21   -1    0    0  506  502 -0.00000000000E+00 -0.00000000000E+00 -0.51939083865E+03  0.51939083865E+03  0.00000000000E+00 0.  1.
         21    1    1    2  503  501  0.23757032994E+02 -0.26973877606E+02  0.13989652272E+03  0.14444038133E+03  0.00000000000E+00 0. -1.
         21    1    1    2  504  502  0.35404099528E+02  0.17782613583E+03 -0.18433086379E+03  0.25856034536E+03  0.00000000000E+00 0.  1.
         21    1    1    2  505  503 -0.39038657119E+02 -0.39819753426E+01  0.80921922126E+01  0.40066899706E+02  0.00000000000E+00 0.  1.
         21    1    1    2  506  505 -0.20122475403E+02 -0.14687028288E+03 -0.26004267440E+03  0.29932922764E+03  0.00000000000E+00 0. -1.
<scales pt_clust_3="35.94422" pt_clust_4="14000.00000" pt_clust_5="34.14637" pt_clust_6="159.61944"></scales>
<clustering>
<clus scale="   35.944">  1  3  2 -1</clus>
<clus scale="   34.146">  1  5  2 -1</clus>
<clus scale="  159.619">  2  6  1 -1</clus>
<clus scale="   35.944">  1  3  2 -1</clus>
</clustering>
</event>
<event>
 6    0  0.1463946E+003  0.7627367E+02  0.7546771E-02  0.1339972E+00
         21   -1    0    0  503  501  0.00000000000E+00  0.00000000000E+00  0.50996970600E+03  0.50996970600E+03  0.00000000000E+00 0. -1.
         21   -1    0    0  504  502 -0.00000000000E+00 -0.00000000000E+00 -0.13052265885E+03  0.13052265885E+03  0.00000000000E+00 0.  1.
         21    1    1    2  503  505  0.13246161409E+02  0.28568087267E+02  0.34664282666E+03  0.34807017349E+03  0.00000000000E+00 0. -1.
         21    1    1    2  504  506 -0.44865605529E+02  0.31439099563E+01 -0.43019048188E+02  0.62237008574E+02  0.00000000000E+00 0.  1.
         21    1    1    2  505  502  0.99282336042E+02 -0.49917817239E+02 -0.18530266713E+02  0.11265940490E+03  0.00000000000E+00 0.  1.
         21    1    1    2  506  501 -0.67662891922E+02  0.18205820015E+02  0.94353535392E+02  0.11752577788E+03  0.00000000000E+00 0. -1.
<scales pt_clust_3="31.48962" pt_clust_4="44.34691" pt_clust_5="76.27367" pt_clust_6="14000.00000"></scales>
<clustering>
<clus scale="   31.490">  1  3  2 -1</clus>
<clus scale="   44.347">  2  4  1 -1</clus>
<clus scale="   76.274">  2  5  1 -1</clus>
<clus scale="   31.490">  1  3  2 -1</clus>
</clustering>
</event>
<event>
 6    0  0.1463946E+003  0.5772936E+02  0.7546771E-02  0.1407615E+00
         21   -1    0    0  504  501  0.00000000000E+00  0.00000000000E+00  0.81739825053E+02  0.81739825053E+02  0.00000000000E+00 0.  1.
         21   -1    0    0  503  502 -0.00000000000E+00 -0.00000000000E+00 -0.18066008055E+04  0.18066008055E+04  0.00000000000E+00 0.  1.
         21    1    1    2  503  506 -0.33824334698E+02  0.19913041161E+02 -0.50574189101E+03  0.50726272794E+03  0.00000000000E+00 0.  1.
         21    1    1    2  504  505 -0.92235843863E+02 -0.13426195181E+02  0.41289670858E+02  0.10194385970E+03  0.00000000000E+00 0.  1.
         21    1    1    2  505  502  0.78678772852E+02  0.13082235630E+02 -0.11865530600E+04  0.11892307002E+04  0.00000000000E+00 0.  1.
         21    1    1    2  506  501  0.47381405710E+02 -0.19569081610E+02 -0.73855700345E+02  0.89903342738E+02  0.00000000000E+00 0.  1.
<scales pt_clust_3="39.25067" pt_clust_4="57.72936" pt_clust_5="14000.00000" pt_clust_6="48.81707"></scales>
<clustering>
<clus scale="   39.251">  2  3  1 -1</clus>
<clus scale="   48.817">  1  6  2 -1</clus>
<clus scale="   57.729">  1  4  2 -1</clus>
<clus scale="   48.817">  1  3  2 -1</clus>
</clustering>
</event>
<event>
 6    0  0.1463946E+003  0.1285485E+03  0.7546771E-02  0.1229626E+00
         21   -1    0    0  506  501  0.00000000000E+00  0.00000000000E+00  0.78489628697E+02  0.78489628697E+02  0.00000000000E+00 0.  1.
         21   -1    0    0  504  502 -0.00000000000E+00 -0.00000000000E+00 -0.80315890595E+03  0.80315890595E+03  0.00000000000E+00 0. -1.
         21    1    1    2  503  502 -0.11773526581E+02 -0.48797164981E+02 -0.13115592155E+03  0.14043381001E+03  0.00000000000E+00 0. -1.
         21    1    1    2  504  501  0.10030689334E+03 -0.98976705814E+02 -0.30716982247E+02  0.14422688426E+03  0.00000000000E+00 0.  1.
         21    1    1    2  505  503 -0.63870348030E+02  0.41343024395E+02 -0.34543800494E+03  0.35371751763E+03  0.00000000000E+00 0. -1.
         21    1    1    2  506  505 -0.24663018734E+02  0.10643084640E+03 -0.21735836852E+03  0.24327032274E+03  0.00000000000E+00 0. -1.
<scales pt_clust_3="50.19740" pt_clust_4="14000.00000" pt_clust_5="71.79369" pt_clust_6="128.54851"></scales>
<clustering>
<clus scale="   50.197">  2  3  1 -1</clus>
<clus scale="   71.794">  2  5  1 -1</clus>
<clus scale="  128.549">  2  6  1 -1</clus>
<clus scale="  128.549">  1  3  2 -1</clus>
</clustering>
</event>
<event>
 6    0  0.1463946E+003  0.1392488E+03  0.7546771E-02  0.1214343E+00
         21   -1    0    0  503  501  0.00000000000E+00  0.00000000000E+00  0.64331699022E+02  0.64331699022E+02  0.00000000000E+00 0. -1.
         21   -1    0    0  505  502 -0.00000000000E+00 -0.00000000000E+00 -0.19946058571E+04  0.19946058571E+04  0.00000000000E+00 0. -1.
         21    1    1    2  503  504 -0.43714284493E+02 -0.10169662538E+02 -0.43997149027E+02  0.62849899183E+02  0.00000000000E+00 0.  1.
         21    1    1    2  504  502  0.76062208847E+02 -0.58718460762E+02 -0.32023957834E+03  0.33434518807E+03  0.00000000000E+00 0. -1.
         21    1    1    2  505  506  0.58753051326E+02 -0.46056116789E+02 -0.14983502141E+04  0.15002088024E+04  0.00000000000E+00 0. -1.
         21    1    1    2  506  501 -0.91100975680E+02  0.11494424009E+03 -0.67687216683E+02  0.16153366647E+03  0.00000000000E+00 0. -1.
<scales pt_clust_3="44.88163" pt_clust_4="14000.00000" pt_clust_5="74.17937" pt_clust_6="139.24882"></scales>
<clustering>
<clus scale="   44.882">  1  3  2 -1</clus>
<clus scale="   74.179">  2  5  1 -1</clus>
<clus scale="  139.249">  1  6  2 -1</clus>
<clus scale="   44.882">  1  3  2 -1</clus>
</clustering>
</event>
<event>
 6    0  0.1463946E+003  0.1553428E+03  0.7546771E-02  0.1194057E+00
         21   -1    0    0  503  501  0.00000000000E+00  0.00000000000E+00  0.29161048381E+03  0.29161048381E+03  0.00000000000E+00 0. -1.
         21   -1    0    0  505  502 -0.00000000000E+00 -0.00000000000E+00 -0.17827243112E+03  0.17827243112E+03  0.00000000000E+00 0. -1.
         21    1    1    2  503  506 -0.13307253400E+03 -0.40341212831E+02  0.15535130705E+03  0.20849398399E+03  0.00000000000E+00 0. -1.
         21    1    1    2  504  502  0.95888860018E+02  0.72240037639E+02 -0.10179289353E+02  0.12048615873E+03  0.00000000000E+00 0. -1.
         21    1    1    2  505  501 -0.26278133356E+01 -0.54796099807E+02 -0.64402674773E+02  0.84600369236E+02  0.00000000000E+00 0. -1.
         21    1    1    2  506  504  0.39811487314E+02  0.22897274999E+02  0.32568709762E+02  0.56302402969E+02  0.00000000000E+00 0. -1.
<scales pt_clust_3="144.37509" pt_clust_4="35.46131" pt_clust_5="54.85907" pt_clust_6="35.46131"></scales>
<clustering>
<clus scale="   35.461">  4  6 -1 -1</clus>
<clus scale="   54.859">  2  5  1 -1</clus>
<clus scale="  144.375">  1  3  2 -1</clus>
<clus scale="  144.375">  1  3  2 -1</clus>
</clustering>
</event>
<event>
 6    0  0.1463946E+003  0.1582818E+03  0.7546771E-02  0.1190650E+00
         21   -1    0    0  506  501  0.00000000000E+00  0.00000000000E+00  0.13442496080E+04  0.13442496080E+04  0.00000000000E+00 0. -1.
         21   -1    0    0  503  502 -0.00000000000E+00 -0.00000000000E+00 -0.35872236750E+02  0.35872236750E+02  0.00000000000E+00 0. -1.
         21    1    1    2  503  505  0.64546162159E+02 -0.49732036631E+02  0.23338182128E+03  0.24719740496E+03  0.00000000000E+00 0.  1.
         21    1    1    2  504  502  0.16987076569E+02  0.11821308861E+03  0.17216605479E+03  0.20953292226E+03  0.00000000000E+00 0. -1.
         21    1    1    2  505  501 -0.83933374552E+02 -0.11628276155E+03  0.73553137627E+03  0.74938167677E+03  0.00000000000E+00 0. -1.
         21    1    1    2  506  504  0.24001358232E+01  0.47801709567E+02  0.16729811895E+03  0.17400984079E+03  0.00000000000E+00 0. -1.
<scales pt_clust_3="81.48302" pt_clust_4="39.69805" pt_clust_5="145.32985" pt_clust_6="39.69805"></scales>
<clustering>
<clus scale="   39.698">  4  6 -1 -1</clus>
<clus scale="   81.483">  2  3  1 -1</clus>
<clus scale="  145.330">  1  5  2 -1</clus>
<clus scale="  145.330">  1  3  2 -1</clus>
</clustering>
</event>
<event>
 6    0  0.1463946E+003  0.1781794E+03  0.7546771E-02  0.1169577E+00
         21   -1    0    0  503  501  0.00000000000E+00  0.00000000000E+00  0.38680324964E+03  0.38680324964E+03  0.00000000000E+00 0.  1.
         21   -1    0    0  504  502 -0.00000000000E+00 -0.00000000000E+00 -0.28386088895E+03  0.28386088895E+03  0.00000000000E+00 0.  1.
         21    1    1    2  503  506 -0.93889589806E+02  0.10824638068E+02  0.67511275681E+02  0.11614732114E+03  0.00000000000E+00 0.  1.
         21    1    1    2  504  505  0.41144850099E+02 -0.15222376250E+03  0.73749989071E+02  0.17408053725E+03  0.00000000000E+00 0.  1.
         21    1    1    2  505  501  0.21434342165E+01 -0.43483676584E+02  0.12263891056E+03  0.13013733831E+03  0.00000000000E+00 0.  1.
         21    1    1    2  506  502  0.50601305490E+02  0.18488280102E+03 -0.16095781462E+03  0.25029894190E+03  0.00000000000E+00 0.  1.
<scales pt_clust_3="93.24284" pt_clust_4="178.17942" pt_clust_5="43.53647" pt_clust_6="14000.00000"></scales>
<clustering>
<clus scale="   43.536">  1  5  2 -1</clus>
<clus scale="   93.243">  1  3  2 -1</clus>
<clus scale="  178.179">  1  4  2 -1</clus>
<clus scale="   43.536">  1  3  2 -1</clus>
</clustering>
</event>
<event>
 6    0  0.1463946E+003  0.8391422E+02  0.7546771E-02  0.1318297E+00
         21   -1    0    0  506  501  0.00000000000E+00  0.00000000000E+00  0.62224605453E+03  0.62224605453E+03  0.00000000000E+00 0. -1.
         21   -1    0    0  503  502 -0.00000000000E+00 -0.00000000000E+00 -0.29847874130E+03  0.29847874130E+03  0.00000000000E+00 0. -1.
         21    1    1    2  503  501 -0.25222916679E+02  0.11444317024E+03  0.50640264295E+03  0.51978560150E+03  0.00000000000E+00 0. -1.
         21    1    1    2  504  502  0.27100639241E+01 -0.42717088312E+02 -0.83726643943E+02  0.94033212145E+02  0.00000000000E+00 0.  1.
         21    1    1    2  505  504  0.37418558278E+02 -0.32335846291E+02 -0.19543317854E+03  0.20159335984E+03  0.00000000000E+00 0. -1.
         21    1    1    2  506  505 -0.14905705523E+02 -0.39390235636E+02  0.96524492766E+02  0.10531262234E+03  0.00000000000E+00 0. -1.
<scales pt_clust_3="83.91422" pt_clust_4="43.18257" pt_clust_5="14000.00000" pt_clust_6="42.11616"></scales>
<clustering>
<clus scale="   42.116">  1  6  2 -1</clus>
<clus scale="   43.183">  2  4  1 -1</clus>
<clus scale="   83.914">  1  3  2 -1</clus>
<clus scale="   42.116">  1  3  2 -1</clus>
</clustering>
</event>
<event>
 6    0  0.1463946E+003  0.1735672E+03  0.7546771E-02  0.1174178E+00
         21   -1    0    0  504  501  0.00000000000E+00  0.00000000000E+00  0.70719719222E+03  0.70719719222E+03  0.00000000000E+00 0.  1.
         21   -1    0    0  503  502 -0.00000000000E+00 -0.00000000000E+00 -0.24785886094E+03  0.24785886094E+03  0.00000000000E+00 0.  1.
         21    1    1    2  503  506 -0.34673285615E+02  0.95107887879E+02 -0.42517940744E+01  0.10132040675E+03  0.00000000000E+00 0. -1.
         21    1    1    2  504  505 -0.10555482189E+03 -0.26557317788E+02  0.32323382846E+03  0.34106776366E+03  0.00000000000E+00 0. -1.
         21    1    1    2  505  502  0.15914692317E+03  0.66529254447E+02 -0.12586958886E+03  0.21353463010E+03  0.00000000000E+00 0.  1.
         21    1    1    2  506  501 -0.18918815672E+02 -0.13507982454E+03  0.26622588576E+03  0.29913325264E+03  0.00000000000E+00 0.  1.
<scales pt_clust_3="101.23116" pt_clust_4="109.41758" pt_clust_5="173.56718" pt_clust_6="14000.00000"></scales>
<clustering>
<clus scale="  101.231">  2  3  1 -1</clus>
<clus scale="  109.418">  1  4  2 -1</clus>
<clus scale="  173.567">  2  5  1 -1</clus>
<clus scale="  109.418">  1  3  2 -1</clus>
</clustering>
</event>
<event>
 6    0  0.1619415E+003  0.1113971E+03  0.7546771E-02  0.1258004E+00
         21   -1    0    0  506  501  0.00000000000E+00  0.00000000000E+00  0.67184556452E+03  0.67184556452E+03  0.00000000000E+00 0. -1.
         21   -1    0    0  503  502 -0.00000000000E+00 -0.00000000000E+00 -0.62252425994E+03  0.62252425994E+03  0.00000000000E+00 0. -1.
         21    1    1    2  503  501  0.89806772335E+02 -0.30817311343E+02 -0.16409274716E+03  0.18958215292E+03  0.00000000000E+00 0. -1.
         21    1    1    2  504  505 -0.92177695539E+01  0.41833961316E+02 -0.63534685584E+01  0.43306052206E+02  0.00000000000E+00 0. -1.
         21    1    1    2  505  502  0.22538403616E+02  0.34046713034E+02 -0.41490436175E+03  0.41690860834E+03  0.00000000000E+00 0. -1.
         21    1    1    2  506  504 -0.10312740640E+03 -0.45063363007E+02  0.63467188205E+03  0.64457301100E+03  0.00000000000E+00 0. -1.
<scales pt_clust_3="111.39708" pt_clust_4="46.38444" pt_clust_5="40.83085" pt_clust_6="14000.00000"></scales>
<clustering>
<clus scale="   40.831">  2  5  1 -1</clus>
<clus scale="   46.384">  2  4  1 -1</clus>
<clus scale="  111.397">  2  3  1 -1</clus>
<clus scale="  111.397">  1  3  2 -1</clus>
</clustering>
</event>
<event>
 6    0  0.1463946E+003  0.8968631E+02  0.7546771E-02  0.1303613E+00
         21   -1    0    0  504  501  0.00000000000E+00  0.00000000000E+00  0.32629205547E+03  0.32629205547E+03  0.00000000000E+00 0. -1.
         21   -1    0    0  505  502 -0.00000000000E+00 -0.00000000000E+00 -0.33609497844E+03  0.33609497844E+03  0.00000000000E+00 0. -1.
         21    1    1    2  503  501  0.91919439557E+01 -0.45144835815E+02  0.26256592942E+03  0.26657722207E+03  0.00000000000E+00 0. -1.
         21    1    1    2  504  502  0.13336749655E+02  0.90057478119E+02 -0.20160589235E+03  0.22120839515E+03  0.00000000000E+00 0. -1.
         21    1    1    2  505  506  0.22595940009E+02 -0.88620735553E+02 -0.63546851923E+02  0.11136612440E+03  0.00000000000E+00 0. -1.
         21    1    1    2  506  503 -0.45124633619E+02  0.43708093249E+02 -0.72161081139E+01  0.63235292291E+02  0.00000000000E+00 0. -1.
<scales pt_clust_3="46.07112" pt_clust_4="14000.00000" pt_clust_5="89.68631" pt_clust_6="47.07832"></scales>
<clustering>
<clus scale="   46.071">  1  3  2 -1</clus>
<clus scale="   47.078">  1  6  2 -1</clus>
<clus scale="   89.686">  1  5  2 -1</clus>
<clus scale="   46.071">  1  3  2 -1</clus>
</clustering>
</event>
<event>
 6    0  0.1463946E+003  0.8457568E+02  0.7546771E-02  0.1316546E+00
         21   -1    0    0  503  501  0.00000000000E+00  0.00000000000E+00  0.38498482936E+03  0.38498482936E+03  0.00000000000E+00 0. -1.
         21   -1    0    0  505  502 -0.00000000000E+00 -0.00000000000E+00 -0.10677035382E+04  0.10677035382E+04  0.00000000000E+00 0. -1.
         21    1    1    2  503  504 -0.16390720484E+02 -0.49865185281E+02  0.33806440866E+03  0.34211509295E+03  0.00000000000E+00 0. -1.
         21    1    1    2  504  506  0.11098191679E+03  0.43882753749E+02 -0.89613508677E+02  0.14924229584E+03  0.00000000000E+00 0. -1.
         21    1    1    2  505  501 -0.63248856608E+02  0.76422606334E+01 -0.53760669597E+02  0.83360851755E+02  0.00000000000E+00 0. -1.
         21    1    1    2  506  502 -0.31342339699E+02 -0.16598291015E+01 -0.87740893924E+03  0.87797012703E+03  0.00000000000E+00 0. -1.
<scales pt_clust_3="52.61198" pt_clust_4="14000.00000" pt_clust_5="84.57568" pt_clust_6="31.38626"></scales>
<clustering>
<clus scale="   31.386">  2  6  1 -1</clus>
<clus scale="   52.612">  1  3  2 -1</clus>
<clus scale="   84.576">  2  5  1 -1</clus>
<clus scale="   52.612">  1  3  2 -1</clus>
</clustering>
</event>
<event>
 6    0  0.1463946E+003  0.2430662E+03  0.7546771E-02  0.1117767E+00
         21   -1    0    0  503  501  0.00000000000E+00  0.00000000000E+00  0.92558717540E+03  0.92558717540E+03  0.00000000000E+00 0. -1.
         21   -1    0    0  506  502 -0.00000000000E+00 -0.00000000000E+00 -0.29634893833E+03  0.29634893833E+03  0.00000000000E+00 0. -1.
         21    1    1    2  503  504 -0.79179579639E+02  0.13066661926E+02  0.51433078710E+03  0.52055384164E+03  0.00000000000E+00 0. -1.
         21    1    1    2  504  502 -0.18895067013E+02  0.33997915835E+02 -0.10331328022E+03  0.11039255277E+03  0.00000000000E+00 0. -1.
         21    1    1    2  505  501 -0.14527722023E+03 -0.14651465646E+03  0.25227345357E+03  0.32590475703E+03  0.00000000000E+00 0. -1.
         21    1    1    2  506  505  0.24335186688E+03  0.99450078700E+02 -0.34052723381E+02  0.26508496230E+03  0.00000000000E+00 0. -1.
<scales pt_clust_3="80.64907" pt_clust_4="38.89578" pt_clust_5="243.06617" pt_clust_6="14000.00000"></scales>
<clustering>
<clus scale="   38.896">  2  4  1 -1</clus>
<clus scale="   80.649">  1  3  2 -1</clus>
<clus scale="  243.066">  1  5  2 -1</clus>
<clus scale="   80.649">  1  3  2 -1</clus>
</clustering>
</event>
<event>
 6    0  0.1463946E+003  0.1122798E+03  0.7546771E-02  0.1256405E+00
         21   -1    0    0  503  501  0.00000000000E+00  0.00000000000E+00  0.31119047684E+03  0.31119047684E+03  0.00000000000E+00 0. -1.
         21   -1    0    0  505  502 -0.00000000000E+00 -0.00000000000E+00 -0.76005931988E+02  0.76005931988E+02  0.00000000000E+00 0. -1.
         21    1    1    2  503  506  0.94338618679E+01 -0.31392604794E+02  0.13345867775E+02  0.35392168232E+02  0.00000000000E+00 0. -1.
         21    1    1    2  504  501 -0.32236372379E+02 -0.15007116829E+02  0.98602338553E+02  0.10481802530E+03  0.00000000000E+00 0. -1.
         21    1    1    2  505  504  0.63486796133E+02  0.10439139659E+03  0.12676205636E+03  0.17605895575E+03  0.00000000000E+00 0. -1.
         21    1    1    2  506  502 -0.40684285622E+02 -0.57991674962E+02 -0.35257178381E+01  0.70927259553E+02  0.00000000000E+00 0. -1.
<scales pt_clust_3="32.20385" pt_clust_4="35.55836" pt_clust_5="101.81118" pt_clust_6="32.20385"></scales>
<clustering>
<clus scale="   32.204">  3  6 -1 -1</clus>
<clus scale="   35.558">  1  4  2 -1</clus>
<clus scale="  101.811">  1  5  2 -1</clus>
<clus scale="   35.558">  1  3  2 -1</clus>
</clustering>
</event>
<event>
 6    0  0.1463946E+003  0.7039753E+02  0.7546771E-02  0.1358746E+00
         21   -1    0    0  505  501  0.00000000000E+00  0.00000000000E+00  0.11431004591E+04  0.11431004591E+04  0.00000000000E+00 0.  1.
         21   -1    0    0  504  502 -0.00000000000E+00 -0.00000000000E+00 -0.45018497549E+03  0.45018497549E+03  0.00000000000E+00 0. -1.
         21    1    1    2  503  502  0.32667709010E+02 -0.31961981601E+02 -0.37276996812E+03  0.37556117560E+03  0.00000000000E+00 0. -1.
         21    1    1    2  504  506 -0.53588009145E+02 -0.61151360051E+01  0.97342623571E+02  0.11128636923E+03  0.00000000000E+00 0.  1.
         21    1    1    2  505  503  0.89374598977E+02  0.22606440205E+02 -0.36496514905E+02  0.99150722041E+02  0.00000000000E+00 0. -1.
         21    1    1    2  506  501 -0.68454298842E+02  0.15470677401E+02  0.10048393431E+04  0.10072871677E+04  0.00000000000E+00 0.  1.
<scales pt_clust_3="45.70282" pt_clust_4="51.39443" pt_clust_5="14000.00000" pt_clust_6="70.39753"></scales>
<clustering>
<clus scale="   45.703">  2  3  1 -1</clus>
<clus scale="   51.394">  2  4  1 -1</clus>
<clus scale="   70.398">  1  6  2 -1</clus>
<clus scale="   70.398">  1  3  2 -1</clus>
</clustering>
</event>
<event>
 6    0  0.1463946E+003  0.1033063E+03  0.7546771E-02  0.1273493E+00
         21   -1    0    0  505  501  0.00000000000E+00  0.00000000000E+00  0.55111950620E+03  0.55111950620E+03  0.00000000000E+00 0. -1.
         21   -1    0    0  504  502 -0.00000000000E+00 -0.00000000000E+00 -0.37983336101E+03  0.37983336101E+03  0.00000000000E+00 0. -1.
         21    1    1    2  503  502  0.54683569834E+02 -0.14002089409E+02 -0.32853357724E+03  0.33334766039E+03  0.00000000000E+00 0. -1.
         21    1    1    2  504  506 -0.57865222026E+02 -0.64141173778E+02  0.21490759208E+03  0.23161983341E+03  0.00000000000E+00 0.  1.
         21    1    1    2  505  503 -0.29699937193E+01  0.11772836793E+03  0.50435795106E+02  0.12811150966E+03  0.00000000000E+00 0.  1.
         21    1    1    2  506  501  0.61516459113E+01 -0.39585104745E+02  0.23447633524E+03  0.23787386374E+03  0.00000000000E+00 0. -1.
<scales pt_clust_3="56.56907" pt_clust_4="103.30625" pt_clust_5="14000.00000" pt_clust_6="40.06025"></scales>
<clustering>
<clus scale="   40.060">  1  6  2 -1</clus>
<clus scale="   56.569">  2  3  1 -1</clus>
<clus scale="  103.306">  1  4  2 -1</clus>
<clus scale="   40.060">  1  3  2 -1</clus>
</clustering>
</event>
<event>
 6    0  0.1463946E+003  0.1063838E+03  0.7546771E-02  0.1267417E+00
         21   -1    0    0  506  501  0.00000000000E+00  0.00000000000E+00  0.20953174638E+04  0.20953174638E+04  0.00000000000E+00 0. -1.
         21   -1    0    0  503  502 -0.00000000000E+00 -0.00000000000E+00 -0.54549114174E+02  0.54549114174E+02  0.00000000000E+00 0.  1.
         21    1    1    2  503  501 -0.76939776450E+01 -0.78191994619E+02  0.44263380841E+02  0.90179998880E+02  0.00000000000E+00 0.  1.
         21    1    1    2  504  502 -0.58527142490E+02 -0.20522676785E+02  0.42036442613E+01  0.62163311491E+02  0.00000000000E+00 0.  1.
         21    1    1    2  505  504  0.55316008957E+02  0.65050701202E+02  0.77184069454E+03  0.77654974878E+03  0.00000000000E+00 0. -1.
         21    1    1    2  506  505  0.10905111178E+02  0.33663970202E+02  0.12204606300E+04  0.12209735188E+04  0.00000000000E+00 0. -1.
<scales pt_clust_3="106.38376" pt_clust_4="61.21725" pt_clust_5="14000.00000" pt_clust_6="35.38622"></scales>
<clustering>
<clus scale="   35.386">  1  6  2 -1</clus>
<clus scale="   61.217">  2  4  1 -1</clus>
<clus scale="  106.384">  2  3  1 -1</clus>
<clus scale="   35.386">  1  3  2 -1</clus>
</clustering>
</event>
<event>
 6    0  0.1463946E+003  0.8315605E+02  0.7546771E-02  0.1320326E+00
         21   -1    0    0  503  501  0.00000000000E+00  0.00000000000E+00  0.24541742144E+03  0.24541742144E+03  0.00000000000E+00 0. -1.
         21   -1    0    0  506  502 -0.00000000000E+00 -0.00000000000E+00 -0.15931233491E+04  0.15931233491E+04  0.00000000000E+00 0. -1.
         21    1    1    2  503  502 -0.58536217140E+02 -0.21430452247E+02 -0.15092057029E+03  0.16328738940E+03  0.00000000000E+00 0. -1.
         21    1    1    2  504  501  0.11333968783E+02 -0.30379988547E+02  0.20964990007E+02  0.38612606211E+02  0.00000000000E+00 0. -1.
         21    1    1    2  505  504 -0.49426021061E+01 -0.53546593848E+02  0.20352654875E+03  0.21051062461E+03  0.00000000000E+00 0. -1.
         21    1    1    2  506  505  0.52144850463E+02  0.10535703464E+03 -0.14212768961E+04  0.14261301503E+04  0.00000000000E+00 0. -1.
<scales pt_clust_3="62.33704" pt_clust_4="32.42534" pt_clust_5="83.15605" pt_clust_6="14000.00000"></scales>
<clustering>
<clus scale="   32.425">  1  4  2 -1</clus>
<clus scale="   62.337">  2  3  1 -1</clus>
<clus scale="   83.156">  1  5  2 -1</clus>
<clus scale="   32.425">  1  3  2 -1</clus>
</clustering>
</event>
<event>
 6    0  0.1463946E+003  0.1238132E+03  0.7546771E-02  0.1236936E+00
         21   -1    0    0  506  501  0.00000000000E+00  0.00000000000E+00  0.92360521728E+03  0.92360521728E+03  0.00000000000E+00 0.  1.
         21   -1    0    0  503  502 -0.00000000000E+00 -0.00000000000E+00 -0.19241325757E+03  0.19241325757E+03  0.00000000000E+00 0. -1.
         21    1    1    2  503  505  0.34940498862E+02 -0.12916221365E+03 -0.82239098048E+02  0.15705726708E+03  0.00000000000E+00 0. -1.
         21    1    1    2  504  501 -0.22108722979E+01  0.42244131196E+02  0.68459328289E+03  0.68589898495E+03  0.00000000000E+00 0.  1.
         21    1    1    2  505  504 -0.10122916440E+03 -0.24015648790E+02  0.88495161580E+02  0.13658509705E+03  0.00000000000E+00 0. -1.
         21    1    1    2  506  502  0.68499537838E+02  0.11093373125E+03  0.40342613287E+02  0.13647712577E+03  0.00000000000E+00 0.  1.
<scales pt_clust_3="123.81319" pt_clust_4="42.30195" pt_clust_5="102.35398" pt_clust_6="14000.00000"></scales>
<clustering>
<clus scale="   42.302">  1  4  2 -1</clus>
<clus scale="  102.354">  1  5  2 -1</clus>
<clus scale="  123.813">  2  3  1 -1</clus>
<clus scale="   42.302">  1  3  2 -1</clus>
</clustering>
</event>
<event>
 6    0  0.1463946E+003  0.2248290E+03  0.7546771E-02  0.1130333E+00
         21   -1    0    0  504  501  0.00000000000E+00  0.00000000000E+00  0.22368826536E+04  0.22368826536E+04  0.00000000000E+00 0.  1.
         21   -1    0    0  503  502 -0.00000000000E+00 -0.00000000000E+00 -0.10249556544E+03  0.10249556544E+03  0.00000000000E+00 0. -1.
         21    1    1    2  503  506  0.10208063215E+03 -0.90081380726E+02  0.36563494540E+02  0.14096808060E+03  0.00000000000E+00 0. -1.
         21    1    1    2  504  502  0.38193532228E+02  0.16129827548E+02  0.15456933864E+03  0.16003311435E+03  0.00000000000E+00 0. -1.
         21    1    1    2  505  501 -0.22343938047E+03  0.96606008445E+02  0.19366933379E+04  0.19519321102E+04  0.00000000000E+00 0.  1.
         21    1    1    2  506  505  0.83165216092E+02 -0.22654455267E+02  0.65609170703E+01  0.86444913928E+02  0.00000000000E+00 0. -1.
<scales pt_clust_3="42.39909" pt_clust_4="41.45983" pt_clust_5="218.44114" pt_clust_6="42.39909"></scales>
<clustering>
<clus scale="   41.460">  1  4  2 -1</clus>
<clus scale="   42.399">  3  6 -1 -1</clus>
<clus scale="  218.441">  1  5  2 -1</clus>
<clus scale="   41.460">  1  3  2 -1</clus>
</clustering>
</event>
<event>
 6    0  0.1463946E+003  0.1187780E+03  0.7546771E-02  0.1245127E+00
         21   -1    0    0  506  501  0.00000000000E+00  0.00000000000E+00  0.22859644895E+03  0.22859644895E+03  0.00000000000E+00 0.  1.
         21   -1    0    0  503  502 -0.00000000000E+00 -0.00000000000E+00 -0.87428983023E+03  0.87428983023E+03  0.00000000000E+00 0.  1.
         21    1    1    2  503  505  0.70230731411E+02  0.99347423357E+02 -0.80805481749E+03  0.81716268529E+03  0.00000000000E+00 0.  1.
         21    1    1    2  504  501 -0.30892134098E+02 -0.32268439447E+02  0.45278760085E+02  0.63606149454E+02  0.00000000000E+00 0.  1.
         21    1    1    2  505  504 -0.21137308147E+02 -0.94069057618E+02 -0.42354501678E+01  0.96507577086E+02  0.00000000000E+00 0.  1.
         21    1    1    2  506  502 -0.18201289166E+02  0.26990073708E+02  0.12131812630E+03  0.12560986735E+03  0.00000000000E+00 0.  1.
<scales pt_clust_3="118.77801" pt_clust_4="44.27298" pt_clust_5="14000.00000" pt_clust_6="32.55382"></scales>
<clustering>
<clus scale="   32.554">  1  6  2 -1</clus>
<clus scale="   44.273">  1  4  2 -1</clus>
<clus scale="  118.778">  2  3  1 -1</clus>
<clus scale="   32.554">  1  3  2 -1</clus>
</clustering>
</event>
<event>
 6    0  0.1463946E+003  0.1301947E+03  0.7546771E-02  0.1227167E+00
         21   -1    0    0  505  501  0.00000000000E+00  0.00000000000E+00  0.11977039704E+03  0.11977039704E+03  0.00000000000E+00 0.  1.
         21   -1    0    0  504  502 -0.00000000000E+00 -0.00000000000E+00 -0.32484456478E+03  0.32484456478E+03  0.00000000000E+00 0.  1.
         21    1    1    2  503  501 -0.27820302992E+02 -0.27825683873E+02 -0.10486856254E+03  0.11200738079E+03  0.00000000000E+00 0.  1.
         21    1    1    2  504  503 -0.89398776728E+02 -0.16042699358E+02 -0.13222422561E+03  0.16041432393E+03  0.00000000000E+00 0.  1.
         21    1    1    2  505  506  0.25015053684E+02 -0.19430441468E+02  0.49728181555E+02  0.58959197816E+02  0.00000000000E+00 0.  1.
         21    1    1    2  506  502  0.92204026037E+02  0.63298824698E+02 -0.17709561144E+02  0.11323405928E+03  0.00000000000E+00 0. -1.
<scales pt_clust_3="32.53977" pt_clust_4="32.53977" pt_clust_5="31.67483" pt_clust_6="120.89171"></scales>
<clustering>
<clus scale="   31.675">  1  5  2 -1</clus>
<clus scale="   32.540">  3  4 -1 -1</clus>
<clus scale="  120.892">  1  6  2 -1</clus>
<clus scale="   31.675">  1  3  2 -1</clus>
</clustering>
</event>
<event>
 6    0  0.1463946E+003  0.1061720E+03  0.7546771E-02  0.1267828E+00
         21   -1    0    0  503  501  0.00000000000E+00  0.00000000000E+00  0.81148831995E+03  0.81148831995E+03  0.00000000000E+00 0. -1.
         21   -1    0    0  504  502 -0.00000000000E+00 -0.00000000000E+00 -0.21686208744E+03  0.21686208744E+03  0.00000000000E+00 0. -1.
         21    1    1    2  503  505  0.44824151563E+02  0.34036302989E+02  0.73799715046E+03  0.74014016819E+03  0.00000000000E+00 0. -1.
         21    1    1    2  504  506 -0.23082087210E+02  0.37217027219E+02 -0.81799779620E+02  0.92785202543E+02  0.00000000000E+00 0. -1.
         21    1    1    2  505  502  0.41896750516E+02 -0.82852702399E+02  0.16222907412E+02  0.94250149726E+02  0.00000000000E+00 0. -1.
         21    1    1    2  506  501 -0.63638814868E+02  0.11599372190E+02 -0.77794045745E+02  0.10117488694E+03  0.00000000000E+00 0. -1.
<scales pt_clust_3="56.28210" pt_clust_4="39.00102" pt_clust_5="95.00377" pt_clust_6="39.00102"></scales>
<clustering>
<clus scale="   39.001">  4  6 -1 -1</clus>
<clus scale="   56.282">  1  3  2 -1</clus>
<clus scale="   95.004">  1  5  2 -1</clus>
<clus scale="   56.282">  1  3  2 -1</clus>
</clustering>
</event>
<event>
 6    0  0.1463946E+003  0.9876297E+02  0.7546771E-02  0.1282919E+00
         21   -1    0    0  502  501  0.00000000000E+00  0.00000000000E+00  0.87953947897E+02  0.87953947897E+02  0.00000000000E+00 0.  1.
         21   -1    0    0  504  502 -0.00000000000E+00 -0.00000000000E+00 -0.17538319221E+04  0.17538319221E+04  0.00000000000E+00 0.  1.
         21    1    1    2  503  505 -0.11297492298E+03 -0.47022807226E+02 -0.95178085537E+03  0.95961516989E+03  0.00000000000E+00 0.  1.
         21    1    1    2  504  503  0.24484622462E+02  0.30121105291E+02 -0.76892782908E+03  0.76990699702E+03  0.00000000000E+00 0.  1.
         21    1    1    2  505  506  0.37310841545E+02  0.21651270392E+01  0.22795501490E+01  0.37443063720E+02  0.00000000000E+00 0.  1.
         21    1    1    2  506  501  0.51179458978E+02  0.14736574896E+02  0.52551160051E+02  0.74820639423E+02  0.00000000000E+00 0.  1.
<scales pt_clust_3="90.95929" pt_clust_4="38.81723" pt_clust_5="32.23261" pt_clust_6="32.23261"></scales>
<clustering>
<clus scale="   32.233">  5  6 -1 -1</clus>
<clus scale="   38.817">  2  4  1 -1</clus>
<clus scale="   90.959">  2  3  1 -1</clus>
<clus scale="   98.763">  1  3  2 -1</clus>
</clustering>
</event>
<event>
 6    0  0.1463946E+003  0.1025770E+03  0.7546771E-02  0.1274968E+00
         21   -1    0    0  504  501  0.00000000000E+00  0.00000000000E+00  0.67539895776E+02  0.67539895776E+02  0.00000000000E+00 0. -1.
         21   -1    0    0  503  502 -0.00000000000E+00 -0.00000000000E+00 -0.89169455211E+03  0.89169455211E+03  0.00000000000E+00 0.  1.
         21    1    1    2  503  505 -0.59482881092E+02  0.98146115559E+02 -0.65183099970E+03  0.66185687676E+03  0.00000000000E+00 0.  1.
         21    1    1    2  504  506  0.39547810000E+02  0.18982074120E+02 -0.56530209592E+02  0.71554266191E+02  0.00000000000E+00 0. -1.
         21    1    1    2  505  501  0.57297584042E+02 -0.28409619569E+02  0.12767007071E+02  0.65215918998E+02  0.00000000000E+00 0. -1.
         21    1    1    2  506  502 -0.37362512951E+02 -0.88718570110E+02 -0.12856045411E+03  0.16060738594E+03  0.00000000000E+00 0. -1.
<scales pt_clust_3="14000.00000" pt_clust_4="43.86740" pt_clust_5="84.52958" pt_clust_6="102.57696"></scales>
<clustering>
<clus scale="   43.867">  1  4  2 -1</clus>
<clus scale="   84.530">  1  5  2 -1</clus>
<clus scale="  102.577">  1  6  2 -1</clus>
<clus scale="   43.867">  1  3  2 -1</clus>
</clustering>
</event>
<event>
 6    0  0.1463946E+003  0.1563948E+03  0.7546771E-02  0.1192828E+00
         21   -1    0    0  503  501  0.00000000000E+00  0.00000000000E+00  0.35366762080E+03  0.35366762080E+03  0.00000000000E+00 0.  1.
         21   -1    0    0  505  502 -0.00000000000E+00 -0.00000000000E+00 -0.83858684494E+03  0.83858684494E+03  0.00000000000E+00 0.  1.
         21    1    1    2  503  506  0.96632742778E+02 -0.89099476427E+02  0.59501397060E+02  0.14428104494E+03  0.00000000000E+00 0.  1.
         21    1    1    2  504  501 -0.59782956700E-01 -0.39342897117E+02  0.23256010809E+03  0.23586451832E+03  0.00000000000E+00 0.  1.
         21    1    1    2  505  504 -0.12741044247E+03  0.10554688705E+03 -0.39566876257E+03  0.42886750388E+03  0.00000000000E+00 0.  1.
         21    1    1    2  506  502  0.30837482653E+02  0.22895486499E+02 -0.38131196672E+03  0.38324139860E+03  0.00000000000E+00 0.  1.
<scales pt_clust_3="156.39476" pt_clust_4="39.26003" pt_clust_5="14000.00000" pt_clust_6="38.40773"></scales>
<clustering>
<clus scale="   38.408">  2  6  1 -1</clus>
<clus scale="   39.260">  1  4  2 -1</clus>
<clus scale="  156.395">  1  3  2 -1</clus>
<clus scale="   39.260">  1  3  2 -1</clus>
</clustering>
</event>
<event>
 6    0  0.1463946E+003  0.1401679E+03  0.7546771E-02  0.1213103E+00
         21   -1    0    0  506  501  0.00000000000E+00  0.00000000000E+00  0.11275219422E+04  0.11275219422E+04  0.00000000000E+00 0. -1.
         21   -1    0    0  505  502 -0.00000000000E+00 -0.00000000000E+00 -0.31029670814E+03  0.31029670814E+03  0.00000000000E+00 0. -1.
         21    1    1    2  503  502  0.55958535857E+02 -0.35972693013E+01 -0.11206116879E+02  0.57182822046E+02  0.00000000000E+00 0. -1.
         21    1    1    2  504  501 -0.59552404135E+02  0.21138340167E+02  0.87605078681E+02  0.10801836915E+03  0.00000000000E+00 0. -1.
         21    1    1    2  505  504 -0.14869987425E+03 -0.97000516597E+02 -0.22783581799E+03  0.28884236666E+03  0.00000000000E+00 0. -1.
         21    1    1    2  506  503  0.15229374252E+03  0.79459445731E+02  0.96866209027E+03  0.98377509252E+03  0.00000000000E+00 0. -1.
<scales pt_clust_3="56.07404" pt_clust_4="61.20140" pt_clust_5="140.16791" pt_clust_6="14000.00000"></scales>
<clustering>
<clus scale="   56.074">  2  3  1 -1</clus>
<clus scale="   61.201">  1  4  2 -1</clus>
<clus scale="  140.168">  2  5  1 -1</clus>
<clus scale="   61.201">  1  3  2 -1</clus>
</clustering>
</event>
<event>
 6    0  0.1463946E+003  0.1387609E+03  0.7546771E-02  0.1215006E+00
         21   -1    0    0  505  501  0.00000000000E+00  0.00000000000E+00  0.25117036712E+04  0.25117036712E+04  0.00000000000E+00 0.  1.
         21   -1    0    0  506  502 -0.00000000000E+00 -0.00000000000E+00 -0.16729598300E+02  0.16729598300E+02  0.00000000000E+00 0.  1.
         21    1    1    2  503  501  0.15174113714E+03 -0.60422776076E+02  0.75999797117E+03  0.77735011465E+03  0.00000000000E+00 0.  1.
         21    1    1    2  504  502 -0.26713620960E+02  0.38484383350E+02  0.15945574962E+03  0.16619507031E+03  0.00000000000E+00 0. -1.
         21    1    1    2  505  504 -0.11638980786E+03  0.58123691829E+02  0.13571795807E+04  0.13634006620E+04  0.00000000000E+00 0.  1.
         21    1    1    2  506  503 -0.86377083186E+01 -0.36185299103E+02  0.21834077144E+03  0.22148742255E+03  0.00000000000E+00 0. -1.
<scales pt_clust_3="138.76086" pt_clust_4="41.79071" pt_clust_5="14000.00000" pt_clust_6="37.20196"></scales>
<clustering>
<clus scale="   37.202">  2  6  1 -1</clus>
<clus scale="   41.791">  2  4  1 -1</clus>
<clus scale="  138.761">  2  3  1 -1</clus>
<clus scale="  138.761">  1  3  2 -1</clus>
</clustering>
</event>
<event>
 6    0  0.1463946E+003  0.1016999E+03  0.7546771E-02  0.1276761E+00
         21   -1    0    0  505  501  0.00000000000E+00  0.00000000000E+00  0.11399346359E+03  0.11399346359E+03  0.00000000000E+00 0. -1.
         21   -1    0    0  506  502 -0.00000000000E+00 -0.00000000000E+00 -0.49914114242E+03  0.49914114242E+03  0.00000000000E+00 0. -1.
         21    1    1    2  503  501  0.28923248535E+02  0.86680217752E+02  0.18667205219E+02  0.93265636791E+02  0.00000000000E+00 0. -1.
         21    1    1    2  504  502 -0.66295177846E+02  0.43614510924E+02 -0.15805592815E+03  0.17685856663E+03  0.00000000000E+00 0.  1.
         21    1    1    2  505  504 -0.65987255251E+02 -0.16203177975E+01 -0.33165890690E+02  0.73870965816E+02  0.00000000000E+00 0. -1.
         21    1    1    2  506  503  0.10335918456E+03 -0.12867441088E+03 -0.21259306522E+03  0.26913943677E+03  0.00000000000E+00 0. -1.
<scales pt_clust_3="14000.00000" pt_clust_4="84.88468" pt_clust_5="66.00715" pt_clust_6="101.69991"></scales>
<clustering>
<clus scale="   66.007">  1  5  2 -1</clus>
<clus scale="   84.885">  2  4  1 -1</clus>
<clus scale="  101.700">  2  6  1 -1</clus>
<clus scale="   66.007">  1  3  2 -1</clus>
</clustering>
</event>
<event>
 6    0  0.1463946E+003  0.1241459E+03  0.7546771E-02  0.1236410E+00
         21   -1    0    0  503  501  0.00000000000E+00  0.00000000000E+00  0.11412870720E+04  0.11412870720E+04  0.00000000000E+00 0. -1.
         21   -1    0    0  505  502 -0.00000000000E+00 -0.00000000000E+00 -0.56411399557E+03  0.56411399557E+03  0.00000000000E+00 0.  1.
         21    1    1    2  503  504 -0.48749773588E+02 -0.57503376464E+02  0.95246886778E+03  0.95544760339E+03  0.00000000000E+00 0. -1.
         21    1    1    2  504  506 -0.79126674221E+02  0.45317708486E+02  0.16432250564E+03  0.18792714316E+03  0.00000000000E+00 0. -1.
         21    1    1    2  505  501  0.11178213102E+03 -0.24235759534E+02 -0.44292481070E+03  0.45745492104E+03  0.00000000000E+00 0.  1.
         21    1    1    2  506  502  0.16094316785E+02  0.36421427511E+02 -0.96693486266E+02  0.10457140001E+03  0.00000000000E+00 0.  1.
<scales pt_clust_3="75.26415" pt_clust_4="124.14595" pt_clust_5="14000.00000" pt_clust_6="39.81893"></scales>
<clustering>
<clus scale="   39.819">  2  6  1 -1</clus>
<clus scale="   75.264">  1  3  2 -1</clus>
<clus scale="  124.146">  1  4  2 -1</clus>
<clus scale="   75.264">  1  3  2 -1</clus>
</clustering>
</event>
<event>
 6    0  0.1463946E+003  0.1212546E+03  0.7546771E-02  0.1241042E+00
         21   -1    0    0  503  501  0.00000000000E+00  0.00000000000E+00  0.22079532236E+03  0.22079532236E+03  0.00000000000E+00 0. -1.
         21   -1    0    0  506  502 -0.00000000000E+00 -0.00000000000E+00 -0.47675431428E+03  0.47675431428E+03  0.00000000000E+00 0. -1.
         21    1    1    2  503  504  0.47211036263E+02 -0.79456018761E+02  0.88204977498E+02  0.12775859626E+03  0.00000000000E+00 0. -1.
         21    1    1    2  504  502  0.87624015071E+01  0.10122400187E+03 -0.38860912534E+03  0.40167167007E+03  0.00000000000E+00 0. -1.
         21    1    1    2  505  501 -0.30882316356E+02 -0.48644559698E+02  0.91666373845E+02  0.10827157866E+03  0.00000000000E+00 0. -1.
         21    1    1    2  506  505 -0.25091121415E+02  0.26876576590E+02 -0.47221217924E+02  0.59847791648E+02  0.00000000000E+00 0. -1.
<scales pt_clust_3="121.25464" pt_clust_4="14000.00000" pt_clust_5="57.44247" pt_clust_6="36.76839"></scales>
<clustering>
<clus scale="   36.768">  2  6  1 -1</clus>
<clus scale="   57.442">  1  5  2 -1</clus>
<clus scale="  121.255">  1  3  2 -1</clus>
<clus scale="   57.442">  1  3  2 -1</clus>
</clustering>
</event>
<event>
 6    0  0.1463946E+003  0.9584517E+02  0.7546771E-02  0.1289284E+00
         21   -1    0    0  503  501  0.00000000000E+00  0.00000000000E+00  0.84399068395E+03  0.84399068395E+03  0.00000000000E+00 0. -1.
         21   -1    0    0  505  502 -0.00000000000E+00 -0.00000000000E+00 -0.84678937810E+02  0.84678937810E+02  0.00000000000E+00 0.  1.
         21    1    1    2  503  506  0.41960401905E+02  0.88669245477E+01  0.33211606517E+03  0.33487367532E+03  0.00000000000E+00 0. -1.
         21    1    1    2  504  502 -0.19480615586E+02  0.61528283553E+02  0.23502457966E+02  0.68684711480E+02  0.00000000000E+00 0.  1.
         21    1    1    2  505  501 -0.38783506587E+02  0.30942201175E+02 -0.43687500105E+02  0.66107320791E+02  0.00000000000E+00 0.  1.
         21    1    1    2  506  504  0.16303720268E+02 -0.10133740928E+03  0.44738072311E+03  0.45900391417E+03  0.00000000000E+00 0. -1.
<scales pt_clust_3="42.88703" pt_clust_4="14000.00000" pt_clust_5="49.02087" pt_clust_6="95.84517"></scales>
<clustering>
<clus scale="   42.887">  1  3  2 -1</clus>
<clus scale="   49.021">  2  5  1 -1</clus>
<clus scale="   95.845">  1  6  2 -1</clus>
<clus scale="   42.887">  1  3  2 -1</clus>
</clustering>
</event>
<event>
 6    0  0.1463946E+003  0.1985614E+03  0.7546771E-02  0.1150958E+00
         21   -1    0    0  503  501  0.00000000000E+00  0.00000000000E+00  0.57720457023E+03  0.57720457023E+03  0.00000000000E+00 0.  1.
         21   -1    0    0  506  502 -0.00000000000E+00 -0.00000000000E+00 -0.55705344676E+03  0.55705344676E+03  0.00000000000E+00 0. -1.
         21    1    1    2  503  502  0.30233696119E+02  0.49633247396E+00  0.12682736090E+03  0.13038213912E+03  0.00000000000E+00 0. -1.
         21    1    1    2  504  505 -0.23378573804E+02 -0.28858289859E+02 -0.40648674466E+02  0.55060633328E+02  0.00000000000E+00 0.  1.
         21    1    1    2  505  501  0.79479008452E+02  0.14909007529E+03  0.41358459270E+03  0.44676277671E+03  0.00000000000E+00 0.  1.
         21    1    1    2  506  504 -0.86334130767E+02 -0.12072811791E+03 -0.47961215567E+03  0.50205246783E+03  0.00000000000E+00 0. -1.
<scales pt_clust_3="30.23777" pt_clust_4="36.28819" pt_clust_5="184.75909" pt_clust_6="36.28819"></scales>
<clustering>
<clus scale="   30.238">  1  3  2 -1</clus>
<clus scale="   36.288">  4  6 -1 -1</clus>
<clus scale="  184.759">  1  5  2 -1</clus>
<clus scale="   30.238">  1  3  2 -1</clus>
</clustering>
</event>
<event>
 6    0  0.1463946E+003  0.1080718E+03  0.7546771E-02  0.1264183E+00
         21   -1    0    0  504  501  0.00000000000E+00  0.00000000000E+00  0.30023031961E+03  0.30023031961E+03  0.00000000000E+00 0. -1.
         21   -1    0    0  505  502 -0.00000000000E+00 -0.00000000000E+00 -0.45347071803E+03  0.45347071803E+03  0.00000000000E+00 0.  1.
         21    1    1    2  503  501  0.12875639001E+03  0.41006980753E+01  0.13957115731E+03  0.18993454569E+03  0.00000000000E+00 0. -1.
         21    1    1    2  504  506 -0.38546395658E+02 -0.78824348227E+02  0.10831559737E+03  0.13939645306E+03  0.00000000000E+00 0. -1.
         21    1    1    2  505  503 -0.27561444901E+02  0.66343575521E+02 -0.25985368991E+03  0.26960163838E+03  0.00000000000E+00 0.  1.
         21    1    1    2  506  502 -0.62648549446E+02  0.83800746311E+01 -0.14127346318E+03  0.15476840052E+03  0.00000000000E+00 0.  1.
<scales pt_clust_3="108.07179" pt_clust_4="88.81415" pt_clust_5="14000.00000" pt_clust_6="63.20654"></scales>
<clustering>
<clus scale="   63.207">  2  6  1 -1</clus>
<clus scale="   88.814">  1  4  2 -1</clus>
<clus scale="  108.072">  1  3  2 -1</clus>
<clus scale="   88.814">  1  3  2 -1</clus>
</clustering>
</event>
<event>
 6    0  0.1463946E+003  0.8110687E+02  0.7546771E-02  0.1325939E+00
         21   -1    0    0  505  501  0.00000000000E+00  0.00000000000E+00  0.82507481720E+02  0.82507481720E+02  0.00000000000E+00 0.  1.
         21   -1    0    0  506  502 -0.00000000000E+00 -0.00000000000E+00 -0.19739546439E+04  0.19739546439E+04  0.00000000000E+00 0.  1.
         21    1    1    2  503  504  0.89605094773E+01 -0.64532786872E+02 -0.28959539022E+03  0.29683372677E+03  0.00000000000E+00 0. -1.
         21    1    1    2  504  501  0.36634191705E+02  0.75219521137E+02  0.22745177547E+02  0.86702845764E+02  0.00000000000E+00 0.  1.
         21    1    1    2  505  502 -0.73445236224E+02  0.73084712808E+01 -0.32774123875E+02  0.80757412491E+02  0.00000000000E+00 0.  1.
         21    1    1    2  506  503  0.27850535042E+02 -0.17995205545E+02 -0.15918228256E+04  0.15921681406E+04  0.00000000000E+00 0.  1.
<scales pt_clust_3="14000.00000" pt_clust_4="81.10687" pt_clust_5="69.46092" pt_clust_6="33.15840"></scales>
<clustering>
<clus scale="   33.158">  2  6  1 -1</clus>
<clus scale="   69.461">  1  5  2 -1</clus>
<clus scale="   81.107">  1  4  2 -1</clus>
<clus scale="   69.461">  1  3  2 -1</clus>
</clustering>
</event>
<event>
 6    0  0.1463946E+003  0.1276085E+03  0.7546771E-02  0.1231048E+00
         21   -1    0    0  505  501  0.00000000000E+00  0.00000000000E+00  0.24291913074E+04  0.24291913074E+04  0.00000000000E+00 0.  1.
         21   -1    0    0  501  502 -0.00000000000E+00 -0.00000000000E+00 -0.30272436532E+02  0.30272436532E+02  0.00000000000E+00 0. -1.
         21    1    1    2  503  502 -0.46536168391E+02  0.10772971043E+03  0.10026067017E+03  0.15434865553E+03  0.00000000000E+00 0. -1.
         21    1    1    2  504  503  0.19835692892E+01 -0.38931000507E+02  0.67667257384E+03  0.67779445965E+03  0.00000000000E+00 0.  1.
         21    1    1    2  505  506 -0.26640211524E+02 -0.17773359988E+02  0.19178977798E+03  0.19444513914E+03  0.00000000000E+00 0.  1.
         21    1    1    2  506  504  0.71192810625E+02 -0.51025349939E+02  0.14301958489E+04  0.14328754896E+04  0.00000000000E+00 0.  1.
<scales pt_clust_3="117.03748" pt_clust_4="37.41950" pt_clust_5="32.02488" pt_clust_6="37.41950"></scales>
<clustering>
<clus scale="   32.025">  1  5  2 -1</clus>
<clus scale="   37.419">  4  6 -1 -1</clus>
<clus scale="  117.037">  2  3  1 -1</clus>
<clus scale="   32.025">  1  3  2 -1</clus>
</clustering>
</event>
<event>
 6    0  0.1463946E+003  0.8108119E+02  0.7546771E-02  0.1326011E+00
         21   -1    0    0  506  501  0.00000000000E+00  0.00000000000E+00  0.17479203194E+03  0.17479203194E+03  0.00000000000E+00 0.  1.
         21   -1    0    0  503  502 -0.00000000000E+00 -0.00000000000E+00 -0.10515806277E+04  0.10515806277E+04  0.00000000000E+00 0.  1.
         21    1    1    2  503  505 -0.20108626298E+02  0.37317230224E+02 -0.17058730273E+03  0.17577531219E+03  0.00000000000E+00 0.  1.
         21    1    1    2  504  502 -0.42340168086E+02  0.32364010015E+02 -0.54175040042E+03  0.54436533260E+03  0.00000000000E+00 0.  1.
         21    1    1    2  505  501  0.10629523400E+03 -0.25559077333E+02 -0.32029165844E+03  0.33843565071E+03  0.00000000000E+00 0.  1.
         21    1    1    2  506  504 -0.43846439612E+02 -0.44122162906E+02  0.15584076583E+03  0.16779636414E+03  0.00000000000E+00 0.  1.
<scales pt_clust_3="42.39024" pt_clust_4="81.08119" pt_clust_5="14000.00000" pt_clust_6="62.12044"></scales>
<clustering>
<clus scale="   42.390">  2  3  1 -1</clus>
<clus scale="   62.120">  1  6  2 -1</clus>
<clus scale="   81.081">  2  4  1 -1</clus>
<clus scale="   62.120">  1  3  2 -1</clus>
</clustering>
</event>
<event>
 6    0  0.1463946E+003  0.8823197E+02  0.7546771E-02  0.1307191E+00
         21   -1    0    0  505  501  0.00000000000E+00  0.00000000000E+00  0.17247148520E+03  0.17247148520E+03  0.00000000000E+00 0. -1.
         21   -1    0    0  506  502 -0.00000000000E+00 -0.00000000000E+00 -0.32881409623E+03  0.32881409623E+03  0.00000000000E+00 0. -1.
         21    1    1    2  503  502 -0.17271757618E+02 -0.50504448279E+02 -0.22015716034E+03  0.22653518084E+03  0.00000000000E+00 0.  1.
         21    1    1    2  504  501  0.15129175565E+02  0.26901473917E+02  0.87570527517E+01  0.32082194829E+02  0.00000000000E+00 0. -1.
         21    1    1    2  505  503  0.71404397911E+02 -0.48017339975E+02  0.10122724563E+03  0.13285784974E+03  0.00000000000E+00 0. -1.
         21    1    1    2  506  504 -0.69261815857E+02  0.71620314338E+02 -0.46169749076E+02  0.10981035603E+03  0.00000000000E+00 0. -1.
<scales pt_clust_3="52.73975" pt_clust_4="30.86392" pt_clust_5="88.23197" pt_clust_6="14000.00000"></scales>
<clustering>
<clus scale="   30.864">  1  4  2 -1</clus>
<clus scale="   52.740">  2  3  1 -1</clus>
<clus scale="   88.232">  1  5  2 -1</clus>
<clus scale="   30.864">  1  3  2 -1</clus>
</clustering>
</event>
<event>
 6    0  0.1463946E+003  0.9384962E+02  0.7546771E-02  0.1293788E+00
         21   -1    0    0  506  501  0.00000000000E+00  0.00000000000E+00  0.25695110313E+03  0.25695110313E+03  0.00000000000E+00 0.  1.
         21   -1    0    0  503  502 -0.00000000000E+00 -0.00000000000E+00 -0.13847129484E+03  0.13847129484E+03  0.00000000000E+00 0.  1.
         21    1    1    2  503  504  0.94938108159E+01 -0.33949599619E+02  0.94096382788E+01  0.36486285788E+02  0.00000000000E+00 0.  1.
         21    1    1    2  504  505 -0.49836518933E+01  0.48434861500E+02  0.18812558804E+02  0.52198514955E+02  0.00000000000E+00 0.  1.
         21    1    1    2  505  501 -0.79590972762E+02 -0.52243603864E+02  0.16745185872E+03  0.19262461441E+03  0.00000000000E+00 0.  1.
         21    1    1    2  506  502  0.75080813839E+02  0.37758341983E+02 -0.77194247521E+02  0.11411298281E+03  0.00000000000E+00 0.  1.
<scales pt_clust_3="35.25206" pt_clust_4="44.05559" pt_clust_5="14000.00000" pt_clust_6="93.84962"></scales>
<clustering>
<clus scale="   35.252">  2  3  1 -1</clus>
<clus scale="   44.056">  2  4  1 -1</clus>
<clus scale="   93.850">  2  6  1 -1</clus>
<clus scale="   93.850">  1  3  2 -1</clus>
</clustering>
</event>
<event>
 6    0  0.1463946E+003  0.7022784E+02  0.7546771E-02  0.1359320E+00
         21   -1    0    0  506  501  0.00000000000E+00  0.00000000000E+00  0.43969995602E+03  0.43969995602E+03  0.00000000000E+00 0.  1.
         21   -1    0    0  504  502 -0.00000000000E+00 -0.00000000000E+00 -0.48254498905E+02  0.48254498905E+02  0.00000000000E+00 0. -1.
         21    1    1    2  503  502 -0.16890436848E+02 -0.63585558915E+02  0.45618306899E+02  0.80058978783E+02  0.00000000000E+00 0. -1.
         21    1    1    2  504  505  0.12842225778E+02  0.36472537932E+02  0.18657178979E+02  0.42933193610E+02  0.00000000000E+00 0. -1.
         21    1    1    2  505  501 -0.55992260981E+02  0.58098046295E+02  0.10305770723E+03  0.13088700200E+03  0.00000000000E+00 0. -1.
         21    1    1    2  506  503  0.60040472050E+02 -0.30985025311E+02  0.22411226401E+03  0.23407528053E+03  0.00000000000E+00 0.  1.
<scales pt_clust_3="47.43369" pt_clust_4="38.66741" pt_clust_5="14000.00000" pt_clust_6="70.22784"></scales>
<clustering>
<clus scale="   38.667">  2  4  1 -1</clus>
<clus scale="   47.434">  2  3  1 -1</clus>
<clus scale="   70.228">  1  6  2 -1</clus>
<clus scale="   70.228">  1  3  2 -1</clus>
</clustering>
</event>
<event>
 6    0  0.1463946E+003  0.1291263E+03  0.7546771E-02  0.1228758E+00
         21   -1    0    0  505  501  0.00000000000E+00  0.00000000000E+00  0.65521005266E+02  0.65521005266E+02  0.00000000000E+00 0.  1.
         21   -1    0    0  506  502 -0.00000000000E+00 -0.00000000000E+00 -0.13815548278E+04  0.13815548278E+04  0.00000000000E+00 0.  1.
         21    1    1    2  503  502 -0.18858793203E+02  0.55703596970E+02 -0.93273332312E+03  0.93458546793E+03  0.00000000000E+00 0.  1.
         21    1    1    2  504  501 -0.10007828402E+03  0.37965837775E+02 -0.87702010402E+02  0.13837886543E+03  0.00000000000E+00 0.  1.
         21    1    1    2  505  503  0.14577849891E+03 -0.77704647066E+02 -0.14343477646E+03  0.21877595393E+03  0.00000000000E+00 0.  1.
         21    1    1    2  506  504 -0.26841421694E+02 -0.15964787679E+02 -0.15216371253E+03  0.15533554575E+03  0.00000000000E+00 0.  1.
<scales pt_clust_3="58.65063" pt_clust_4="129.12635" pt_clust_5="14000.00000" pt_clust_6="31.23038"></scales>
<clustering>
<clus scale="   31.230">  2  6  1 -1</clus>
<clus scale="   58.651">  2  3  1 -1</clus>
<clus scale="  129.126">  1  4  2 -1</clus>
<clus scale="  129.126">  1  3  2 -1</clus>
</clustering>
</event>
<event>
 6    0  0.1463946E+003  0.6625004E+02  0.7546771E-02  0.1373330E+00
         21   -1    0    0  506  501  0.00000000000E+00  0.00000000000E+00  0.20782686205E+04  0.20782686205E+04  0.00000000000E+00 0. -1.
         21   -1    0    0  505  502 -0.00000000000E+00 -0.00000000000E+00 -0.40843061193E+03  0.40843061193E+03  0.00000000000E+00 0. -1.
         21    1    1    2  503  502 -0.64105160633E+02  0.84263409409E+00 -0.34356717765E+03  0.34949762118E+03  0.00000000000E+00 0. -1.
         21    1    1    2  504  501 -0.55099963109E+02  0.24839362812E+02  0.19911230478E+03  0.20808342027E+03  0.00000000000E+00 0. -1.
         21    1    1    2  505  504  0.10755026122E+03  0.38320992295E+02  0.51553010165E+00  0.11417452829E+03  0.00000000000E+00 0. -1.
         21    1    1    2  506  503  0.11654862524E+02 -0.64002989201E+02  0.18137773513E+04  0.18149436626E+04  0.00000000000E+00 0. -1.
<scales pt_clust_3="66.25004" pt_clust_4="60.44005" pt_clust_5="14000.00000" pt_clust_6="57.73747"></scales>
<clustering>
<clus scale="   60.440">  1  4  2 -1</clus>
<clus scale="   57.737">  1  6  2 -1</clus>
<clus scale="   66.250">  2  3  1 -1</clus>
<clus scale="   60.440">  1  3  2 -1</clus>
</clustering>
</event>
<event>
 6    0  0.1463946E+003  0.7955031E+02  0.7546771E-02  0.1330332E+00
         21   -1    0    0  506  501  0.00000000000E+00  0.00000000000E+00  0.97098201052E+03  0.97098201052E+03  0.00000000000E+00 0. -1.
         21   -1    0    0  503  502 -0.00000000000E+00 -0.00000000000E+00 -0.45129634410E+03  0.45129634410E+03  0.00000000000E+00 0.  1.
         21    1    1    2  503  505  0.49875646070E+02 -0.19518657288E+02 -0.78340044243E+02  0.94898475147E+02  0.00000000000E+00 0.  1.
         21    1    1    2  504  501 -0.15706999263E+01  0.79507187733E+02  0.94091267171E+03  0.94426718453E+03  0.00000000000E+00 0. -1.
         21    1    1    2  505  504 -0.53984927872E+02  0.24421641571E+02 -0.47774030311E+02  0.76112725523E+02  0.00000000000E+00 0.  1.
         21    1    1    2  506  502  0.56799817278E+01 -0.84410172017E+02 -0.29511293074E+03  0.30699996942E+03  0.00000000000E+00 0.  1.
<scales pt_clust_3="53.55892" pt_clust_4="79.55031" pt_clust_5="50.16891" pt_clust_6="14000.00000"></scales>
<clustering>
<clus scale="   53.559">  2  3  1 -1</clus>
<clus scale="   50.169">  2  5  1 -1</clus>
<clus scale="   79.550">  1  4  2 -1</clus>
<clus scale="   79.550">  1  3  2 -1</clus>
</clustering>
</event>
<event>
 6    0  0.1463946E+003  0.7902252E+02  0.7546771E-02  0.1331848E+00
         21   -1    0    0  505  501  0.00000000000E+00  0.00000000000E+00  0.12493204745E+03  0.12493204745E+03  0.00000000000E+00 0. -1.
         21   -1    0    0  504  502 -0.00000000000E+00 -0.00000000000E+00 -0.30433463867E+03  0.30433463867E+03  0.00000000000E+00 0. -1.
         21    1    1    2  503  502 -0.14523837870E+02 -0.40641229568E+02 -0.18305920947E+03  0.18807797739E+03  0.00000000000E+00 0. -1.
         21    1    1    2  504  501 -0.87509981896E+02  0.64349595855E+02  0.23612432575E+02  0.11115940981E+03  0.00000000000E+00 0. -1.
         21    1    1    2  505  506  0.42609599765E+02  0.22113234502E+01  0.26540911239E+02  0.50248262785E+02  0.00000000000E+00 0. -1.
         21    1    1    2  506  503  0.59424220001E+02 -0.25919689737E+02 -0.46496725561E+02  0.79781036135E+02  0.00000000000E+00 0. -1.
<scales pt_clust_3="42.69753" pt_clust_4="14000.00000" pt_clust_5="42.66694" pt_clust_6="79.02252"></scales>
<clustering>
<clus scale="   42.667">  1  5  2 -1</clus>
<clus scale="   42.698">  2  3  1 -1</clus>
<clus scale="   79.023">  2  6  1 -1</clus>
<clus scale="   42.667">  1  3  2 -1</clus>
</clustering>
</event>
<event>
 6    0  0.1463946E+003  0.1327356E+03  0.7546771E-02  0.1223452E+00
         21   -1    0    0  505  501  0.00000000000E+00  0.00000000000E+00  0.90289448525E+02  0.90289448525E+02  0.00000000000E+00 0. -1.
         21   -1    0    0  504  502 -0.00000000000E+00 -0.00000000000E+00 -0.20676575370E+03  0.20676575370E+03  0.00000000000E+00 0. -1.
         21    1    1    2  503  501  0.34069949695E+02 -0.43253263072E+02 -0.42580882735E+02  0.69604150832E+02  0.00000000000E+00 0. -1.
         21    1    1    2  504  503  0.35095484684E+00 -0.76496203775E+02 -0.53042154663E+02  0.93087391910E+02  0.00000000000E+00 0. -1.
         21    1    1    2  505  506 -0.38903390166E+02  0.53996212680E+02 -0.14826820185E+02  0.68182837629E+02  0.00000000000E+00 0. -1.
         21    1    1    2  506  502  0.44824856246E+01  0.65753254166E+02 -0.60264475931E+01  0.66180821855E+02  0.00000000000E+00 0. -1.
<scales pt_clust_3="35.99457" pt_clust_4="131.62360" pt_clust_5="45.53784" pt_clust_6="45.53784"></scales>
<clustering>
<clus scale="   35.995">  3  4 -1 -1</clus>
<clus scale="   45.538">  5  6 -1 -1</clus>
<clus scale="  131.624">  2  3  1 -1</clus>
<clus scale="  132.736">  1  3  2 -1</clus>
</clustering>
</event>
<event>
 6    0  0.1463946E+003  0.1437110E+03  0.7546771E-02  0.1208421E+00
         21   -1    0    0  506  501  0.00000000000E+00  0.00000000000E+00  0.95623694957E+03  0.95623694957E+03  0.00000000000E+00 0. -1.
         21   -1    0    0  504  502 -0.00000000000E+00 -0.00000000000E+00 -0.19005571375E+04  0.19005571375E+04  0.00000000000E+00 0. -1.
         21    1    1    2  503  501 -0.93913589440E+02 -0.15489381118E+03  0.83293105857E+03  0.85240014274E+03  0.00000000000E+00 0. -1.
         21    1    1    2  504  503  0.50159789194E+02  0.11502714259E+02 -0.12518621357E+04  0.12529194403E+04  0.00000000000E+00 0. -1.
         21    1    1    2  505  502  0.23953389567E+02  0.11195831907E+03 -0.63007484629E+03  0.64039264674E+03  0.00000000000E+00 0.  1.
         21    1    1    2  506  505  0.19800410679E+02  0.31432777855E+02  0.10468573557E+03  0.11108185729E+03  0.00000000000E+00 0. -1.
<scales pt_clust_3="143.71097" pt_clust_4="51.47821" pt_clust_5="14000.00000" pt_clust_6="37.14937"></scales>
<clustering>
<clus scale="   37.149">  1  6  2 -1</clus>
<clus scale="   51.478">  2  4  1 -1</clus>
<clus scale="  143.711">  1  3  2 -1</clus>
<clus scale="   37.149">  1  3  2 -1</clus>
</clustering>
</event>
<event>
 6    0  0.1463946E+003  0.7286475E+02  0.7546771E-02  0.1350614E+00
         21   -1    0    0  504  501  0.00000000000E+00  0.00000000000E+00  0.18300252583E+02  0.18300252583E+02  0.00000000000E+00 0. -1.
         21   -1    0    0  503  502 -0.00000000000E+00 -0.00000000000E+00 -0.10296942529E+04  0.10296942529E+04  0.00000000000E+00 0.  1.
         21    1    1    2  503  501 -0.10920872057E+02 -0.48881565704E+02 -0.37884187066E+03  0.38213850352E+03  0.00000000000E+00 0.  1.
         21    1    1    2  504  505 -0.33520294071E+02  0.13167855932E+01 -0.12036895733E+03  0.12495611200E+03  0.00000000000E+00 0. -1.
         21    1    1    2  505  506 -0.27809446468E+01 -0.54271824421E+02 -0.10126209456E+03  0.11492247984E+03  0.00000000000E+00 0. -1.
         21    1    1    2  506  502  0.47222110775E+02  0.10183660453E+03 -0.41092107781E+03  0.42597741015E+03  0.00000000000E+00 0. -1.
<scales pt_clust_3="50.82070" pt_clust_4="33.54615" pt_clust_5="72.86475" pt_clust_6="14000.00000"></scales>
<clustering>
<clus scale="   33.546">  1  4  2 -1</clus>
<clus scale="   50.821">  2  3  1 -1</clus>
<clus scale="   72.865">  1  5  2 -1</clus>
<clus scale="   33.546">  1  3  2 -1</clus>
</clustering>
</event>
<event>
 6    0  0.1463946E+003  0.8653852E+02  0.7546771E-02  0.1311457E+00
         21   -1    0    0  506  501  0.00000000000E+00  0.00000000000E+00  0.36554022353E+03  0.36554022353E+03  0.00000000000E+00 0.  1.
         21   -1    0    0  503  502 -0.00000000000E+00 -0.00000000000E+00 -0.12732102724E+03  0.12732102724E+03  0.00000000000E+00 0. -1.
         21    1    1    2  503  501 -0.25921914870E+02  0.48602164745E+02  0.53619590950E+02  0.76871168991E+02  0.00000000000E+00 0.  1.
         21    1    1    2  504  505 -0.75450766213E+02 -0.32262077812E+02 -0.31128921038E+02  0.87764853511E+02  0.00000000000E+00 0. -1.
         21    1    1    2  505  502  0.12606920369E+02 -0.33861364270E+02 -0.41807725810E+02  0.55257690585E+02  0.00000000000E+00 0. -1.
         21    1    1    2  506  504  0.88765760714E+02  0.17521277336E+02  0.25753625219E+03  0.27296753768E+03  0.00000000000E+00 0.  1.
<scales pt_clust_3="49.80380" pt_clust_4="14000.00000" pt_clust_5="36.13207" pt_clust_6="86.53852"></scales>
<clustering>
<clus scale="   36.132">  2  5  1 -1</clus>
<clus scale="   49.804">  1  3  2 -1</clus>
<clus scale="   86.539">  1  6  2 -1</clus>
<clus scale="   49.804">  1  3  2 -1</clus>
</clustering>
</event>
<event>
 6    0  0.1463946E+003  0.1033012E+03  0.7546771E-02  0.1273503E+00
         21   -1    0    0  503  501  0.00000000000E+00  0.00000000000E+00  0.36347212682E+03  0.36347212682E+03  0.00000000000E+00 0.  1.
         21   -1    0    0  506  502 -0.00000000000E+00 -0.00000000000E+00 -0.90488567596E+02  0.90488567596E+02  0.00000000000E+00 0. -1.
         21    1    1    2  503  502  0.21750147494E+02  0.23831970572E+02  0.19609310425E+01  0.32324557042E+02  0.00000000000E+00 0. -1.
         21    1    1    2  504  501  0.68110445719E+02 -0.88479532478E+02  0.26881933366E+03  0.29108674761E+03  0.00000000000E+00 0.  1.
         21    1    1    2  505  504 -0.41974388732E+02  0.67155120251E+02  0.15698495135E+02  0.80734764723E+02  0.00000000000E+00 0. -1.
         21    1    1    2  506  505 -0.47886204481E+02 -0.25075583448E+01 -0.13495200615E+02  0.49814625042E+02  0.00000000000E+00 0. -1.
<scales pt_clust_3="32.26502" pt_clust_4="103.30120" pt_clust_5="14000.00000" pt_clust_6="39.46479"></scales>
<clustering>
<clus scale="   32.265">  2  3  1 -1</clus>
<clus scale="   39.465">  2  6  1 -1</clus>
<clus scale="  103.301">  1  4  2 -1</clus>
<clus scale="  103.301">  1  3  2 -1</clus>
</clustering>
</event>
<event>
 6    0  0.1463946E+003  0.1114410E+03  0.7546771E-02  0.1257924E+00
         21   -1    0    0  505  501  0.00000000000E+00  0.00000000000E+00  0.40431847334E+03  0.40431847334E+03  0.00000000000E+00 0. -1.
         21   -1    0    0  503  502 -0.00000000000E+00 -0.00000000000E+00 -0.20266789961E+03  0.20266789961E+03  0.00000000000E+00 0.  1.
         21    1    1    2  503  504  0.10920560773E+03 -0.93382556157E+02 -0.82752678394E+02  0.16581366751E+03  0.00000000000E+00 0.  1.
         21    1    1    2  504  501  0.25310168119E+02 -0.63428592542E+02  0.40656022562E+02  0.79477689527E+02  0.00000000000E+00 0.  1.
         21    1    1    2  505  506 -0.91527502788E+02  0.12771950954E+03  0.26297452473E+03  0.30634157005E+03  0.00000000000E+00 0. -1.
         21    1    1    2  506  502 -0.42988273057E+02  0.29091639154E+02 -0.19227295170E+02  0.55353445860E+02  0.00000000000E+00 0.  1.
<scales pt_clust_3="14000.00000" pt_clust_4="63.34298" pt_clust_5="111.44097" pt_clust_6="51.90679"></scales>
<clustering>
<clus scale="   51.907">  2  6  1 -1</clus>
<clus scale="   63.343">  1  4  2 -1</clus>
<clus scale="  111.441">  1  5  2 -1</clus>
<clus scale="   63.343">  1  3  2 -1</clus>
</clustering>
</event>
<event>
 6    0  0.1463946E+003  0.6430955E+02  0.7546771E-02  0.1380588E+00
         21   -1    0    0  505  501  0.00000000000E+00  0.00000000000E+00  0.92393628538E+02  0.92393628538E+02  0.00000000000E+00 0. -1.
         21   -1    0    0  506  502 -0.00000000000E+00 -0.00000000000E+00 -0.11303182397E+04  0.11303182397E+04  0.00000000000E+00 0. -1.
         21    1    1    2  503  502 -0.64143551895E+02  0.45000896457E+02 -0.27446155233E+03  0.28542708288E+03  0.00000000000E+00 0.  1.
         21    1    1    2  504  501 -0.60590035691E+02 -0.34596098681E+01 -0.37443405255E+02  0.71310096919E+02  0.00000000000E+00 0.  1.
         21    1    1    2  505  503  0.62639538234E+02 -0.33150996721E+02  0.50441938785E+02  0.86989019550E+02  0.00000000000E+00 0. -1.
         21    1    1    2  506  504  0.62094049353E+02 -0.83902898675E+01 -0.77646159241E+03  0.77898566894E+03  0.00000000000E+00 0. -1.
<scales pt_clust_3="64.30955" pt_clust_4="60.68872" pt_clust_5="37.06102" pt_clust_6="14000.00000"></scales>
<clustering>
<clus scale="   60.689">  1  4  2 -1</clus>
<clus scale="   37.061">  1  5  2 -1</clus>
<clus scale="   64.310">  1  3  2 -1</clus>
<clus scale="   60.689">  1  3  2 -1</clus>
</clustering>
</event>
<event>
 6    0  0.1463946E+003  0.1000403E+03  0.7546771E-02  0.1280211E+00
         21   -1    0    0  506  501  0.00000000000E+00  0.00000000000E+00  0.61313177737E+03  0.61313177737E+03  0.00000000000E+00 0. -1.
         21   -1    0    0  504  502 -0.00000000000E+00 -0.00000000000E+00 -0.29973632758E+03  0.29973632758E+03  0.00000000000E+00 0. -1.
         21    1    1    2  503  505  0.49541663644E+02  0.18667853646E+02  0.90448661501E+02  0.10480374785E+03  0.00000000000E+00 0.  1.
         21    1    1    2  504  501 -0.61424874367E+02  0.10130640150E+03  0.41535490997E+03  0.43192094579E+03  0.00000000000E+00 0. -1.
         21    1    1    2  505  502  0.93423723315E+01 -0.46441976101E+02 -0.26711809025E+03  0.27128621639E+03  0.00000000000E+00 0. -1.
         21    1    1    2  506  503  0.25408383914E+01 -0.73532279041E+02  0.74709968575E+02  0.10485719491E+03  0.00000000000E+00 0. -1.
<scales pt_clust_3="52.31511" pt_clust_4="14000.00000" pt_clust_5="47.37232" pt_clust_6="100.04027"></scales>
<clustering>
<clus scale="   47.372">  2  5  1 -1</clus>
<clus scale="   52.315">  2  3  1 -1</clus>
<clus scale="  100.040">  2  6  1 -1</clus>
<clus scale="  100.040">  1  3  2 -1</clus>
</clustering>
</event>
<event>
 6    0  0.1463946E+003  0.9371895E+02  0.7546771E-02  0.1294088E+00
         21   -1    0    0  506  501  0.00000000000E+00  0.00000000000E+00  0.65744977729E+03  0.65744977729E+03  0.00000000000E+00 0. -1.
         21   -1    0    0  505  502 -0.00000000000E+00 -0.00000000000E+00 -0.11559665695E+04  0.11559665695E+04  0.00000000000E+00 0. -1.
         21    1    1    2  503  501  0.72720701233E+02 -0.14816130415E+02  0.70675633305E+02  0.10248347794E+03  0.00000000000E+00 0. -1.
         21    1    1    2  504  502  0.25382936122E+02  0.24038761177E+02 -0.83419709201E+02  0.90448899210E+02  0.00000000000E+00 0.  1.
         21    1    1    2  505  503  0.62467640746E+02 -0.55702854869E+02 -0.10390960141E+04  0.10424612898E+04  0.00000000000E+00 0. -1.
         21    1    1    2  506  504 -0.16057127810E+03  0.46480224106E+02  0.55332329777E+03  0.57802267987E+03  0.00000000000E+00 0. -1.
<scales pt_clust_3="74.51452" pt_clust_4="34.95934" pt_clust_5="93.71895" pt_clust_6="14000.00000"></scales>
<clustering>
<clus scale="   34.959">  2  4  1 -1</clus>
<clus scale="   74.515">  1  3  2 -1</clus>
<clus scale="   93.719">  2  5  1 -1</clus>
<clus scale="   74.515">  1  3  2 -1</clus>
</clustering>
</event>
<event>
 6    0  0.1463946E+003  0.8708263E+02  0.7546771E-02  0.1310074E+00
         21   -1    0    0  504  501  0.00000000000E+00  0.00000000000E+00  0.23319805950E+03  0.23319805950E+03  0.00000000000E+00 0.  1.
         21   -1    0    0  506  502 -0.00000000000E+00 -0.00000000000E+00 -0.19892314226E+04  0.19892314226E+04  0.00000000000E+00 0. -1.
         21    1    1    2  503  505  0.72138794495E+02 -0.57759803417E+02 -0.11424126802E+04  0.11461443768E+04  0.00000000000E+00 0. -1.
         21    1    1    2  504  502  0.78312207727E+02  0.13565825432E+02  0.11319759645E+03  0.13831315679E+03  0.00000000000E+00 0.  1.
         21    1    1    2  505  501 -0.11082221409E+03  0.45562216203E+02  0.70927385704E+02  0.13924141885E+03  0.00000000000E+00 0. -1.
         21    1    1    2  506  503 -0.39628788131E+02 -0.13682382171E+01 -0.79774566507E+03  0.79873052969E+03  0.00000000000E+00 0. -1.
<scales pt_clust_3="68.19211" pt_clust_4="87.08263" pt_clust_5="14000.00000" pt_clust_6="39.65240"></scales>
<clustering>
<clus scale="   39.652">  2  6  1 -1</clus>
<clus scale="   68.192">  2  3  1 -1</clus>
<clus scale="   87.083">  1  4  2 -1</clus>
<clus scale="   87.083">  1  3  2 -1</clus>
</clustering>
</event>
<event>
 6    0  0.1463946E+003  0.7778555E+02  0.7546771E-02  0.1335456E+00
         21   -1    0    0  503  501  0.00000000000E+00  0.00000000000E+00  0.49778521109E+03  0.49778521109E+03  0.00000000000E+00 0.  1.
         21   -1    0    0  506  502 -0.00000000000E+00 -0.00000000000E+00 -0.66540612768E+02  0.66540612768E+02  0.00000000000E+00 0.  1.
         21    1    1    2  503  505  0.19388816366E+02 -0.46305203931E+02  0.11619833820E+03  0.12657863924E+03  0.00000000000E+00 0.  1.
         21    1    1    2  504  501 -0.77780356996E+02  0.74193795126E+02  0.25030095293E+03  0.27240607594E+03  0.00000000000E+00 0.  1.
         21    1    1    2  505  502  0.29969944661E+02 -0.83031200579E+02  0.25308305095E+02  0.91830758243E+02  0.00000000000E+00 0.  1.
         21    1    1    2  506  504  0.28421595969E+02  0.55142609385E+02  0.39437002095E+02  0.73510350437E+02  0.00000000000E+00 0.  1.
<scales pt_clust_3="50.20058" pt_clust_4="14000.00000" pt_clust_5="77.78555" pt_clust_6="57.48370"></scales>
<clustering>
<clus scale="   50.201">  1  3  2 -1</clus>
<clus scale="   57.484">  2  6  1 -1</clus>
<clus scale="   77.786">  2  5  1 -1</clus>
<clus scale="   50.201">  1  3  2 -1</clus>
</clustering>
</event>
<event>
 6    0  0.1463946E+003  0.1244231E+03  0.7546771E-02  0.1235974E+00
         21   -1    0    0  505  501  0.00000000000E+00  0.00000000000E+00  0.28894022304E+03  0.28894022304E+03  0.00000000000E+00 0. -1.
         21   -1    0    0  506  502 -0.00000000000E+00 -0.00000000000E+00 -0.18669609594E+03  0.18669609594E+03  0.00000000000E+00 0.  1.
         21    1    1    2  503  502 -0.34030773328E+02  0.78231068577E+02 -0.80586540146E+02  0.11735580121E+03  0.00000000000E+00 0.  1.
         21    1    1    2  504  503  0.27088157745E+02 -0.59849500762E+02  0.93331394229E+02  0.11413360671E+03  0.00000000000E+00 0. -1.
         21    1    1    2  505  504  0.53132292481E+02 -0.24609230670E+02  0.15389274342E+03  0.16465609984E+03  0.00000000000E+00 0. -1.
         21    1    1    2  506  501 -0.46189676898E+02  0.62276628549E+01 -0.64393470407E+02  0.79490811215E+02  0.00000000000E+00 0.  1.
<scales pt_clust_3="111.56060" pt_clust_4="51.93238" pt_clust_5="51.93238" pt_clust_6="46.60762"></scales>
<clustering>
<clus scale="   46.608">  2  6  1 -1</clus>
<clus scale="   51.932">  4  5 -1 -1</clus>
<clus scale="  111.561">  2  3  1 -1</clus>
<clus scale="  124.423">  1  3  2 -1</clus>
</clustering>
</event>
<event>
 6    0  0.1463946E+003  0.6947150E+02  0.7546771E-02  0.1361899E+00
         21   -1    0    0  506  501  0.00000000000E+00  0.00000000000E+00  0.13816265245E+04  0.13816265245E+04  0.00000000000E+00 0.  1.
         21   -1    0    0  503  502 -0.00000000000E+00 -0.00000000000E+00 -0.14178796943E+02  0.14178796943E+02  0.00000000000E+00 0.  1.
         21    1    1    2  503  504 -0.96251519580E+02  0.21771327060E+01  0.39785095928E+03  0.40933419199E+03  0.00000000000E+00 0.  1.
         21    1    1    2  504  501 -0.26240283868E+02 -0.26084452409E+02  0.29557621819E+03  0.29788295002E+03  0.00000000000E+00 0.  1.
         21    1    1    2  505  502  0.55096319779E+02 -0.51725742351E+01  0.15881578571E+03  0.16818089597E+03  0.00000000000E+00 0.  1.
         21    1    1    2  506  505  0.67395483669E+02  0.29079893938E+02  0.51520476435E+03  0.52040728344E+03  0.00000000000E+00 0.  1.
<scales pt_clust_3="14000.00000" pt_clust_4="36.99934" pt_clust_5="51.94574" pt_clust_6="69.47150"></scales>
<clustering>
<clus scale="   36.999">  1  4  2 -1</clus>
<clus scale="   51.946">  2  5  1 -1</clus>
<clus scale="   69.472">  1  6  2 -1</clus>
<clus scale="   36.999">  1  3  2 -1</clus>
</clustering>
</event>
<event>
 6    0  0.1463946E+003  0.1290543E+03  0.7546771E-02  0.1228866E+00
         21   -1    0    0  505  501  0.00000000000E+00  0.00000000000E+00  0.50674495858E+03  0.50674495858E+03  0.00000000000E+00 0.  1.
         21   -1    0    0  506  502 -0.00000000000E+00 -0.00000000000E+00 -0.58173157012E+03  0.58173157012E+03  0.00000000000E+00 0.  1.
         21    1    1    2  503  501 -0.79988652303E+02 -0.93623588137E+02  0.38552109726E+03  0.40470986791E+03  0.00000000000E+00 0.  1.
         21    1    1    2  504  503  0.18925214714E+03  0.11647142735E+03 -0.44668029952E+02  0.22666539543E+03  0.00000000000E+00 0.  1.
         21    1    1    2  505  502 -0.61757844673E+02 -0.26727661775E+02 -0.40068231327E+02  0.78318978826E+02  0.00000000000E+00 0.  1.
         21    1    1    2  506  504 -0.47505650165E+02  0.38798225662E+01 -0.37577144752E+03  0.37878228654E+03  0.00000000000E+00 0.  1.
<scales pt_clust_3="129.05429" pt_clust_4="14000.00000" pt_clust_5="79.73452" pt_clust_6="47.66382"></scales>
<clustering>
<clus scale="   47.664">  2  6  1 -1</clus>
<clus scale="   79.735">  2  5  1 -1</clus>
<clus scale="  129.054">  1  3  2 -1</clus>
<clus scale="  129.054">  1  3  2 -1</clus>
</clustering>
</event>
<event>
 6    0  0.1463946E+003  0.1368184E+03  0.7546771E-02  0.1217675E+00
         21   -1    0    0  504  501  0.00000000000E+00  0.00000000000E+00  0.26457045888E+03  0.26457045888E+03  0.00000000000E+00 0. -1.
         21   -1    0    0  503  502 -0.00000000000E+00 -0.00000000000E+00 -0.19294633232E+03  0.19294633232E+03  0.00000000000E+00 0.  1.
         21    1    1    2  503  506  0.37800329215E+02  0.11470543618E+03 -0.11202592024E+03  0.16473010892E+03  0.00000000000E+00 0.  1.
         21    1    1    2  504  505 -0.14570113615E+02 -0.82131271447E+02  0.59572477571E+02  0.10250226360E+03  0.00000000000E+00 0.  1.
         21    1    1    2  505  502  0.28454133598E+02 -0.50674731887E+02  0.39351091134E+01  0.58249903471E+02  0.00000000000E+00 0. -1.
         21    1    1    2  506  501 -0.51684349199E+02  0.18100567155E+02  0.12014246012E+03  0.13203451521E+03  0.00000000000E+00 0. -1.
<scales pt_clust_3="121.41432" pt_clust_4="52.64491" pt_clust_5="52.64491" pt_clust_6="54.76224"></scales>
<clustering>
<clus scale="   52.645">  4  5 -1 -1</clus>
<clus scale="   54.762">  1  6  2 -1</clus>
<clus scale="  121.414">  2  3  1 -1</clus>
<clus scale="   54.762">  1  3  2 -1</clus>
</clustering>
</event>
<event>
 6    0  0.1463946E+003  0.1202156E+03  0.7546771E-02  0.1242742E+00
         21   -1    0    0  503  501  0.00000000000E+00  0.00000000000E+00  0.48490147808E+03  0.48490147808E+03  0.00000000000E+00 0.  1.
         21   -1    0    0  506  502 -0.00000000000E+00 -0.00000000000E+00 -0.14253320182E+03  0.14253320182E+03  0.00000000000E+00 0. -1.
         21    1    1    2  503  505 -0.38248732583E+01 -0.63743652292E+02  0.27087245636E+03  0.27829798863E+03  0.00000000000E+00 0.  1.
         21    1    1    2  504  501 -0.21208971935E+02 -0.42567143625E+02  0.31091986713E+02  0.56819836718E+02  0.00000000000E+00 0. -1.
         21    1    1    2  505  502 -0.10025812557E+03  0.55386990260E+02  0.92659995061E+02  0.14732713639E+03  0.00000000000E+00 0. -1.
         21    1    1    2  506  504  0.12529197076E+03  0.50923805657E+02 -0.52256161874E+02  0.14498971816E+03  0.00000000000E+00 0. -1.
<scales pt_clust_3="91.84411" pt_clust_4="47.55820" pt_clust_5="14000.00000" pt_clust_6="120.21560"></scales>
<clustering>
<clus scale="   47.558">  1  4  2 -1</clus>
<clus scale="   91.844">  1  3  2 -1</clus>
<clus scale="  120.216">  2  6  1 -1</clus>
<clus scale="   47.558">  1  3  2 -1</clus>
</clustering>
</event>
<event>
 6    0  0.1463946E+003  0.1118730E+03  0.7546771E-02  0.1257140E+00
         21   -1    0    0  505  501  0.00000000000E+00  0.00000000000E+00  0.92399789446E+02  0.92399789446E+02  0.00000000000E+00 0.  1.
         21   -1    0    0  506  502 -0.00000000000E+00 -0.00000000000E+00 -0.11154538414E+04  0.11154538414E+04  0.00000000000E+00 0.  1.
         21    1    1    2  503  502 -0.37042890028E+02 -0.20524256124E+02 -0.48924922029E+03  0.49107862950E+03  0.00000000000E+00 0.  1.
         21    1    1    2  504  503 -0.75280836815E+01 -0.92689338466E+02 -0.56510856252E+03  0.57270906484E+03  0.00000000000E+00 0.  1.
         21    1    1    2  505  504  0.44703739089E+02  0.71244216626E+02 -0.10582156748E+02  0.84771131481E+02  0.00000000000E+00 0.  1.
         21    1    1    2  506  501 -0.13276537917E+00  0.41969377965E+02  0.41885887656E+02  0.59294804985E+02  0.00000000000E+00 0.  1.
<scales pt_clust_3="41.91406" pt_clust_4="111.87304" pt_clust_5="14000.00000" pt_clust_6="41.96959"></scales>
<clustering>
<clus scale="   41.970">  1  6  2 -1</clus>
<clus scale="   41.914">  2  3  1 -1</clus>
<clus scale="  111.873">  2  4  1 -1</clus>
<clus scale="   41.970">  1  3  2 -1</clus>
</clustering>
</event>
<event>
 6    0  0.1463946E+003  0.4495286E+03  0.7546771E-02  0.1027863E+00
         21   -1    0    0  505  501  0.00000000000E+00  0.00000000000E+00  0.13060897990E+04  0.13060897990E+04  0.00000000000E+00 0.  1.
         21   -1    0    0  506  502 -0.00000000000E+00 -0.00000000000E+00 -0.42911177345E+03  0.42911177345E+03  0.00000000000E+00 0.  1.
         21    1    1    2  503  501  0.16995787704E+02 -0.62820792540E+02  0.69318902006E+02  0.95081117738E+02  0.00000000000E+00 0. -1.
         21    1    1    2  504  503  0.25719383578E+03 -0.39735110228E+03  0.84241847341E+03  0.96628435359E+03  0.00000000000E+00 0.  1.
         21    1    1    2  505  502 -0.20172890692E+03  0.14587634750E+03 -0.19259340369E+03  0.31474859776E+03  0.00000000000E+00 0.  1.
         21    1    1    2  506  504 -0.72460716564E+02  0.31429554732E+03  0.15783405378E+03  0.35908750333E+03  0.00000000000E+00 0.  1.
<scales pt_clust_3="33.76840" pt_clust_4="33.76840" pt_clust_5="248.94670" pt_clust_6="440.20731"></scales>
<clustering>
<clus scale="   33.768">  3  4 -1 -1</clus>
<clus scale="  248.947">  2  5  1 -1</clus>
<clus scale="  440.207">  2  6  1 -1</clus>
<clus scale="  449.529">  1  3  2 -1</clus>
</clustering>
</event>
<event>
 6    0  0.1463946E+003  0.6759105E+02  0.7546771E-02  0.1368482E+00
         21   -1    0    0  503  501  0.00000000000E+00  0.00000000000E+00  0.29007791400E+03  0.29007791400E+03  0.00000000000E+00 0. -1.
         21   -1    0    0  504  502 -0.00000000000E+00 -0.00000000000E+00 -0.40826307669E+03  0.40826307669E+03  0.00000000000E+00 0.  1.
         21    1    1    2  503  505  0.67607668666E+02 -0.54605836688E+01  0.69757174935E+02  0.97296856534E+02  0.00000000000E+00 0. -1.
         21    1    1    2  504  506  0.13460146277E+01  0.10271385348E+03  0.26245942384E+02  0.10602262468E+03  0.00000000000E+00 0. -1.
         21    1    1    2  505  502 -0.21483834812E+02 -0.62564421878E+02 -0.34516893384E+03  0.35145050139E+03  0.00000000000E+00 0.  1.
         21    1    1    2  506  501 -0.47469848482E+02 -0.34688847930E+02  0.13098065382E+03  0.14357100808E+03  0.00000000000E+00 0. -1.
<scales pt_clust_3="48.29016" pt_clust_4="67.59105" pt_clust_5="14000.00000" pt_clust_6="58.79373"></scales>
<clustering>
<clus scale="   58.794">  1  6  2 -1</clus>
<clus scale="   48.290">  1  3  2 -1</clus>
<clus scale="   67.591">  1  4  2 -1</clus>
<clus scale="   58.794">  1  3  2 -1</clus>
</clustering>
</event>
<event>
 6    0  0.1463946E+003  0.1074356E+03  0.7546771E-02  0.1265394E+00
         21   -1    0    0  505  501  0.00000000000E+00  0.00000000000E+00  0.36216647509E+03  0.36216647509E+03  0.00000000000E+00 0.  1.
         21   -1    0    0  504  502 -0.00000000000E+00 -0.00000000000E+00 -0.22935916018E+03  0.22935916018E+03  0.00000000000E+00 0.  1.
         21    1    1    2  503  502 -0.42284930508E+02 -0.13418274643E+02 -0.70162278426E+02  0.83010907455E+02  0.00000000000E+00 0. -1.
         21    1    1    2  504  501  0.89299752157E+02  0.12019208000E+03 -0.50242712534E+02  0.15793958336E+03  0.00000000000E+00 0.  1.
         21    1    1    2  505  506 -0.45769069883E+02 -0.22217700047E+02  0.26075702087E+03  0.26567396916E+03  0.00000000000E+00 0.  1.
         21    1    1    2  506  503 -0.12457517663E+01 -0.84556105305E+02 -0.75447150017E+01  0.84901175293E+02  0.00000000000E+00 0.  1.
<scales pt_clust_3="44.36288" pt_clust_4="14000.00000" pt_clust_5="51.58321" pt_clust_6="107.43564"></scales>
<clustering>
<clus scale="   44.363">  2  3  1 -1</clus>
<clus scale="   51.583">  1  5  2 -1</clus>
<clus scale="  107.436">  1  6  2 -1</clus>
<clus scale="   51.583">  1  3  2 -1</clus>
</clustering>
</event>
<event>
 6    0  0.1463946E+003  0.1513087E+03  0.7546771E-02  0.1198874E+00
         21   -1    0    0  505  501  0.00000000000E+00  0.00000000000E+00  0.16297734003E+03  0.16297734003E+03  0.00000000000E+00 0. -1.
         21   -1    0    0  506  502 -0.00000000000E+00 -0.00000000000E+00 -0.82295580929E+03  0.82295580929E+03  0.00000000000E+00 0. -1.
         21    1    1    2  503  504 -0.13403904549E+01  0.15200553786E+03 -0.13201502704E+03  0.20133416886E+03  0.00000000000E+00 0. -1.
         21    1    1    2  504  501  0.17123040697E+03 -0.96970172623E+02  0.18846791416E+02  0.19768224046E+03  0.00000000000E+00 0. -1.
         21    1    1    2  505  502 -0.40754000647E+02 -0.86537941957E+00 -0.27785718305E+02  0.49332378738E+02  0.00000000000E+00 0. -1.
         21    1    1    2  506  503 -0.12913601586E+03 -0.54169985814E+02 -0.51902451533E+03  0.53758436126E+03  0.00000000000E+00 0. -1.
<scales pt_clust_3="14000.00000" pt_clust_4="151.30870" pt_clust_5="40.76319" pt_clust_6="142.35217"></scales>
<clustering>
<clus scale="   40.763">  1  5  2 -1</clus>
<clus scale="  142.352">  2  6  1 -1</clus>
<clus scale="  151.309">  1  4  2 -1</clus>
<clus scale="   40.763">  1  3  2 -1</clus>
</clustering>
</event>
<event>
 6    0  0.1463946E+003  0.3171476E+03  0.7546771E-02  0.1076970E+00
         21   -1    0    0  504  501  0.00000000000E+00  0.00000000000E+00  0.36023188827E+03  0.36023188827E+03  0.00000000000E+00 0. -1.
         21   -1    0    0  505  502 -0.00000000000E+00 -0.00000000000E+00 -0.22505169969E+04  0.22505169969E+04  0.00000000000E+00 0. -1.
         21    1    1    2  503  501  0.70555689414E+02 -0.31355056583E+03  0.20460092703E+03  0.38099029119E+03  0.00000000000E+00 0. -1.
         21    1    1    2  504  506  0.14222108355E+03  0.28931111833E+03 -0.12681183260E+04  0.13084539917E+04  0.00000000000E+00 0. -1.
         21    1    1    2  505  503 -0.59441793867E+02 -0.10412980979E+03 -0.62801966923E+03  0.63936300260E+03  0.00000000000E+00 0.  1.
         21    1    1    2  506  502 -0.15333497910E+03  0.12836925729E+03 -0.19874804050E+03  0.28194159969E+03  0.00000000000E+00 0. -1.
<scales pt_clust_3="14000.00000" pt_clust_4="317.14760" pt_clust_5="119.90139" pt_clust_6="197.59468"></scales>
<clustering>
<clus scale="  119.901">  2  5  1 -1</clus>
<clus scale="  197.595">  2  6  1 -1</clus>
<clus scale="  317.148">  2  4  1 -1</clus>
<clus scale="  317.148">  1  3  2 -1</clus>
</clustering>
</event>
<event>
 6    0  0.1463946E+003  0.8101075E+02  0.7546771E-02  0.1326207E+00
         21   -1    0    0  503  501  0.00000000000E+00  0.00000000000E+00  0.21311022792E+03  0.21311022792E+03  0.00000000000E+00 0. -1.
         21   -1    0    0  504  502 -0.00000000000E+00 -0.00000000000E+00 -0.29436756909E+03  0.29436756909E+03  0.00000000000E+00 0. -1.
         21    1    1    2  503  506 -0.70048060066E+02  0.63102024469E+01  0.20550643450E+02  0.73272630089E+02  0.00000000000E+00 0. -1.
         21    1    1    2  504  505  0.97615026161E+02  0.81788287073E+01 -0.19003138741E+03  0.21379315885E+03  0.00000000000E+00 0. -1.
         21    1    1    2  505  501  0.28065729764E+02  0.14007040311E+02  0.13736546682E+03  0.14090122015E+03  0.00000000000E+00 0. -1.
         21    1    1    2  506  502 -0.55632695859E+02 -0.28496071465E+02 -0.49142064039E+02  0.79510787920E+02  0.00000000000E+00 0.  1.
<scales pt_clust_3="54.41441" pt_clust_4="81.01075" pt_clust_5="31.36690" pt_clust_6="14000.00000"></scales>
<clustering>
<clus scale="   31.367">  1  5  2 -1</clus>
<clus scale="   54.414">  1  3  2 -1</clus>
<clus scale="   81.011">  2  4  1 -1</clus>
<clus scale="   31.367">  1  3  2 -1</clus>
</clustering>
</event>
<event>
 6    0  0.1463946E+003  0.1115946E+03  0.7546771E-02  0.1257645E+00
         21   -1    0    0  505  501  0.00000000000E+00  0.00000000000E+00  0.16816325515E+03  0.16816325515E+03  0.00000000000E+00 0. -1.
         21   -1    0    0  506  502 -0.00000000000E+00 -0.00000000000E+00 -0.23289348443E+03  0.23289348443E+03  0.00000000000E+00 0. -1.
         21    1    1    2  503  504 -0.50542954648E+02  0.33651938619E+02 -0.12676787884E+02  0.62030187718E+02  0.00000000000E+00 0. -1.
         21    1    1    2  504  501 -0.33498006074E+02 -0.84600274107E+02 -0.36453921025E+02  0.98021483094E+02  0.00000000000E+00 0. -1.
         21    1    1    2  505  502  0.13712635135E+03  0.45120358896E+02  0.53253874358E+02  0.15386831433E+03  0.00000000000E+00 0. -1.
         21    1    1    2  506  503 -0.53085390625E+02  0.58279765913E+01 -0.68853394727E+02  0.87136754440E+02  0.00000000000E+00 0. -1.
<scales pt_clust_3="72.39842" pt_clust_4="111.59460" pt_clust_5="14000.00000" pt_clust_6="53.40434"></scales>
<clustering>
<clus scale="   53.404">  2  6  1 -1</clus>
<clus scale="   72.398">  2  3  1 -1</clus>
<clus scale="  111.595">  2  4  1 -1</clus>
<clus scale="  111.595">  1  3  2 -1</clus>
</clustering>
</event>
<event>
 6    0  0.1463946E+003  0.1053176E+03  0.7546771E-02  0.1269495E+00
         21   -1    0    0  505  501  0.00000000000E+00  0.00000000000E+00  0.95153314331E+03  0.95153314331E+03  0.00000000000E+00 0.  1.
         21   -1    0    0  504  502 -0.00000000000E+00 -0.00000000000E+00 -0.77028910307E+03  0.77028910307E+03  0.00000000000E+00 0. -1.
         21    1    1    2  503  501  0.69846423938E+02  0.55074684615E+01  0.13522183067E+03  0.15229510378E+03  0.00000000000E+00 0.  1.
         21    1    1    2  504  503 -0.57011233232E+02 -0.90706602717E+02 -0.68841929954E+03  0.69670589238E+03  0.00000000000E+00 0. -1.
         21    1    1    2  505  506  0.19315128756E+02  0.26428756116E+02  0.78699619912E+03  0.78767669178E+03  0.00000000000E+00 0.  1.
         21    1    1    2  506  502 -0.32150319462E+02  0.58770378140E+02 -0.52554690010E+02  0.85144558430E+02  0.00000000000E+00 0.  1.
<scales pt_clust_3="105.31763" pt_clust_4="14000.00000" pt_clust_5="32.73459" pt_clust_6="68.43380"></scales>
<clustering>
<clus scale="   32.735">  1  5  2 -1</clus>
<clus scale="   68.434">  1  6  2 -1</clus>
<clus scale="  105.318">  1  3  2 -1</clus>
<clus scale="   32.735">  1  3  2 -1</clus>
</clustering>
</event>
<event>
 6    0  0.1463946E+003  0.9229626E+02  0.7546771E-02  0.1297384E+00
         21   -1    0    0  503  501  0.00000000000E+00  0.00000000000E+00  0.25929966138E+03  0.25929966138E+03  0.00000000000E+00 0. -1.
         21   -1    0    0  504  502 -0.00000000000E+00 -0.00000000000E+00 -0.24198314044E+03  0.24198314044E+03  0.00000000000E+00 0.  1.
         21    1    1    2  503  502  0.54723314452E+02  0.10859519991E+03 -0.13469721743E+03  0.18146872725E+03  0.00000000000E+00 0.  1.
         21    1    1    2  504  506 -0.28330536063E+02 -0.33542608098E+02 -0.36880126725E+02  0.57339947496E+02  0.00000000000E+00 0.  1.
         21    1    1    2  505  501  0.91756296966E+01  0.49271676900E+02  0.33360945381E+02  0.60206669079E+02  0.00000000000E+00 0.  1.
         21    1    1    2  506  505 -0.35568408085E+02 -0.12432426871E+03  0.15553291971E+03  0.20226745799E+03  0.00000000000E+00 0. -1.
<scales pt_clust_3="14000.00000" pt_clust_4="43.90587" pt_clust_5="47.51368" pt_clust_6="92.29626"></scales>
<clustering>
<clus scale="   43.906">  2  4  1 -1</clus>
<clus scale="   47.514">  1  5  2 -1</clus>
<clus scale="   92.296">  1  6  2 -1</clus>
<clus scale="   47.514">  1  3  2 -1</clus>
</clustering>
</event>
<event>
 6    0  0.1463946E+003  0.1660176E+03  0.7546771E-02  0.1182066E+00
         21   -1    0    0  503  501  0.00000000000E+00  0.00000000000E+00  0.16306402703E+04  0.16306402703E+04  0.00000000000E+00 0.  1.
         21   -1    0    0  505  502 -0.00000000000E+00 -0.00000000000E+00 -0.22220319801E+02  0.22220319801E+02  0.00000000000E+00 0.  1.
         21    1    1    2  503  504 -0.60875554135E+02 -0.54198623934E+02  0.37087896598E+03  0.37972955025E+03  0.00000000000E+00 0.  1.
         21    1    1    2  504  502 -0.16422886720E+02 -0.89361436944E+02  0.24250672092E+03  0.25896850641E+03  0.00000000000E+00 0.  1.
         21    1    1    2  505  506  0.10346094472E+03  0.93244348424E+02  0.71757200833E+03  0.73096392711E+03  0.00000000000E+00 0.  1.
         21    1    1    2  506  501 -0.26162503870E+02  0.50315712454E+02  0.27746225527E+03  0.28319860633E+03  0.00000000000E+00 0.  1.
<scales pt_clust_3="69.87200" pt_clust_4="69.87200" pt_clust_5="149.84388" pt_clust_6="56.71109"></scales>
<clustering>
<clus scale="   56.711">  1  6  2 -1</clus>
<clus scale="   69.872">  3  4 -1 -1</clus>
<clus scale="  149.844">  1  5  2 -1</clus>
<clus scale="   56.711">  1  3  2 -1</clus>
</clustering>
</event>
<event>
 6    0  0.1463946E+003  0.3181451E+03  0.7546771E-02  0.1076506E+00
         21   -1    0    0  505  501  0.00000000000E+00  0.00000000000E+00  0.41706508456E+03  0.41706508456E+03  0.00000000000E+00 0.  1.
         21   -1    0    0  506  502 -0.00000000000E+00 -0.00000000000E+00 -0.12011830410E+04  0.12011830410E+04  0.00000000000E+00 0.  1.
         21    1    1    2  503  502  0.35995454625E+02 -0.27123963318E+02 -0.45586633919E+02  0.64105563969E+02  0.00000000000E+00 0.  1.
         21    1    1    2  504  503  0.22740004579E+03 -0.15067658874E+03 -0.10118880099E+04  0.10480131487E+04  0.00000000000E+00 0.  1.
         21    1    1    2  505  504 -0.31161477351E+03  0.19982770956E+03  0.21856492360E+03  0.42989010968E+03  0.00000000000E+00 0.  1.
         21    1    1    2  506  501  0.48219273099E+02 -0.22027157502E+02  0.54791763828E+02  0.76239303179E+02  0.00000000000E+00 0.  1.
<scales pt_clust_3="45.07086" pt_clust_4="14000.00000" pt_clust_5="318.14512" pt_clust_6="53.42400"></scales>
<clustering>
<clus scale="   45.071">  2  3  1 -1</clus>
<clus scale="   53.424">  1  6  2 -1</clus>
<clus scale="  318.145">  1  5  2 -1</clus>
<clus scale="   53.424">  1  3  2 -1</clus>
</clustering>
</event>
<event>
 6    0  0.1463946E+003  0.1466963E+03  0.7546771E-02  0.1204592E+00
         21   -1    0    0  506  501  0.00000000000E+00  0.00000000000E+00  0.21109781351E+03  0.21109781351E+03  0.00000000000E+00 0. -1.
         21   -1    0    0  505  502 -0.00000000000E+00 -0.00000000000E+00 -0.49414129564E+03  0.49414129564E+03  0.00000000000E+00 0. -1.
         21    1    1    2  503  501  0.12296373656E+03  0.50773409574E+02  0.32737517788E+02  0.13700279085E+03  0.00000000000E+00 0. -1.
         21    1    1    2  504  502 -0.14483431021E+02  0.31028178824E+02 -0.25656864243E+03  0.25884355494E+03  0.00000000000E+00 0. -1.
         21    1    1    2  505  503 -0.13975639468E+03 -0.52873824379E+02 -0.14837370362E+03  0.21057598885E+03  0.00000000000E+00 0. -1.
         21    1    1    2  506  504  0.31276089135E+02 -0.28927764020E+02  0.89161346128E+02  0.98816774518E+02  0.00000000000E+00 0. -1.
<scales pt_clust_3="146.69626" pt_clust_4="34.24205" pt_clust_5="14000.00000" pt_clust_6="41.95646"></scales>
<clustering>
<clus scale="   34.242">  2  4  1 -1</clus>
<clus scale="   41.956">  1  6  2 -1</clus>
<clus scale="  146.696">  1  3  2 -1</clus>
<clus scale="   41.956">  1  3  2 -1</clus>
</clustering>
</event>
<event>
 6    0  0.1463946E+003  0.9193983E+02  0.7546771E-02  0.1298221E+00
         21   -1    0    0  503  501  0.00000000000E+00  0.00000000000E+00  0.19968942072E+04  0.19968942072E+04  0.00000000000E+00 0. -1.
         21   -1    0    0  505  502 -0.00000000000E+00 -0.00000000000E+00 -0.50050181611E+02  0.50050181611E+02  0.00000000000E+00 0. -1.
         21    1    1    2  503  504  0.37075859407E+02  0.12711622373E+00  0.16704732303E+03  0.17111237138E+03  0.00000000000E+00 0. -1.
         21    1    1    2  504  502  0.11564580146E+02  0.80987914604E+02  0.36421268324E+03  0.37328763770E+03  0.00000000000E+00 0. -1.
         21    1    1    2  505  506 -0.35285801783E+02  0.17868224991E+02 -0.32394587151E+02  0.51125048151E+02  0.00000000000E+00 0. -1.
         21    1    1    2  506  501 -0.13354637770E+02 -0.98983255818E+02  0.14479786065E+04  0.14514193316E+04  0.00000000000E+00 0. -1.
<scales pt_clust_3="37.07608" pt_clust_4="14000.00000" pt_clust_5="39.38292" pt_clust_6="91.93983"></scales>
<clustering>
<clus scale="   37.076">  1  3  2 -1</clus>
<clus scale="   39.383">  2  5  1 -1</clus>
<clus scale="   91.940">  1  6  2 -1</clus>
<clus scale="   37.076">  1  3  2 -1</clus>
</clustering>
</event>
<event>
 6    0  0.1463946E+003  0.1060298E+03  0.7546771E-02  0.1268104E+00
         21   -1    0    0  503  501  0.00000000000E+00  0.00000000000E+00  0.11538174202E+04  0.11538174202E+04  0.00000000000E+00 0. -1.
         21   -1    0    0  505  502 -0.00000000000E+00 -0.00000000000E+00 -0.84953971358E+03  0.84953971358E+03  0.00000000000E+00 0. -1.
         21    1    1    2  503  502  0.79573868931E+02  0.19432696603E+01 -0.25435430351E+03  0.26651808311E+03  0.00000000000E+00 0. -1.
         21    1    1    2  504  501 -0.24584221300E+02  0.63955710949E+02  0.10759805053E+04  0.10781598975E+04  0.00000000000E+00 0. -1.
         21    1    1    2  505  506  0.33898157484E+02  0.94446664733E+01 -0.53901166914E+03  0.54015911199E+03  0.00000000000E+00 0. -1.
         21    1    1    2  506  504 -0.88887805115E+02 -0.75343647083E+02  0.21663174017E+02  0.11852004118E+03  0.00000000000E+00 0.  1.
<scales pt_clust_3="106.02978" pt_clust_4="68.50635" pt_clust_5="35.18930" pt_clust_6="14000.00000"></scales>
<clustering>
<clus scale="   35.189">  2  5  1 -1</clus>
<clus scale="   68.506">  1  4  2 -1</clus>
<clus scale="  106.030">  2  3  1 -1</clus>
<clus scale="   68.506">  1  3  2 -1</clus>
</clustering>
</event>
<event>
 6    0  0.1463946E+003  0.1207021E+03  0.7546771E-02  0.1241943E+00
         21   -1    0    0  503  501  0.00000000000E+00  0.00000000000E+00  0.21062131950E+04  0.21062131950E+04  0.00000000000E+00 0. -1.
         21   -1    0    0  504  502 -0.00000000000E+00 -0.00000000000E+00 -0.79540113575E+02  0.79540113575E+02  0.00000000000E+00 0. -1.
         21    1    1    2  503  506  0.31125900067E+02 -0.81661376589E+01  0.19950101794E+03  0.20207959723E+03  0.00000000000E+00 0. -1.
         21    1    1    2  504  505  0.70935380062E+02 -0.78447872580E+02 -0.19030122977E+02  0.10746181851E+03  0.00000000000E+00 0. -1.
         21    1    1    2  505  501 -0.73571809051E+02  0.12146053050E+03  0.18170391505E+04  0.18225796954E+04  0.00000000000E+00 0. -1.
         21    1    1    2  506  502 -0.28489471078E+02 -0.34846520261E+02  0.29163035951E+02  0.53632197442E+02  0.00000000000E+00 0.  1.
<scales pt_clust_3="32.17930" pt_clust_4="120.70213" pt_clust_5="14000.00000" pt_clust_6="44.72417"></scales>
<clustering>
<clus scale="   32.179">  1  3  2 -1</clus>
<clus scale="   44.724">  2  6  1 -1</clus>
<clus scale="  120.702">  2  4  1 -1</clus>
<clus scale="   32.179">  1  3  2 -1</clus>
</clustering>
</event>
<event>
 6    0  0.1463946E+003  0.1063681E+03  0.7546771E-02  0.1267447E+00
         21   -1    0    0  503  501  0.00000000000E+00  0.00000000000E+00  0.79997026356E+03  0.79997026356E+03  0.00000000000E+00 0.  1.
         21   -1    0    0  505  502 -0.00000000000E+00 -0.00000000000E+00 -0.11667114956E+03  0.11667114956E+03  0.00000000000E+00 0.  1.
         21    1    1    2  503  502 -0.70674726690E+02 -0.78560199925E+02  0.32493901585E+03  0.34168989746E+03  0.00000000000E+00 0.  1.
         21    1    1    2  504  501  0.14881047150E+03  0.17210464777E+02  0.38497038174E+03  0.41308951977E+03  0.00000000000E+00 0.  1.
         21    1    1    2  505  506  0.33013919299E+02  0.38983456364E+01  0.27078454820E+01  0.33353386535E+02  0.00000000000E+00 0.  1.
         21    1    1    2  506  504 -0.11114966411E+03  0.57451389512E+02 -0.29318129067E+02  0.12850860937E+03  0.00000000000E+00 0.  1.
<scales pt_clust_3="103.62389" pt_clust_4="14000.00000" pt_clust_5="33.24328" pt_clust_6="106.36810"></scales>
<clustering>
<clus scale="   33.243">  2  5  1 -1</clus>
<clus scale="  103.624">  1  3  2 -1</clus>
<clus scale="  106.368">  2  6  1 -1</clus>
<clus scale="  103.624">  1  3  2 -1</clus>
</clustering>
</event>
<event>
 6    0  0.1463946E+003  0.9224981E+02  0.7546771E-02  0.1297493E+00
         21   -1    0    0  506  501  0.00000000000E+00  0.00000000000E+00  0.59630117267E+03  0.59630117267E+03  0.00000000000E+00 0. -1.
         21   -1    0    0  505  502 -0.00000000000E+00 -0.00000000000E+00 -0.13085443001E+03  0.13085443001E+03  0.00000000000E+00 0. -1.
         21    1    1    2  503  502 -0.37051162636E+01 -0.31297388343E+02 -0.57526124179E+02  0.65593516194E+02  0.00000000000E+00 0. -1.
         21    1    1    2  504  503  0.62317256026E+02 -0.46351791054E+02 -0.23353570828E+02  0.81100667093E+02  0.00000000000E+00 0. -1.
         21    1    1    2  505  501 -0.10994620891E+03  0.32828803921E+02  0.43547476023E+03  0.45033783543E+03  0.00000000000E+00 0. -1.
         21    1    1    2  506  504  0.51334069144E+02  0.44820375476E+02  0.11085167744E+03  0.13012358397E+03  0.00000000000E+00 0.  1.
<scales pt_clust_3="31.51594" pt_clust_4="92.24981" pt_clust_5="14000.00000" pt_clust_6="64.96332"></scales>
<clustering>
<clus scale="   31.516">  2  3  1 -1</clus>
<clus scale="   64.963">  1  6  2 -1</clus>
<clus scale="   92.250">  2  4  1 -1</clus>
<clus scale="   64.963">  1  3  2 -1</clus>
</clustering>
</event>
<event>
 6    0  0.1463946E+003  0.2653102E+03  0.7546771E-02  0.1103994E+00
         21   -1    0    0  503  501  0.00000000000E+00  0.00000000000E+00  0.81688462067E+03  0.81688462067E+03  0.00000000000E+00 0. -1.
         21   -1    0    0  506  502 -0.00000000000E+00 -0.00000000000E+00 -0.18944286065E+04  0.18944286065E+04  0.00000000000E+00 0.  1.
         21    1    1    2  503  505  0.70495786375E+02  0.11584567394E+03 -0.65045556753E+02  0.15040212937E+03  0.00000000000E+00 0. -1.
         21    1    1    2  504  501  0.61977406950E+01  0.41473435677E+02  0.55885902214E+03  0.56043007100E+03  0.00000000000E+00 0. -1.
         21    1    1    2  505  502  0.25560614477E+03  0.47997555343E+02 -0.15883481425E+04  0.16094993284E+04  0.00000000000E+00 0.  1.
         21    1    1    2  506  504 -0.33229967184E+03 -0.20531666496E+03  0.16990691314E+02  0.39098169830E+03  0.00000000000E+00 0. -1.
<scales pt_clust_3="142.04744" pt_clust_4="41.93397" pt_clust_5="265.31022" pt_clust_6="14000.00000"></scales>
<clustering>
<clus scale="   41.934">  1  4  2 -1</clus>
<clus scale="  142.047">  1  3  2 -1</clus>
<clus scale="  265.310">  2  5  1 -1</clus>
<clus scale="   41.934">  1  3  2 -1</clus>
</clustering>
</event>
<event>
 6    0  0.1463946E+003  0.8923392E+02  0.7546771E-02  0.1304718E+00
         21   -1    0    0  503  501  0.00000000000E+00  0.00000000000E+00  0.34758042502E+03  0.34758042502E+03  0.00000000000E+00 0.  1.
         21   -1    0    0  505  502 -0.00000000000E+00 -0.00000000000E+00 -0.22911979419E+03  0.22911979419E+03  0.00000000000E+00 0.  1.
         21    1    1    2  503  506 -0.40015847561E+02 -0.82664803101E+02  0.21328497399E+03  0.23221803948E+03  0.00000000000E+00 0.  1.
         21    1    1    2  504  501  0.46914000090E+02  0.68872258009E+02  0.48996160860E+02  0.96669204542E+02  0.00000000000E+00 0. -1.
         21    1    1    2  505  504 -0.76529965893E+02 -0.16895464209E+02  0.72021376058E+01  0.78703006147E+02  0.00000000000E+00 0.  1.
         21    1    1    2  506  502  0.69631813364E+02  0.30688009301E+02 -0.15102264162E+03  0.16910996904E+03  0.00000000000E+00 0.  1.
<scales pt_clust_3="14000.00000" pt_clust_4="89.23392" pt_clust_5="40.49266" pt_clust_6="76.09431"></scales>
<clustering>
<clus scale="   76.094">  2  6  1 -1</clus>
<clus scale="   40.493">  2  5  1 -1</clus>
<clus scale="   89.234">  2  4  1 -1</clus>
<clus scale="   89.234">  1  3  2 -1</clus>
</clustering>
</event>
<event>
 6    0  0.1463946E+003  0.8281045E+02  0.7546771E-02  0.1321260E+00
         21   -1    0    0  504  501  0.00000000000E+00  0.00000000000E+00  0.29343944347E+03  0.29343944347E+03  0.00000000000E+00 0. -1.
         21   -1    0    0  503  502 -0.00000000000E+00 -0.00000000000E+00 -0.57894529402E+03  0.57894529402E+03  0.00000000000E+00 0. -1.
         21    1    1    2  503  505  0.40030998041E+01  0.49785508174E+02 -0.45764895299E+03  0.46036636042E+03  0.00000000000E+00 0. -1.
         21    1    1    2  504  506  0.62558152049E+00  0.36045009820E+02  0.21016928964E+03  0.21323874974E+03  0.00000000000E+00 0. -1.
         21    1    1    2  505  501  0.45535293452E+02 -0.11533477039E+03  0.84728891597E+01  0.12428741715E+03  0.00000000000E+00 0. -1.
         21    1    1    2  506  502 -0.50163974777E+02  0.29504252393E+02 -0.46499076364E+02  0.74492210180E+02  0.00000000000E+00 0. -1.
<scales pt_clust_3="50.54429" pt_clust_4="36.05044" pt_clust_5="14000.00000" pt_clust_6="82.81045"></scales>
<clustering>
<clus scale="   36.050">  1  4  2 -1</clus>
<clus scale="   50.544">  2  3  1 -1</clus>
<clus scale="   82.810">  2  6  1 -1</clus>
<clus scale="   36.050">  1  3  2 -1</clus>
</clustering>
</event>
<event>
 6    0  0.1463946E+003  0.1076747E+03  0.7546771E-02  0.1264938E+00
         21   -1    0    0  506  501  0.00000000000E+00  0.00000000000E+00  0.19866788766E+03  0.19866788766E+03  0.00000000000E+00 0. -1.
         21   -1    0    0  505  502 -0.00000000000E+00 -0.00000000000E+00 -0.20205050155E+03  0.20205050155E+03  0.00000000000E+00 0. -1.
         21    1    1    2  503  502  0.10052310154E+02 -0.38785691994E+02 -0.12989708001E+03  0.13593612558E+03  0.00000000000E+00 0. -1.
         21    1    1    2  504  501  0.37941575194E+02 -0.13121006822E+02  0.63015587917E+02  0.74717389333E+02  0.00000000000E+00 0. -1.
         21    1    1    2  505  504  0.41570187033E+02 -0.33810129716E+02  0.30995700251E+02  0.61902655480E+02  0.00000000000E+00 0. -1.
         21    1    1    2  506  503 -0.89564072381E+02  0.85716828533E+02  0.32503177957E+02  0.12816221882E+03  0.00000000000E+00 0. -1.
<scales pt_clust_3="40.06718" pt_clust_4="31.23603" pt_clust_5="31.23603" pt_clust_6="101.44743"></scales>
<clustering>
<clus scale="   31.236">  4  5 -1 -1</clus>
<clus scale="   40.067">  2  3  1 -1</clus>
<clus scale="  101.447">  2  6  1 -1</clus>
<clus scale="  107.675">  1  3  2 -1</clus>
</clustering>
</event>
<event>
 6    0  0.1463946E+003  0.7197262E+02  0.7546771E-02  0.1353511E+00
         21   -1    0    0  505  501  0.00000000000E+00  0.00000000000E+00  0.82303030819E+03  0.82303030819E+03  0.00000000000E+00 0.  1.
         21   -1    0    0  503  502 -0.00000000000E+00 -0.00000000000E+00 -0.15575591359E+03  0.15575591359E+03  0.00000000000E+00 0.  1.
         21    1    1    2  503  501 -0.25230289538E+02 -0.41978649255E+02 -0.13258530891E+02  0.50740153181E+02  0.00000000000E+00 0.  1.
         21    1    1    2  504  506  0.91485224593E+02  0.32704796312E+01  0.48370178664E+02  0.10353702980E+03  0.00000000000E+00 0.  1.
         21    1    1    2  505  504 -0.28204166343E+02 -0.31705363743E+02  0.71094091039E+03  0.71220620831E+03  0.00000000000E+00 0.  1.
         21    1    1    2  506  502 -0.38050768712E+02  0.70413533367E+02 -0.78778163563E+02  0.11230283049E+03  0.00000000000E+00 0.  1.
<scales pt_clust_3="56.00509" pt_clust_4="71.97262" pt_clust_5="42.43472" pt_clust_6="14000.00000"></scales>
<clustering>
<clus scale="   42.435">  1  5  2 -1</clus>
<clus scale="   56.005">  2  3  1 -1</clus>
<clus scale="   71.973">  1  4  2 -1</clus>
<clus scale="   42.435">  1  3  2 -1</clus>
</clustering>
</event>
<event>
 6    0  0.1463946E+003  0.2380987E+03  0.7546771E-02  0.1121066E+00
         21   -1    0    0  503  501  0.00000000000E+00  0.00000000000E+00  0.21462772149E+04  0.21462772149E+04  0.00000000000E+00 0. -1.
         21   -1    0    0  504  502 -0.00000000000E+00 -0.00000000000E+00 -0.97341647431E+02  0.97341647431E+02  0.00000000000E+00 0. -1.
         21    1    1    2  503  506  0.31337215821E+02  0.30407209944E+02  0.29765629158E+03  0.30084196421E+03  0.00000000000E+00 0. -1.
         21    1    1    2  504  505 -0.18302547621E+03 -0.84011604191E+02  0.50125968072E+03  0.54020139031E+03  0.00000000000E+00 0. -1.
         21    1    1    2  505  501 -0.66070668140E+02 -0.76821281138E+02  0.11062035241E+04  0.11108344068E+04  0.00000000000E+00 0. -1.
         21    1    1    2  506  502  0.21775892853E+03  0.13042567538E+03  0.14381607103E+03  0.29174110105E+03  0.00000000000E+00 0. -1.
<scales pt_clust_3="43.66485" pt_clust_4="238.09865" pt_clust_5="75.26280" pt_clust_6="14000.00000"></scales>
<clustering>
<clus scale="   43.665">  1  3  2 -1</clus>
<clus scale="   75.263">  1  5  2 -1</clus>
<clus scale="  238.099">  1  4  2 -1</clus>
<clus scale="   43.665">  1  3  2 -1</clus>
</clustering>
</event>
<event>
 6    0  0.1463946E+003  0.1204927E+03  0.7546771E-02  0.1242286E+00
         21   -1    0    0  503  501  0.00000000000E+00  0.00000000000E+00  0.20699628698E+03  0.20699628698E+03  0.00000000000E+00 0.  1.
         21   -1    0    0  505  502 -0.00000000000E+00 -0.00000000000E+00 -0.14217366181E+04  0.14217366181E+04  0.00000000000E+00 0. -1.
         21    1    1    2  503  504  0.28987857040E+02  0.10401790086E+03  0.54682642947E+02  0.12103805597E+03  0.00000000000E+00 0.  1.
         21    1    1    2  504  506 -0.53901896513E+02 -0.59184311655E+02 -0.19650129141E+03  0.21218141936E+03  0.00000000000E+00 0.  1.
         21    1    1    2  505  501  0.35466816291E+02  0.16578595944E+02  0.10700519235E+03  0.11394233670E+03  0.00000000000E+00 0.  1.
         21    1    1    2  506  502 -0.10552776817E+02 -0.61412185146E+02 -0.11799268750E+04  0.11815710931E+04  0.00000000000E+00 0. -1.
<scales pt_clust_3="14000.00000" pt_clust_4="120.49272" pt_clust_5="39.15029" pt_clust_6="62.12254"></scales>
<clustering>
<clus scale="   39.150">  1  5  2 -1</clus>
<clus scale="   62.123">  2  6  1 -1</clus>
<clus scale="  120.493">  2  4  1 -1</clus>
<clus scale="   39.150">  1  3  2 -1</clus>
</clustering>
</event>
<event>
 6    0  0.1463946E+003  0.8389075E+02  0.7546771E-02  0.1318359E+00
         21   -1    0    0  505  501  0.00000000000E+00  0.00000000000E+00  0.21814556559E+03  0.21814556559E+03  0.00000000000E+00 0.  1.
         21   -1    0    0  503  502 -0.00000000000E+00 -0.00000000000E+00 -0.10091787730E+04  0.10091787730E+04  0.00000000000E+00 0. -1.
         21    1    1    2  503  501 -0.42594869794E+02 -0.46791784431E+02 -0.97506549496E+02  0.11623820894E+03  0.00000000000E+00 0. -1.
         21    1    1    2  504  502 -0.38929991639E+02 -0.37374381119E+02 -0.86019338788E+03  0.86188459388E+03  0.00000000000E+00 0. -1.
         21    1    1    2  505  506  0.11036307620E+02  0.86545345545E+02  0.15478314845E+03  0.17767869868E+03  0.00000000000E+00 0.  1.
         21    1    1    2  506  504  0.70488553813E+02 -0.23791799961E+01  0.11883581522E+02  0.71522837094E+02  0.00000000000E+00 0. -1.
<scales pt_clust_3="83.89075" pt_clust_4="53.96655" pt_clust_5="14000.00000" pt_clust_6="63.42992"></scales>
<clustering>
<clus scale="   53.967">  2  4  1 -1</clus>
<clus scale="   63.430">  2  6  1 -1</clus>
<clus scale="   83.891">  2  3  1 -1</clus>
<clus scale="   83.891">  1  3  2 -1</clus>
</clustering>
</event>
<event>
 6    0  0.1463946E+003  0.2543150E+03  0.7546771E-02  0.1110608E+00
         21   -1    0    0  506  501  0.00000000000E+00  0.00000000000E+00  0.65285366734E+03  0.65285366734E+03  0.00000000000E+00 0.  1.
         21   -1    0    0  504  502 -0.00000000000E+00 -0.00000000000E+00 -0.25780229737E+04  0.25780229737E+04  0.00000000000E+00 0.  1.
         21    1    1    2  503  502  0.30470449284E+02  0.18730540850E+02 -0.31011826279E+03  0.31217401935E+03  0.00000000000E+00 0. -1.
         21    1    1    2  504  501 -0.52692826957E+02 -0.27393635334E+03 -0.21864678250E+04  0.22041912824E+04  0.00000000000E+00 0.  1.
         21    1    1    2  505  503  0.74160269467E+02  0.19883349647E+03  0.95934576807E+02  0.23289042039E+03  0.00000000000E+00 0.  1.
         21    1    1    2  506  505 -0.51937891793E+02  0.56372316029E+02  0.47548220461E+03  0.48162091889E+03  0.00000000000E+00 0.  1.
<scales pt_clust_3="35.76704" pt_clust_4="14000.00000" pt_clust_5="254.31498" pt_clust_6="76.64176"></scales>
<clustering>
<clus scale="   35.767">  2  3  1 -1</clus>
<clus scale="   76.642">  1  6  2 -1</clus>
<clus scale="  254.315">  1  5  2 -1</clus>
<clus scale="   76.642">  1  3  2 -1</clus>
</clustering>
</event>
<event>
 6    0  0.1463946E+003  0.7028239E+02  0.7546771E-02  0.1359135E+00
         21   -1    0    0  504  501  0.00000000000E+00  0.00000000000E+00  0.12125387948E+04  0.12125387948E+04  0.00000000000E+00 0. -1.
         21   -1    0    0  506  502 -0.00000000000E+00 -0.00000000000E+00 -0.18695431613E+03  0.18695431613E+03  0.00000000000E+00 0. -1.
         21    1    1    2  503  505  0.64436400685E+02 -0.86534365273E+02  0.86119135392E+02  0.13804619367E+03  0.00000000000E+00 0. -1.
         21    1    1    2  504  502 -0.57965813270E+02  0.34809993772E+02  0.26792127237E+03  0.27632151448E+03  0.00000000000E+00 0. -1.
         21    1    1    2  505  501  0.34123742787E+02 -0.26000994929E+01  0.82062827477E+03  0.82134155848E+03  0.00000000000E+00 0. -1.
         21    1    1    2  506  503 -0.40594330202E+02  0.54324470994E+02 -0.14908420389E+03  0.16378384427E+03  0.00000000000E+00 0. -1.
<scales pt_clust_3="14000.00000" pt_clust_4="47.56361" pt_clust_5="34.22266" pt_clust_6="70.28239"></scales>
<clustering>
<clus scale="   34.223">  1  5  2 -1</clus>
<clus scale="   47.564">  1  4  2 -1</clus>
<clus scale="   70.282">  2  6  1 -1</clus>
<clus scale="   34.223">  1  3  2 -1</clus>
</clustering>
</event>
<event>
 6    0  0.1463946E+003  0.8089568E+02  0.7546771E-02  0.1326529E+00
         21   -1    0    0  505  501  0.00000000000E+00  0.00000000000E+00  0.69420432403E+03  0.69420432403E+03  0.00000000000E+00 0. -1.
         21   -1    0    0  504  502 -0.00000000000E+00 -0.00000000000E+00 -0.28050079973E+04  0.28050079973E+04  0.00000000000E+00 0. -1.
         21    1    1    2  503  502  0.73183680691E+00  0.40152672640E+02 -0.27759109123E+04  0.27762013915E+04  0.00000000000E+00 0. -1.
         21    1    1    2  504  501  0.19045154548E+02 -0.11187530564E+03  0.11891309702E+03  0.16437495723E+03  0.00000000000E+00 0. -1.
         21    1    1    2  505  506 -0.30137936569E+02  0.98324165168E+00  0.31986791244E+03  0.32128607719E+03  0.00000000000E+00 0. -1.
         21    1    1    2  506  503  0.10360945214E+02  0.70739391344E+02  0.22632622960E+03  0.23734989547E+03  0.00000000000E+00 0. -1.
<scales pt_clust_3="40.15951" pt_clust_4="80.89568" pt_clust_5="30.15397" pt_clust_6="14000.00000"></scales>
<clustering>
<clus scale="   30.154">  1  5  2 -1</clus>
<clus scale="   40.160">  2  3  1 -1</clus>
<clus scale="   80.896">  2  4  1 -1</clus>
<clus scale="   30.154">  1  3  2 -1</clus>
</clustering>
</event>
<event>
 6    0  0.1463946E+003  0.1190415E+03  0.7546771E-02  0.1244687E+00
         21   -1    0    0  503  501  0.00000000000E+00  0.00000000000E+00  0.11300235407E+03  0.11300235407E+03  0.00000000000E+00 0. -1.
         21   -1    0    0  506  502 -0.00000000000E+00 -0.00000000000E+00 -0.10322565895E+04  0.10322565895E+04  0.00000000000E+00 0.  1.
         21    1    1    2  503  504  0.15488656986E+03 -0.38319566648E+02  0.18915648218E+02  0.16067370805E+03  0.00000000000E+00 0. -1.
         21    1    1    2  504  502 -0.77665000220E+02  0.25419213348E+02 -0.78602712934E+03  0.79026365013E+03  0.00000000000E+00 0.  1.
         21    1    1    2  505  501 -0.50143579555E+02 -0.22679343110E+02 -0.26739769799E+02  0.61186162352E+02  0.00000000000E+00 0. -1.
         21    1    1    2  506  505 -0.27077990090E+02  0.35579696411E+02 -0.12540298454E+03  0.13313542307E+03  0.00000000000E+00 0.  1.
<scales pt_clust_3="119.04147" pt_clust_4="14000.00000" pt_clust_5="55.56175" pt_clust_6="44.71166"></scales>
<clustering>
<clus scale="   44.712">  2  6  1 -1</clus>
<clus scale="   55.562">  1  5  2 -1</clus>
<clus scale="  119.041">  1  3  2 -1</clus>
<clus scale="   55.562">  1  3  2 -1</clus>
</clustering>
</event>
<event>
 6    0  0.1463946E+003  0.9217769E+02  0.7546771E-02  0.1297662E+00
         21   -1    0    0  505  501  0.00000000000E+00  0.00000000000E+00  0.31174690311E+03  0.31174690311E+03  0.00000000000E+00 0.  1.
         21   -1    0    0  504  502 -0.00000000000E+00 -0.00000000000E+00 -0.12639927726E+04  0.12639927726E+04  0.00000000000E+00 0. -1.
         21    1    1    2  503  506 -0.81617556051E+02 -0.54060710395E+02 -0.91302485430E+02  0.13386608872E+03  0.00000000000E+00 0. -1.
         21    1    1    2  504  501  0.43227216471E+02 -0.11064167472E+02  0.18004101874E+03  0.18548794159E+03  0.00000000000E+00 0.  1.
         21    1    1    2  505  503 -0.85583273288E+01  0.10098713955E+03  0.82908715337E+02  0.13094083550E+03  0.00000000000E+00 0.  1.
         21    1    1    2  506  502  0.46948666909E+02 -0.35862261684E+02 -0.11238931181E+04  0.11254448099E+04  0.00000000000E+00 0. -1.
<scales pt_clust_3="92.17769" pt_clust_4="44.62071" pt_clust_5="14000.00000" pt_clust_6="59.32571"></scales>
<clustering>
<clus scale="   44.621">  1  4  2 -1</clus>
<clus scale="   59.326">  2  6  1 -1</clus>
<clus scale="   92.178">  2  3  1 -1</clus>
<clus scale="   44.621">  1  3  2 -1</clus>
</clustering>
</event>
<event>
 6    0  0.1463946E+003  0.5957898E+02  0.7546771E-02  0.1399607E+00
         21   -1    0    0  503  501  0.00000000000E+00  0.00000000000E+00  0.36837074026E+03  0.36837074026E+03  0.00000000000E+00 0.  1.
         21   -1    0    0  504  502 -0.00000000000E+00 -0.00000000000E+00 -0.18888689178E+03  0.18888689178E+03  0.00000000000E+00 0.  1.
         21    1    1    2  503  505  0.32552951608E+02 -0.50088608159E+02  0.23399606135E+03  0.24150097319E+03  0.00000000000E+00 0.  1.
         21    1    1    2  504  506  0.33043131097E+02  0.29903586263E+02 -0.14477586375E+02  0.46858014163E+02  0.00000000000E+00 0. -1.
         21    1    1    2  505  502  0.24189118881E+02  0.57051324041E+02  0.88374120209E+02  0.10793494416E+03  0.00000000000E+00 0.  1.
         21    1    1    2  506  501 -0.89785201586E+02 -0.36866302145E+02 -0.12840874670E+03  0.16096370053E+03  0.00000000000E+00 0.  1.
<scales pt_clust_3="59.57898" pt_clust_4="44.56538" pt_clust_5="56.65494" pt_clust_6="14000.00000"></scales>
<clustering>
<clus scale="   44.565">  2  4  1 -1</clus>
<clus scale="   59.579">  1  3  2 -1</clus>
<clus scale="   56.655">  1  5  2 -1</clus>
<clus scale="   59.579">  1  3  2 -1</clus>
</clustering>
</event>
<event>
 6    0  0.1463946E+003  0.1096904E+03  0.7546771E-02  0.1261144E+00
         21   -1    0    0  504  501  0.00000000000E+00  0.00000000000E+00  0.13428205425E+03  0.13428205425E+03  0.00000000000E+00 0.  1.
         21   -1    0    0  503  502 -0.00000000000E+00 -0.00000000000E+00 -0.68026364373E+03  0.68026364373E+03  0.00000000000E+00 0.  1.
         21    1    1    2  503  505  0.35858192318E+02  0.13560252852E+03 -0.44053393808E+03  0.46232456813E+03  0.00000000000E+00 0.  1.
         21    1    1    2  504  502  0.18561021501E+02 -0.51348397038E+02 -0.61898200476E+02  0.82538213088E+02  0.00000000000E+00 0.  1.
         21    1    1    2  505  506  0.38378635199E+02 -0.13371398753E+03  0.28773405956E+02  0.14205723844E+03  0.00000000000E+00 0.  1.
         21    1    1    2  506  501 -0.92797849018E+02  0.49459856048E+02 -0.72322856880E+02  0.12762567833E+03  0.00000000000E+00 0.  1.
<scales pt_clust_3="14000.00000" pt_clust_4="54.60009" pt_clust_5="109.69041" pt_clust_6="98.67506"></scales>
<clustering>
<clus scale="   54.600">  2  4  1 -1</clus>
<clus scale="   98.675">  1  6  2 -1</clus>
<clus scale="  109.690">  1  5  2 -1</clus>
<clus scale="   98.675">  1  3  2 -1</clus>
</clustering>
</event>
<event>
 6    0  0.1463946E+003  0.1022357E+03  0.7546771E-02  0.1275664E+00
         21   -1    0    0  503  501  0.00000000000E+00  0.00000000000E+00  0.61293953861E+03  0.61293953861E+03  0.00000000000E+00 0.  1.
         21   -1    0    0  505  502 -0.00000000000E+00 -0.00000000000E+00 -0.53871897341E+03  0.53871897341E+03  0.00000000000E+00 0.  1.
         21    1    1    2  503  506  0.42644104366E+02  0.13968204395E+02  0.31836023902E+03  0.32150718834E+03  0.00000000000E+00 0.  1.
         21    1    1    2  504  501 -0.15268559407E+03 -0.61328431620E+02  0.10354327870E+03  0.19441007620E+03  0.00000000000E+00 0.  1.
         21    1    1    2  505  504  0.50477319194E+02  0.87722819628E+02 -0.47707345164E+03  0.48769081506E+03  0.00000000000E+00 0.  1.
         21    1    1    2  506  502  0.59564170515E+02 -0.40362592402E+02  0.12939049912E+03  0.14805043241E+03  0.00000000000E+00 0.  1.
<scales pt_clust_3="44.87349" pt_clust_4="102.23574" pt_clust_5="14000.00000" pt_clust_6="86.60057"></scales>
<clustering>
<clus scale="   44.873">  1  3  2 -1</clus>
<clus scale="   86.601">  1  6  2 -1</clus>
<clus scale="  102.236">  1  4  2 -1</clus>
<clus scale="   44.873">  1  3  2 -1</clus>
</clustering>
</event>
<event>
 6    0  0.1463946E+003  0.9851231E+02  0.7546771E-02  0.1283456E+00
         21   -1    0    0  504  501  0.00000000000E+00  0.00000000000E+00  0.53567708501E+03  0.53567708501E+03  0.00000000000E+00 0.  1.
         21   -1    0    0  503  502 -0.00000000000E+00 -0.00000000000E+00 -0.17285655421E+03  0.17285655421E+03  0.00000000000E+00 0.  1.
         21    1    1    2  503  505  0.11907539518E+02 -0.97710893165E+02  0.39651041246E+02  0.10611980594E+03  0.00000000000E+00 0.  1.
         21    1    1    2  504  506  0.74065882226E+02  0.10217063574E+03  0.30101914344E+03  0.32640024270E+03  0.00000000000E+00 0.  1.
         21    1    1    2  505  501 -0.39902238278E+02 -0.64393931141E+02  0.12632644735E+03  0.14729948502E+03  0.00000000000E+00 0.  1.
         21    1    1    2  506  502 -0.46071183466E+02  0.59934188565E+02 -0.10417610123E+03  0.12871410557E+03  0.00000000000E+00 0.  1.
<scales pt_clust_3="64.23397" pt_clust_4="14000.00000" pt_clust_5="98.51231" pt_clust_6="75.59538"></scales>
<clustering>
<clus scale="   75.595">  2  6  1 -1</clus>
<clus scale="   64.234">  2  3  1 -1</clus>
<clus scale="   98.512">  1  5  2 -1</clus>
<clus scale="   98.512">  1  3  2 -1</clus>
</clustering>
</event>
<event>
 6    0  0.1463946E+003  0.8108700E+02  0.7546771E-02  0.1325995E+00
         21   -1    0    0  504  501  0.00000000000E+00  0.00000000000E+00  0.27421102872E+04  0.27421102872E+04  0.00000000000E+00 0.  1.
         21   -1    0    0  506  502 -0.00000000000E+00 -0.00000000000E+00 -0.22483951967E+02  0.22483951967E+02  0.00000000000E+00 0.  1.
         21    1    1    2  503  502  0.42900309029E+02 -0.10617417232E+02  0.16180193292E+02  0.47063411674E+02  0.00000000000E+00 0.  1.
         21    1    1    2  504  503  0.38675803527E+02  0.55529225410E+01  0.14953215576E+04  0.14958319469E+04  0.00000000000E+00 0.  1.
         21    1    1    2  505  501 -0.29629953593E+02  0.82570453985E+02  0.63445829020E+03  0.64049444652E+03  0.00000000000E+00 0.  1.
         21    1    1    2  506  505 -0.51946158963E+02 -0.77505959294E+02  0.57366629415E+03  0.58120443409E+03  0.00000000000E+00 0.  1.
<scales pt_clust_3="45.11472" pt_clust_4="39.07240" pt_clust_5="14000.00000" pt_clust_6="81.08700"></scales>
<clustering>
<clus scale="   39.072">  1  4  2 -1</clus>
<clus scale="   45.115">  2  3  1 -1</clus>
<clus scale="   81.087">  2  6  1 -1</clus>
<clus scale="   39.072">  1  3  2 -1</clus>
</clustering>
</event>
<event>
 6    0  0.1463946E+003  0.1354653E+03  0.7546771E-02  0.1219564E+00
         21   -1    0    0  505  501  0.00000000000E+00  0.00000000000E+00  0.42682032617E+03  0.42682032617E+03  0.00000000000E+00 0.  1.
         21   -1    0    0  503  502 -0.00000000000E+00 -0.00000000000E+00 -0.50808808398E+03  0.50808808398E+03  0.00000000000E+00 0.  1.
         21    1    1    2  503  501  0.66663450359E+02  0.51555855987E+02  0.34334331073E+03  0.35353451164E+03  0.00000000000E+00 0.  1.
         21    1    1    2  504  502  0.62915030028E+01 -0.29807104911E+02 -0.14908707383E+03  0.15216767757E+03  0.00000000000E+00 0.  1.
         21    1    1    2  505  506  0.23671285235E+01  0.89109214580E+02  0.31228567734E+02  0.94452521741E+02  0.00000000000E+00 0. -1.
         21    1    1    2  506  504 -0.75322081885E+02 -0.11085796566E+03 -0.30675256243E+03  0.33475369920E+03  0.00000000000E+00 0.  1.
<scales pt_clust_3="84.08541" pt_clust_4="30.46386" pt_clust_5="14000.00000" pt_clust_6="135.46531"></scales>
<clustering>
<clus scale="   30.464">  2  4  1 -1</clus>
<clus scale="   84.085">  1  3  2 -1</clus>
<clus scale="  135.465">  2  6  1 -1</clus>
<clus scale="   84.085">  1  3  2 -1</clus>
</clustering>
</event>
<event>
 6    0  0.1463946E+003  0.6345625E+02  0.7546771E-02  0.1383874E+00
         21   -1    0    0  505  501  0.00000000000E+00  0.00000000000E+00  0.44657990951E+03  0.44657990951E+03  0.00000000000E+00 0. -1.
         21   -1    0    0  503  502 -0.00000000000E+00 -0.00000000000E+00 -0.23555357464E+03  0.23555357464E+03  0.00000000000E+00 0.  1.
         21    1    1    2  503  501  0.41951981250E+02  0.47803507612E+02  0.15279523034E+03  0.16550385640E+03  0.00000000000E+00 0. -1.
         21    1    1    2  504  502  0.39872906586E+02 -0.78882793014E+01 -0.18054843227E+03  0.18506704198E+03  0.00000000000E+00 0.  1.
         21    1    1    2  505  506  0.17318237673E+02 -0.52926474313E+02  0.22359205740E+03  0.23042252749E+03  0.00000000000E+00 0. -1.
         21    1    1    2  506  504 -0.99143125508E+02  0.13011246002E+02  0.15187479412E+02  0.10114005828E+03  0.00000000000E+00 0. -1.
<scales pt_clust_3="63.45625" pt_clust_4="40.64571" pt_clust_5="57.02233" pt_clust_6="14000.00000"></scales>
<clustering>
<clus scale="   40.646">  2  4  1 -1</clus>
<clus scale="   57.022">  1  5  2 -1</clus>
<clus scale="   63.456">  1  3  2 -1</clus>
<clus scale="   57.022">  1  3  2 -1</clus>
</clustering>
</event>
<event>
 6    0  0.1463946E+003  0.1391277E+03  0.7546771E-02  0.1214507E+00
         21   -1    0    0  505  501  0.00000000000E+00  0.00000000000E+00  0.54916619541E+03  0.54916619541E+03  0.00000000000E+00 0. -1.
         21   -1    0    0  503  502 -0.00000000000E+00 -0.00000000000E+00 -0.14409381722E+03  0.14409381722E+03  0.00000000000E+00 0.  1.
         21    1    1    2  503  501 -0.28392645041E+02  0.68771325343E+02  0.32693128279E+03  0.33529047279E+03  0.00000000000E+00 0. -1.
         21    1    1    2  504  506 -0.65345644159E+02  0.46185357448E+02  0.72991051470E+02  0.10830897492E+03  0.00000000000E+00 0.  1.
         21    1    1    2  505  504  0.27183529327E+02  0.17420517959E+02  0.78099070137E+02  0.84509664944E+02  0.00000000000E+00 0. -1.
         21    1    1    2  506  502  0.66554759873E+02 -0.13237720075E+03 -0.72949026201E+02  0.16515089998E+03  0.00000000000E+00 0.  1.
<scales pt_clust_3="14000.00000" pt_clust_4="77.88268" pt_clust_5="32.28651" pt_clust_6="139.12774"></scales>
<clustering>
<clus scale="   32.287">  1  5  2 -1</clus>
<clus scale="   77.883">  1  4  2 -1</clus>
<clus scale="  139.128">  2  6  1 -1</clus>
<clus scale="   32.287">  1  3  2 -1</clus>
</clustering>
</event>
<event>
 6    0  0.1463946E+003  0.1033460E+03  0.7546771E-02  0.1273413E+00
         21   -1    0    0  506  501  0.00000000000E+00  0.00000000000E+00  0.13764963121E+04  0.13764963121E+04  0.00000000000E+00 0. -1.
         21   -1    0    0  501  502 -0.00000000000E+00 -0.00000000000E+00 -0.27683839816E+03  0.27683839816E+03  0.00000000000E+00 0. -1.
         21    1    1    2  503  504  0.13395554027E+03 -0.59236626927E+02  0.59137912453E+03  0.60924735015E+03  0.00000000000E+00 0. -1.
         21    1    1    2  504  505 -0.81252452143E+02 -0.12025330660E+02  0.65069292375E+02  0.10478827400E+03  0.00000000000E+00 0. -1.
         21    1    1    2  505  502 -0.12798191752E+02  0.60992095326E+02 -0.24350302059E+03  0.25135144806E+03  0.00000000000E+00 0. -1.
         21    1    1    2  506  503 -0.39904896374E+02  0.10269862261E+02  0.68671251761E+03  0.68794763803E+03  0.00000000000E+00 0. -1.
<scales pt_clust_3="103.34605" pt_clust_4="14000.00000" pt_clust_5="62.42463" pt_clust_6="41.20523"></scales>
<clustering>
<clus scale="   41.205">  1  6  2 -1</clus>
<clus scale="   62.425">  2  5  1 -1</clus>
<clus scale="  103.346">  1  3  2 -1</clus>
<clus scale="   41.205">  1  3  2 -1</clus>
</clustering>
</event>
<event>
 6    0  0.1463946E+003  0.7127618E+02  0.7546771E-02  0.1355806E+00
         21   -1    0    0  503  501  0.00000000000E+00  0.00000000000E+00  0.42353789913E+03  0.42353789913E+03  0.00000000000E+00 0.  1.
         21   -1    0    0  504  502 -0.00000000000E+00 -0.00000000000E+00 -0.36111664893E+03  0.36111664893E+03  0.00000000000E+00 0.  1.
         21    1    1    2  503  506 -0.53126427573E+02  0.43439305715E+02  0.29199747597E+03  0.29995319062E+03  0.00000000000E+00 0.  1.
         21    1    1    2  504  505  0.79659207453E+02  0.39207471823E+02 -0.21075396061E+03  0.22869203548E+03  0.00000000000E+00 0.  1.
         21    1    1    2  505  501  0.78906029285E+01 -0.31181403887E+02  0.10917960729E+03  0.11381883944E+03  0.00000000000E+00 0.  1.
         21    1    1    2  506  502 -0.34423382809E+02 -0.51465373651E+02 -0.12800187244E+03  0.14219048252E+03  0.00000000000E+00 0.  1.
<scales pt_clust_3="47.70094" pt_clust_4="14000.00000" pt_clust_5="32.16429" pt_clust_6="71.27618"></scales>
<clustering>
<clus scale="   32.164">  1  5  2 -1</clus>
<clus scale="   47.701">  1  3  2 -1</clus>
<clus scale="   71.276">  2  6  1 -1</clus>
<clus scale="   32.164">  1  3  2 -1</clus>
</clustering>
</event>
<event>
 6    0  0.1463946E+003  0.1034407E+03  0.7546771E-02  0.1273223E+00
         21   -1    0    0  504  501  0.00000000000E+00  0.00000000000E+00  0.59539914287E+03  0.59539914287E+03  0.00000000000E+00 0. -1.
         21   -1    0    0  506  502 -0.00000000000E+00 -0.00000000000E+00 -0.19346027997E+03  0.19346027997E+03  0.00000000000E+00 0. -1.
         21    1    1    2  503  505  0.13728019601E+01 -0.12503161080E+03  0.23345646557E+03  0.26483336195E+03  0.00000000000E+00 0. -1.
         21    1    1    2  504  503 -0.32494235134E+02  0.79384917113E+02  0.21146312434E+03  0.22819836401E+03  0.00000000000E+00 0. -1.
         21    1    1    2  505  502  0.95709036014E+02 -0.38086053710E+02  0.82324483671E+02  0.13186389830E+03  0.00000000000E+00 0. -1.
         21    1    1    2  506  501 -0.64587602840E+02  0.83732747395E+02 -0.12530521067E+03  0.16396379859E+03  0.00000000000E+00 0. -1.
<scales pt_clust_3="75.13096" pt_clust_4="85.77785" pt_clust_5="14000.00000" pt_clust_6="103.44068"></scales>
<clustering>
<clus scale="   85.778">  1  4  2 -1</clus>
<clus scale="   75.131">  1  3  2 -1</clus>
<clus scale="  103.441">  2  6  1 -1</clus>
<clus scale="   85.778">  1  3  2 -1</clus>
</clustering>
</event>
<event>
 6    0  0.1463946E+003  0.9167806E+02  0.7546771E-02  0.1298838E+00
         21   -1    0    0  506  501  0.00000000000E+00  0.00000000000E+00  0.37721424244E+03  0.37721424244E+03  0.00000000000E+00 0.  1.
         21   -1    0    0  501  502 -0.00000000000E+00 -0.00000000000E+00 -0.11683413373E+04  0.11683413373E+04  0.00000000000E+00 0. -1.
         21    1    1    2  503  504  0.34701753637E+02 -0.54099224532E+02  0.10772261851E+03  0.12543962826E+03  0.00000000000E+00 0.  1.
         21    1    1    2  504  505 -0.22895126142E+02  0.12252342954E+03  0.26505154334E+01  0.12467238194E+03  0.00000000000E+00 0.  1.
         21    1    1    2  505  502 -0.31137831742E+02 -0.39936837652E+02 -0.10963786545E+04  0.10975475706E+04  0.00000000000E+00 0. -1.
         21    1    1    2  506  503  0.19331204247E+02 -0.28487367352E+02  0.19487842577E+03  0.19789599892E+03  0.00000000000E+00 0.  1.
<scales pt_clust_3="14000.00000" pt_clust_4="91.67806" pt_clust_5="50.67535" pt_clust_6="34.42710"></scales>
<clustering>
<clus scale="   34.427">  1  6  2 -1</clus>
<clus scale="   50.675">  2  5  1 -1</clus>
<clus scale="   91.678">  2  4  1 -1</clus>
<clus scale="   34.427">  1  3  2 -1</clus>
</clustering>
</event>
<event>
 6    0  0.1463946E+003  0.2011969E+03  0.7546771E-02  0.1148733E+00
         21   -1    0    0  503  501  0.00000000000E+00  0.00000000000E+00  0.52820904607E+03  0.52820904607E+03  0.00000000000E+00 0.  1.
         21   -1    0    0  504  502 -0.00000000000E+00 -0.00000000000E+00 -0.13020346501E+04  0.13020346501E+04  0.00000000000E+00 0. -1.
         21    1    1    2  503  505 -0.11647965736E+03 -0.11005084145E+03  0.40011968316E+03  0.43101561356E+03  0.00000000000E+00 0.  1.
         21    1    1    2  504  501  0.75506519629E+02 -0.96265829771E+02  0.63569916030E+02  0.13787486614E+03  0.00000000000E+00 0.  1.
         21    1    1    2  505  506  0.68879583889E+01  0.15132430443E+03 -0.54001902451E+03  0.56086276032E+03  0.00000000000E+00 0. -1.
         21    1    1    2  506  502  0.34085179343E+02  0.54992366784E+02 -0.69749617871E+03  0.70049045616E+03  0.00000000000E+00 0. -1.
<scales pt_clust_3="14000.00000" pt_clust_4="121.03328" pt_clust_5="201.19688" pt_clust_6="64.69899"></scales>
<clustering>
<clus scale="   64.699">  2  6  1 -1</clus>
<clus scale="  121.033">  1  4  2 -1</clus>
<clus scale="  201.197">  2  5  1 -1</clus>
<clus scale="  121.033">  1  3  2 -1</clus>
</clustering>
</event>
<event>
 6    0  0.1463946E+003  0.2190754E+03  0.7546771E-02  0.1134574E+00
         21   -1    0    0  503  501  0.00000000000E+00  0.00000000000E+00  0.11021716591E+03  0.11021716591E+03  0.00000000000E+00 0.  1.
         21   -1    0    0  505  502 -0.00000000000E+00 -0.00000000000E+00 -0.13394527904E+04  0.13394527904E+04  0.00000000000E+00 0. -1.
         21    1    1    2  503  502 -0.84975027782E+02 -0.21489457438E+03 -0.88555293124E+02  0.24747216689E+03  0.00000000000E+00 0.  1.
         21    1    1    2  504  506  0.70397541548E+01  0.47598328793E+02 -0.45949362649E+03  0.46200600844E+03  0.00000000000E+00 0. -1.
         21    1    1    2  505  504  0.87436079335E+02  0.13004034427E+03 -0.68392387812E+03  0.70164622864E+03  0.00000000000E+00 0. -1.
         21    1    1    2  506  501 -0.95008057072E+01  0.37255901318E+02  0.27371732007E+01  0.38545552392E+02  0.00000000000E+00 0.  1.
<scales pt_clust_3="204.43158" pt_clust_4="43.50932" pt_clust_5="43.50932" pt_clust_6="38.44824"></scales>
<clustering>
<clus scale="   38.448">  1  6  2 -1</clus>
<clus scale="   43.509">  4  5 -1 -1</clus>
<clus scale="  204.432">  1  3  2 -1</clus>
<clus scale="   38.448">  1  3  2 -1</clus>
</clustering>
</event>
<event>
 6    0  0.1463946E+003  0.8671017E+02  0.7546771E-02  0.1311020E+00
         21   -1    0    0  504  501  0.00000000000E+00  0.00000000000E+00  0.77985169117E+03  0.77985169117E+03  0.00000000000E+00 0.  1.
         21   -1    0    0  503  502 -0.00000000000E+00 -0.00000000000E+00 -0.40984286839E+03  0.40984286839E+03  0.00000000000E+00 0. -1.
         21    1    1    2  503  505 -0.29210350652E+02  0.11495957483E+02 -0.34901662291E+03  0.35042546239E+03  0.00000000000E+00 0. -1.
         21    1    1    2  504  502 -0.49268986673E+02 -0.92669483761E+02  0.49484900000E+03  0.50585630279E+03  0.00000000000E+00 0.  1.
         21    1    1    2  505  506  0.94575248669E+01  0.47172292751E+02 -0.37283606769E+02  0.60866553325E+02  0.00000000000E+00 0.  1.
         21    1    1    2  506  501  0.69021812458E+02  0.34001233527E+02  0.26146005247E+03  0.27254624105E+03  0.00000000000E+00 0.  1.
<scales pt_clust_3="31.39111" pt_clust_4="14000.00000" pt_clust_5="58.35691" pt_clust_6="86.71017"></scales>
<clustering>
<clus scale="   31.391">  2  3  1 -1</clus>
<clus scale="   58.357">  2  5  1 -1</clus>
<clus scale="   86.710">  2  6  1 -1</clus>
<clus scale="   86.710">  1  3  2 -1</clus>
</clustering>
</event>
<event>
 6    0  0.1463946E+003  0.1063423E+03  0.7546771E-02  0.1267497E+00
         21   -1    0    0  504  501  0.00000000000E+00  0.00000000000E+00  0.23641968300E+03  0.23641968300E+03  0.00000000000E+00 0.  1.
         21   -1    0    0  503  502 -0.00000000000E+00 -0.00000000000E+00 -0.18792232669E+03  0.18792232669E+03  0.00000000000E+00 0. -1.
         21    1    1    2  503  506  0.96716902802E+02  0.32745471050E+02 -0.91828169076E+02  0.13732748377E+03  0.00000000000E+00 0. -1.
         21    1    1    2  504  505 -0.32957990260E+02  0.31294942364E+01  0.54758554952E+02  0.63988453619E+02  0.00000000000E+00 0.  1.
         21    1    1    2  505  502 -0.10579630351E+03 -0.84374563825E+02  0.83092144024E+02  0.15879618779E+03  0.00000000000E+00 0.  1.
         21    1    1    2  506  501  0.42037390970E+02  0.48499598539E+02  0.24748264104E+01  0.64229884507E+02  0.00000000000E+00 0. -1.
<scales pt_clust_3="106.34226" pt_clust_4="33.10624" pt_clust_5="14000.00000" pt_clust_6="60.77367"></scales>
<clustering>
<clus scale="   33.106">  1  4  2 -1</clus>
<clus scale="   60.774">  1  6  2 -1</clus>
<clus scale="  106.342">  2  3  1 -1</clus>
<clus scale="   33.106">  1  3  2 -1</clus>
</clustering>
</event>
<event>
 6    0  0.1463946E+003  0.1159987E+03  0.7546771E-02  0.1249848E+00
         21   -1    0    0  503  501  0.00000000000E+00  0.00000000000E+00  0.35855467024E+03  0.35855467024E+03  0.00000000000E+00 0.  1.
         21   -1    0    0  504  502 -0.00000000000E+00 -0.00000000000E+00 -0.26796184848E+03  0.26796184848E+03  0.00000000000E+00 0.  1.
         21    1    1    2  503  502  0.39830336450E+02 -0.20214111037E+03  0.86829879409E+02  0.22357753054E+03  0.00000000000E+00 0.  1.
         21    1    1    2  504  505  0.13773747008E+02  0.46273910674E+02 -0.13705410397E+03  0.14530938831E+03  0.00000000000E+00 0.  1.
         21    1    1    2  505  506 -0.21774581901E+02  0.63082777905E+02 -0.19639386102E+02  0.69564896116E+02  0.00000000000E+00 0.  1.
         21    1    1    2  506  501 -0.31829501556E+02  0.92784421795E+02  0.16045643242E+03  0.18806470376E+03  0.00000000000E+00 0.  1.
<scales pt_clust_3="115.99867" pt_clust_4="48.28034" pt_clust_5="81.14775" pt_clust_6="14000.00000"></scales>
<clustering>
<clus scale="   48.280">  2  4  1 -1</clus>
<clus scale="   81.148">  2  5  1 -1</clus>
<clus scale="  115.999">  2  3  1 -1</clus>
<clus scale="  115.999">  1  3  2 -1</clus>
</clustering>
</event>
<event>
 6    0  0.1463946E+003  0.1005327E+03  0.7546771E-02  0.1279180E+00
         21   -1    0    0  503  501  0.00000000000E+00  0.00000000000E+00  0.10183556489E+03  0.10183556489E+03  0.00000000000E+00 0.  1.
         21   -1    0    0  504  502 -0.00000000000E+00 -0.00000000000E+00 -0.16469846410E+04  0.16469846410E+04  0.00000000000E+00 0.  1.
         21    1    1    2  503  505 -0.22431032564E+02  0.68179978273E+02  0.57566756887E+02  0.92008652624E+02  0.00000000000E+00 0.  1.
         21    1    1    2  504  506 -0.26133655944E+02 -0.81747457939E+02 -0.18371631578E+03  0.20277401100E+03  0.00000000000E+00 0.  1.
         21    1    1    2  505  502  0.72529388346E+02 -0.31557459339E+02 -0.13956014734E+04  0.13978411419E+04  0.00000000000E+00 0.  1.
         21    1    1    2  506  501 -0.23964699838E+02  0.45124939005E+02 -0.23398043781E+02  0.56196400341E+02  0.00000000000E+00 0.  1.
<scales pt_clust_3="14000.00000" pt_clust_4="100.53272" pt_clust_5="78.57442" pt_clust_6="51.09371"></scales>
<clustering>
<clus scale="   51.094">  1  6  2 -1</clus>
<clus scale="   78.574">  2  5  1 -1</clus>
<clus scale="  100.533">  2  4  1 -1</clus>
<clus scale="   51.094">  1  3  2 -1</clus>
</clustering>
</event>
<event>
 6    0  0.1463946E+003  0.8599645E+02  0.7546771E-02  0.1312847E+00
         21   -1    0    0  506  501  0.00000000000E+00  0.00000000000E+00  0.34332637912E+03  0.34332637912E+03  0.00000000000E+00 0.  1.
         21   -1    0    0  504  502 -0.00000000000E+00 -0.00000000000E+00 -0.14682611125E+03  0.14682611125E+03  0.00000000000E+00 0.  1.
         21    1    1    2  503  501  0.77707803209E+02 -0.30397441339E+02  0.24573644066E+03  0.25951667652E+03  0.00000000000E+00 0.  1.
         21    1    1    2  504  505 -0.23940498213E+02 -0.35371431972E+02 -0.30049937225E+02  0.52223408369E+02  0.00000000000E+00 0.  1.
         21    1    1    2  505  503 -0.66519534917E+02  0.53328093618E+01 -0.71256694014E+02  0.97625835838E+02  0.00000000000E+00 0.  1.
         21    1    1    2  506  502  0.12752229922E+02  0.60436063949E+02  0.52070458444E+02  0.80786569652E+02  0.00000000000E+00 0.  1.
<scales pt_clust_3="85.99645" pt_clust_4="42.71166" pt_clust_5="14000.00000" pt_clust_6="56.43611"></scales>
<clustering>
<clus scale="   42.712">  2  4  1 -1</clus>
<clus scale="   56.436">  1  6  2 -1</clus>
<clus scale="   85.996">  1  3  2 -1</clus>
<clus scale="   56.436">  1  3  2 -1</clus>
</clustering>
</event>
<event>
 6    0  0.1463946E+003  0.9441950E+02  0.7546771E-02  0.1292489E+00
         21   -1    0    0  503  501  0.00000000000E+00  0.00000000000E+00  0.65684218087E+03  0.65684218087E+03  0.00000000000E+00 0. -1.
         21   -1    0    0  506  502 -0.00000000000E+00 -0.00000000000E+00 -0.44215879383E+03  0.44215879383E+03  0.00000000000E+00 0. -1.
         21    1    1    2  503  502 -0.17732962076E+02  0.71627009616E+02  0.36859991327E+02  0.82483606924E+02  0.00000000000E+00 0.  1.
         21    1    1    2  504  505 -0.52203855728E+01 -0.94577540344E+02 -0.62302885199E+02  0.11337465796E+03  0.00000000000E+00 0. -1.
         21    1    1    2  505  501 -0.14156817208E+02  0.46500263388E+02  0.56913718367E+03  0.57120908939E+03  0.00000000000E+00 0. -1.
         21    1    1    2  506  504  0.37110164857E+02 -0.23549732660E+02 -0.32901090276E+03  0.33193362044E+03  0.00000000000E+00 0. -1.
<scales pt_clust_3="94.41950" pt_clust_4="14000.00000" pt_clust_5="48.29902" pt_clust_6="43.95173"></scales>
<clustering>
<clus scale="   43.952">  2  6  1 -1</clus>
<clus scale="   48.299">  1  5  2 -1</clus>
<clus scale="   94.419">  1  3  2 -1</clus>
<clus scale="   48.299">  1  3  2 -1</clus>
</clustering>
</event>
<event>
 6    0  0.1463946E+003  0.2770127E+03  0.7546771E-02  0.1097332E+00
         21   -1    0    0  503  501  0.00000000000E+00  0.00000000000E+00  0.25165391917E+04  0.25165391917E+04  0.00000000000E+00 0. -1.
         21   -1    0    0  506  502 -0.00000000000E+00 -0.00000000000E+00 -0.39959522575E+03  0.39959522575E+03  0.00000000000E+00 0. -1.
         21    1    1    2  503  504  0.24312538360E+03 -0.10997289524E+03  0.20549404336E+04  0.20721930836E+04  0.00000000000E+00 0. -1.
         21    1    1    2  504  502 -0.57237779132E+02  0.62196086732E+01 -0.28213537740E+03  0.28795002704E+03  0.00000000000E+00 0. -1.
         21    1    1    2  505  501  0.36787032957E+02  0.55625830230E+02  0.32002790642E+03  0.32690270673E+03  0.00000000000E+00 0. -1.
         21    1    1    2  506  505 -0.22267463742E+03  0.48127456333E+02  0.24111003275E+02  0.22908860007E+03  0.00000000000E+00 0. -1.
<scales pt_clust_3="14000.00000" pt_clust_4="57.57471" pt_clust_5="65.91586" pt_clust_6="277.01266"></scales>
<clustering>
<clus scale="   57.575">  2  4  1 -1</clus>
<clus scale="   65.916">  1  5  2 -1</clus>
<clus scale="  277.013">  2  6  1 -1</clus>
<clus scale="   65.916">  1  3  2 -1</clus>
</clustering>
</event>
<event>
 6    0  0.1463946E+003  0.8684491E+02  0.7546771E-02  0.1310677E+00
         21   -1    0    0  506  501  0.00000000000E+00  0.00000000000E+00  0.15950453520E+03  0.15950453520E+03  0.00000000000E+00 0.  1.
         21   -1    0    0  504  502 -0.00000000000E+00 -0.00000000000E+00 -0.29423262311E+03  0.29423262311E+03  0.00000000000E+00 0. -1.
         21    1    1    2  503  501 -0.20864828149E+01  0.67179886587E+02  0.60172103076E+02  0.90211820517E+02  0.00000000000E+00 0.  1.
         21    1    1    2  504  503 -0.36736820202E+02  0.52115659233E+02 -0.71813956567E+02  0.96035827969E+02  0.00000000000E+00 0. -1.
         21    1    1    2  505  502  0.74969467608E+02 -0.10524612367E+03 -0.16553207907E+03  0.20999532572E+03  0.00000000000E+00 0. -1.
         21    1    1    2  506  505 -0.36146164591E+02 -0.14049422154E+02  0.42445844656E+02  0.57494184106E+02  0.00000000000E+00 0.  1.
<scales pt_clust_3="63.51311" pt_clust_4="86.84491" pt_clust_5="14000.00000" pt_clust_6="38.78056"></scales>
<clustering>
<clus scale="   38.781">  1  6  2 -1</clus>
<clus scale="   63.513">  1  3  2 -1</clus>
<clus scale="   86.845">  2  4  1 -1</clus>
<clus scale="   38.781">  1  3  2 -1</clus>
</clustering>
</event>
<event>
 6    0  0.1463946E+003  0.9596620E+02  0.7546771E-02  0.1289015E+00
         21   -1    0    0  503  501  0.00000000000E+00  0.00000000000E+00  0.97798183309E+03  0.97798183309E+03  0.00000000000E+00 0. -1.
         21   -1    0    0  505  502 -0.00000000000E+00 -0.00000000000E+00 -0.17867023745E+03  0.17867023745E+03  0.00000000000E+00 0. -1.
         21    1    1    2  503  504  0.11139531875E+03 -0.10220060252E+03  0.32388031179E+03  0.35742458863E+03  0.00000000000E+00 0. -1.
         21    1    1    2  504  502 -0.34245234348E+02  0.17624179873E+02 -0.71807501593E+02  0.81484140032E+02  0.00000000000E+00 0. -1.
         21    1    1    2  505  506  0.15800616655E+01  0.47627571430E+02 -0.75325570473E+02  0.89133740650E+02  0.00000000000E+00 0. -1.
         21    1    1    2  506  501 -0.78730146065E+02  0.36948851218E+02  0.62256435591E+03  0.62860960123E+03  0.00000000000E+00 0. -1.
<scales pt_clust_3="95.96620" pt_clust_4="38.51425" pt_clust_5="67.08445" pt_clust_6="14000.00000"></scales>
<clustering>
<clus scale="   38.514">  2  4  1 -1</clus>
<clus scale="   67.084">  2  5  1 -1</clus>
<clus scale="   95.966">  2  3  1 -1</clus>
<clus scale="   95.966">  1  3  2 -1</clus>
</clustering>
</event>
<event>
 6    0  0.1463946E+003  0.9189999E+02  0.7546771E-02  0.1298315E+00
         21   -1    0    0  503  501  0.00000000000E+00  0.00000000000E+00  0.31192719136E+03  0.31192719136E+03  0.00000000000E+00 0. -1.
         21   -1    0    0  506  502 -0.00000000000E+00 -0.00000000000E+00 -0.11108747758E+04  0.11108747758E+04  0.00000000000E+00 0.  1.
         21    1    1    2  503  504  0.34624187477E+02  0.25291161179E+02  0.25482291135E+03  0.25840509542E+03  0.00000000000E+00 0. -1.
         21    1    1    2  504  505 -0.15440133274E+03 -0.48904419333E+02 -0.17009356465E+03  0.23486854732E+03  0.00000000000E+00 0.  1.
         21    1    1    2  505  502  0.83659004553E+02  0.24870292288E+02 -0.88875779329E+03  0.89303290847E+03  0.00000000000E+00 0.  1.
         21    1    1    2  506  501  0.36118140715E+02 -0.12570341348E+01  0.50808621759E+01  0.36495415931E+02  0.00000000000E+00 0.  1.
<scales pt_clust_3="70.72238" pt_clust_4="91.89999" pt_clust_5="14000.00000" pt_clust_6="36.14001"></scales>
<clustering>
<clus scale="   36.140">  1  6  2 -1</clus>
<clus scale="   70.722">  1  3  2 -1</clus>
<clus scale="   91.900">  1  4  2 -1</clus>
<clus scale="   36.140">  1  3  2 -1</clus>
</clustering>
</event>
<event>
 6    0  0.1463946E+003  0.1013765E+03  0.7546771E-02  0.1277428E+00
         21   -1    0    0  504  501  0.00000000000E+00  0.00000000000E+00  0.16734234380E+03  0.16734234380E+03  0.00000000000E+00 0. -1.
         21   -1    0    0  503  502 -0.00000000000E+00 -0.00000000000E+00 -0.31963045539E+03  0.31963045539E+03  0.00000000000E+00 0.  1.
         21    1    1    2  503  506 -0.13371811922E+03 -0.34616961982E+01 -0.19347297713E+03  0.23521120642E+03  0.00000000000E+00 0.  1.
         21    1    1    2  504  505  0.84413789077E+01 -0.33682327777E+02  0.38527675851E+02  0.51866539202E+02  0.00000000000E+00 0. -1.
         21    1    1    2  505  502  0.35838440305E+02  0.19979707442E+00 -0.70164289468E+02  0.78787443409E+02  0.00000000000E+00 0.  1.
         21    1    1    2  506  501  0.89438300004E+02  0.36944226901E+02  0.72821479161E+02  0.12110761015E+03  0.00000000000E+00 0. -1.
<scales pt_clust_3="101.37651" pt_clust_4="34.72400" pt_clust_5="36.14995" pt_clust_6="14000.00000"></scales>
<clustering>
<clus scale="   34.724">  1  4  2 -1</clus>
<clus scale="   36.150">  2  5  1 -1</clus>
<clus scale="  101.377">  2  3  1 -1</clus>
<clus scale="   34.724">  1  3  2 -1</clus>
</clustering>
</event>
<event>
 6    0  0.1463946E+003  0.9561967E+02  0.7546771E-02  0.1289787E+00
         21   -1    0    0  504  501  0.00000000000E+00  0.00000000000E+00  0.26297351466E+03  0.26297351466E+03  0.00000000000E+00 0. -1.
         21   -1    0    0  503  502 -0.00000000000E+00 -0.00000000000E+00 -0.21974512812E+03  0.21974512812E+03  0.00000000000E+00 0. -1.
         21    1    1    2  503  505  0.22048700149E+02 -0.31045257356E+02 -0.10809764394E+02  0.39582877470E+02  0.00000000000E+00 0.  1.
         21    1    1    2  504  506  0.42354151947E+02  0.47357042695E+02  0.17215970775E+03  0.18350893344E+03  0.00000000000E+00 0. -1.
         21    1    1    2  505  501 -0.12820630447E+03  0.73299150699E+01 -0.61011730538E+01  0.12856052455E+03  0.00000000000E+00 0. -1.
         21    1    1    2  506  502  0.63803452374E+02 -0.23641700409E+02 -0.11202038376E+03  0.13106630731E+03  0.00000000000E+00 0. -1.
<scales pt_clust_3="38.07825" pt_clust_4="63.29698" pt_clust_5="14000.00000" pt_clust_6="95.61967"></scales>
<clustering>
<clus scale="   38.078">  2  3  1 -1</clus>
<clus scale="   63.297">  1  4  2 -1</clus>
<clus scale="   95.620">  2  6  1 -1</clus>
<clus scale="   63.297">  1  3  2 -1</clus>
</clustering>
</event>
<event>
 6    0  0.1463946E+003  0.4329648E+03  0.7546771E-02  0.1032927E+00
         21   -1    0    0  505  501  0.00000000000E+00  0.00000000000E+00  0.49396538691E+03  0.49396538691E+03  0.00000000000E+00 0.  1.
         21   -1    0    0  506  502 -0.00000000000E+00 -0.00000000000E+00 -0.28017472005E+04  0.28017472005E+04  0.00000000000E+00 0.  1.
         21    1    1    2  503  501 -0.11667118712E+03 -0.51338353368E+03 -0.20314447603E+03  0.56430709431E+03  0.00000000000E+00 0.  1.
         21    1    1    2  504  503 -0.62177757958E+02  0.16251430422E+03 -0.58797059238E+03  0.61317729097E+03  0.00000000000E+00 0.  1.
         21    1    1    2  505  502  0.25327806498E+03  0.32402046463E+03  0.15882604572E+03  0.44086818041E+03  0.00000000000E+00 0.  1.
         21    1    1    2  506  504 -0.74429119909E+02  0.26848764826E+02 -0.16754927909E+04  0.16773600217E+04  0.00000000000E+00 0.  1.
<scales pt_clust_3="14000.00000" pt_clust_4="204.10079" pt_clust_5="432.96478" pt_clust_6="79.12364"></scales>
<clustering>
<clus scale="   79.124">  2  6  1 -1</clus>
<clus scale="  204.101">  2  4  1 -1</clus>
<clus scale="  432.965">  1  5  2 -1</clus>
<clus scale="  432.965">  1  3  2 -1</clus>
</clustering>
</event>
<event>
 6    0  0.1463946E+003  0.1218029E+03  0.7546771E-02  0.1240152E+00
         21   -1    0    0  503  501  0.00000000000E+00  0.00000000000E+00  0.51532717677E+02  0.51532717677E+02  0.00000000000E+00 0. -1.
         21   -1    0    0  506  502 -0.00000000000E+00 -0.00000000000E+00 -0.86954025948E+03  0.86954025948E+03  0.00000000000E+00 0. -1.
         21    1    1    2  503  502  0.12476487577E+03 -0.76575676543E+02 -0.34443062556E+03  0.37424933438E+03  0.00000000000E+00 0. -1.
         21    1    1    2  504  501 -0.51162632268E+02 -0.14412167998E+02 -0.13380597817E+02  0.54812096520E+02  0.00000000000E+00 0. -1.
         21    1    1    2  505  504 -0.34242024498E+02 -0.21526469942E+02 -0.47208501547E+02  0.62165486953E+02  0.00000000000E+00 0.  1.
         21    1    1    2  506  505 -0.39360219002E+02  0.11251431448E+03 -0.41298781688E+03  0.42984605930E+03  0.00000000000E+00 0. -1.
<scales pt_clust_3="14000.00000" pt_clust_4="100.06356" pt_clust_5="32.95422" pt_clust_6="121.80286"></scales>
<clustering>
<clus scale="   32.954">  4  5 -1 -1</clus>
<clus scale="  100.064">  1  4  2 -1</clus>
<clus scale="  121.803">  2  6  1 -1</clus>
<clus scale="  100.064">  1  3  2 -1</clus>
</clustering>
</event>
<event>
 6    0  0.1463946E+003  0.8757874E+02  0.7546771E-02  0.1308823E+00
         21   -1    0    0  506  501  0.00000000000E+00  0.00000000000E+00  0.36861455001E+03  0.36861455001E+03  0.00000000000E+00 0.  1.
         21   -1    0    0  503  502 -0.00000000000E+00 -0.00000000000E+00 -0.15096667577E+03  0.15096667577E+03  0.00000000000E+00 0.  1.
         21    1    1    2  503  504  0.16985070501E+02 -0.28410248467E+02 -0.32230034062E+02  0.46199674604E+02  0.00000000000E+00 0.  1.
         21    1    1    2  504  501 -0.50038587196E+02  0.57998083704E+02  0.27985567792E+03  0.29014968273E+03  0.00000000000E+00 0.  1.
         21    1    1    2  505  502  0.98689002173E+02  0.11894086825E+02 -0.35099384309E+02  0.10541800240E+03  0.00000000000E+00 0.  1.
         21    1    1    2  506  505 -0.65635485478E+02 -0.41481922062E+02  0.51216146953E+01  0.77813866045E+02  0.00000000000E+00 0. -1.
<scales pt_clust_3="33.10038" pt_clust_4="75.09921" pt_clust_5="14000.00000" pt_clust_6="87.57874"></scales>
<clustering>
<clus scale="   33.100">  2  3  1 -1</clus>
<clus scale="   75.099">  1  4  2 -1</clus>
<clus scale="   87.579">  1  6  2 -1</clus>
<clus scale="   75.099">  1  3  2 -1</clus>
</clustering>
</event>
<event>
 6    0  0.1463946E+003  0.1328404E+03  0.7546771E-02  0.1223301E+00
         21   -1    0    0  505  501  0.00000000000E+00  0.00000000000E+00  0.82068733024E+03  0.82068733024E+03  0.00000000000E+00 0. -1.
         21   -1    0    0  506  502 -0.00000000000E+00 -0.00000000000E+00 -0.40070287216E+03  0.40070287216E+03  0.00000000000E+00 0.  1.
         21    1    1    2  503  504  0.36916438638E+02 -0.33584499794E+02  0.19732208839E+03  0.20353562006E+03  0.00000000000E+00 0. -1.
         21    1    1    2  504  502  0.72715694473E+02  0.11075265865E+03 -0.36796278064E+03  0.39108864923E+03  0.00000000000E+00 0.  1.
         21    1    1    2  505  503 -0.10494277742E+02  0.36966156879E+02  0.38805498988E+02  0.54612208996E+02  0.00000000000E+00 0. -1.
         21    1    1    2  506  501 -0.99137855369E+02 -0.11413431573E+03  0.55181965134E+03  0.57215372410E+03  0.00000000000E+00 0. -1.
<scales pt_clust_3="41.78668" pt_clust_4="132.84044" pt_clust_5="38.42690" pt_clust_6="14000.00000"></scales>
<clustering>
<clus scale="   38.427">  1  5  2 -1</clus>
<clus scale="   41.787">  1  3  2 -1</clus>
<clus scale="  132.840">  2  4  1 -1</clus>
<clus scale="   38.427">  1  3  2 -1</clus>
</clustering>
</event>
<event>
 6    0  0.1463946E+003  0.1046498E+03  0.7546771E-02  0.1270811E+00
         21   -1    0    0  502  501  0.00000000000E+00  0.00000000000E+00  0.22253035763E+04  0.22253035763E+04  0.00000000000E+00 0. -1.
         21   -1    0    0  503  502 -0.00000000000E+00 -0.00000000000E+00 -0.29873226673E+03  0.29873226673E+03  0.00000000000E+00 0.  1.
         21    1    1    2  503  506 -0.41681228044E+02 -0.59096613673E+02 -0.17955032873E+03  0.19356666827E+03  0.00000000000E+00 0.  1.
         21    1    1    2  504  505 -0.57532752892E+02 -0.74405228163E+02  0.59009980417E+03  0.59754826961E+03  0.00000000000E+00 0.  1.
         21    1    1    2  505  501 -0.26620749587E+02  0.14796140989E+02  0.15552426360E+04  0.15555408214E+04  0.00000000000E+00 0. -1.
         21    1    1    2  506  504  0.12583473052E+03  0.11870570085E+03 -0.39220801888E+02  0.17738008378E+03  0.00000000000E+00 0.  1.
<scales pt_clust_3="72.35162" pt_clust_4="104.64982" pt_clust_5="30.45636" pt_clust_6="14000.00000"></scales>
<clustering>
<clus scale="   30.456">  1  5  2 -1</clus>
<clus scale="   72.352">  2  3  1 -1</clus>
<clus scale="  104.650">  1  4  2 -1</clus>
<clus scale="   30.456">  1  3  2 -1</clus>
</clustering>
</event>
<event>
 6    0  0.1463946E+003  0.1018382E+03  0.7546771E-02  0.1276477E+00
         21   -1    0    0  506  501  0.00000000000E+00  0.00000000000E+00  0.16426185390E+03  0.16426185390E+03  0.00000000000E+00 0. -1.
         21   -1    0    0  503  502 -0.00000000000E+00 -0.00000000000E+00 -0.12479477331E+04  0.12479477331E+04  0.00000000000E+00 0.  1.
         21    1    1    2  503  505 -0.76604790591E+02  0.35612766871E+01 -0.23336429604E+03  0.24564175398E+03  0.00000000000E+00 0.  1.
         21    1    1    2  504  502 -0.26779835263E+02  0.18244014733E+02 -0.95926016026E+03  0.95980730291E+03  0.00000000000E+00 0.  1.
         21    1    1    2  505  501 -0.67637674923E+01  0.35033744482E+02 -0.77655980732E+01  0.36515973444E+02  0.00000000000E+00 0.  1.
         21    1    1    2  506  504  0.11014839335E+03 -0.56839035902E+02  0.11670417520E+03  0.17024455665E+03  0.00000000000E+00 0. -1.
<scales pt_clust_3="14000.00000" pt_clust_4="32.40376" pt_clust_5="37.48656" pt_clust_6="101.83820"></scales>
<clustering>
<clus scale="   32.404">  2  4  1 -1</clus>
<clus scale="   37.487">  1  5  2 -1</clus>
<clus scale="  101.838">  1  6  2 -1</clus>
<clus scale="   37.487">  1  3  2 -1</clus>
</clustering>
</event>
<event>
 6    0  0.1463946E+003  0.1536394E+03  0.7546771E-02  0.1196071E+00
         21   -1    0    0  505  501  0.00000000000E+00  0.00000000000E+00  0.74430915821E+03  0.74430915821E+03  0.00000000000E+00 0.  1.
         21   -1    0    0  504  502 -0.00000000000E+00 -0.00000000000E+00 -0.21480080841E+03  0.21480080841E+03  0.00000000000E+00 0.  1.
         21    1    1    2  503  501 -0.13318365968E+03  0.88405632754E+02  0.13482243573E+03  0.20911846471E+03  0.00000000000E+00 0.  1.
         21    1    1    2  504  503  0.45015639806E+01 -0.14452453764E+03  0.12509724025E+03  0.19119865475E+03  0.00000000000E+00 0.  1.
         21    1    1    2  505  506 -0.17673476062E+02 -0.41130942814E+02  0.35889822425E+03  0.36167947354E+03  0.00000000000E+00 0.  1.
         21    1    1    2  506  502  0.14635557176E+03  0.97249847699E+02 -0.89309550435E+02  0.19711337362E+03  0.00000000000E+00 0.  1.
<scales pt_clust_3="157.50173" pt_clust_4="153.63944" pt_clust_5="44.76724" pt_clust_6="14000.00000"></scales>
<clustering>
<clus scale="   44.767">  1  5  2 -1</clus>
<clus scale="  157.502">  1  3  2 -1</clus>
<clus scale="  153.639">  1  4  2 -1</clus>
<clus scale="   44.767">  1  3  2 -1</clus>
</clustering>
</event>
<event>
 6    0  0.1463946E+003  0.7342618E+02  0.7546771E-02  0.1348815E+00
         21   -1    0    0  505  501  0.00000000000E+00  0.00000000000E+00  0.46628906876E+03  0.46628906876E+03  0.00000000000E+00 0. -1.
         21   -1    0    0  504  502 -0.00000000000E+00 -0.00000000000E+00 -0.11363806861E+04  0.11363806861E+04  0.00000000000E+00 0. -1.
         21    1    1    2  503  501 -0.85913093162E+02  0.24358524112E+02  0.12760104726E+03  0.15574474160E+03  0.00000000000E+00 0. -1.
         21    1    1    2  504  506 -0.25198529576E+02 -0.68685100052E+02 -0.10914788805E+04  0.10939281308E+04  0.00000000000E+00 0. -1.
         21    1    1    2  505  502  0.41793056897E+02 -0.58071442818E+02  0.95803796137E+02  0.11957139888E+03  0.00000000000E+00 0. -1.
         21    1    1    2  506  503  0.69318565841E+02  0.10239801876E+03  0.19798241978E+03  0.23342548352E+03  0.00000000000E+00 0. -1.
<scales pt_clust_3="69.41633" pt_clust_4="73.42618" pt_clust_5="71.54685" pt_clust_6="14000.00000"></scales>
<clustering>
<clus scale="   71.547">  1  5  2 -1</clus>
<clus scale="   69.416">  1  3  2 -1</clus>
<clus scale="   73.426">  2  4  1 -1</clus>
<clus scale="   71.547">  1  3  2 -1</clus>
</clustering>
</event>
<event>
 6    0  0.1463946E+003  0.1603743E+03  0.7546771E-02  0.1188275E+00
         21   -1    0    0  502  501  0.00000000000E+00  0.00000000000E+00  0.58716344713E+02  0.58716344713E+02  0.00000000000E+00 0.  1.
         21   -1    0    0  504  502 -0.00000000000E+00 -0.00000000000E+00 -0.14943898666E+04  0.14943898666E+04  0.00000000000E+00 0.  1.
         21    1    1    2  503  505 -0.19530823523E+02  0.37331295569E+02 -0.29558147742E+02  0.51466132498E+02  0.00000000000E+00 0.  1.
         21    1    1    2  504  506 -0.99867906739E+01 -0.15671616239E+03 -0.12938789109E+04  0.13033734413E+04  0.00000000000E+00 0.  1.
         21    1    1    2  505  501  0.82993077355E+01  0.37270787661E+02  0.18500840896E+02  0.42429603294E+02  0.00000000000E+00 0.  1.
         21    1    1    2  506  503  0.21218306462E+02  0.82114079155E+02 -0.13073730412E+03  0.15583703415E+03  0.00000000000E+00 0.  1.
<scales pt_clust_3="40.07219" pt_clust_4="150.69839" pt_clust_5="38.18364" pt_clust_6="40.07219"></scales>
<clustering>
<clus scale="   38.184">  1  5  2 -1</clus>
<clus scale="   40.072">  3  6 -1 -1</clus>
<clus scale="  150.698">  2  4  1 -1</clus>
<clus scale="   38.184">  1  3  2 -1</clus>
</clustering>
</event>
<event>
 6    0  0.1463946E+003  0.1102799E+03  0.7546771E-02  0.1260052E+00
         21   -1    0    0  506  501  0.00000000000E+00  0.00000000000E+00  0.16060787205E+03  0.16060787205E+03  0.00000000000E+00 0.  1.
         21   -1    0    0  503  502 -0.00000000000E+00 -0.00000000000E+00 -0.55591437585E+03  0.55591437585E+03  0.00000000000E+00 0.  1.
         21    1    1    2  503  505 -0.59418687306E+02 -0.12483988877E+03 -0.34538067946E+03  0.37202606356E+03  0.00000000000E+00 0.  1.
         21    1    1    2  504  502  0.27288801062E+02  0.82524053464E+02 -0.15570129549E+03  0.17831935251E+03  0.00000000000E+00 0.  1.
         21    1    1    2  505  501  0.34289181769E+02 -0.64553947976E+01  0.11167855966E+03  0.11700222561E+03  0.00000000000E+00 0.  1.
         21    1    1    2  506  504 -0.21592955241E+01  0.48771230104E+02 -0.59030885190E+01  0.49174606222E+02  0.00000000000E+00 0.  1.
<scales pt_clust_3="14000.00000" pt_clust_4="110.27995" pt_clust_5="34.89155" pt_clust_6="47.81019"></scales>
<clustering>
<clus scale="   34.892">  1  5  2 -1</clus>
<clus scale="   47.810">  1  6  2 -1</clus>
<clus scale="  110.280">  2  4  1 -1</clus>
<clus scale="   34.892">  1  3  2 -1</clus>
</clustering>
</event>
<event>
 6    0  0.1463946E+003  0.5562110E+02  0.7546771E-02  0.1417184E+00
         21   -1    0    0  506  501  0.00000000000E+00  0.00000000000E+00  0.86199930109E+03  0.86199930109E+03  0.00000000000E+00 0. -1.
         21   -1    0    0  503  502 -0.00000000000E+00 -0.00000000000E+00 -0.22387674253E+04  0.22387674253E+04  0.00000000000E+00 0.  1.
         21    1    1    2  503  504 -0.20708492429E+02 -0.47530296187E+02 -0.21170175732E+04  0.21176523265E+04  0.00000000000E+00 0.  1.
         21    1    1    2  504  505 -0.81270050801E+02  0.20807002734E+02  0.42307969707E+03  0.43131680073E+03  0.00000000000E+00 0. -1.
         21    1    1    2  505  501  0.27593788940E+02 -0.25736469921E+02  0.41584409691E+03  0.41755250688E+03  0.00000000000E+00 0. -1.
         21    1    1    2  506  502  0.74384754289E+02  0.52459763374E+02 -0.98674344983E+02  0.13424509228E+03  0.00000000000E+00 0.  1.
<scales pt_clust_3="51.85461" pt_clust_4="14000.00000" pt_clust_5="37.73305" pt_clust_6="55.62110"></scales>
<clustering>
<clus scale="   37.733">  1  5  2 -1</clus>
<clus scale="   51.855">  2  3  1 -1</clus>
<clus scale="   55.621">  2  6  1 -1</clus>
<clus scale="   37.733">  1  3  2 -1</clus>
</clustering>
</event>
<event>
 6    0  0.1463946E+003  0.1245466E+03  0.7546771E-02  0.1235780E+00
         21   -1    0    0  504  501  0.00000000000E+00  0.00000000000E+00  0.31726211543E+03  0.31726211543E+03  0.00000000000E+00 0.  1.
         21   -1    0    0  506  502 -0.00000000000E+00 -0.00000000000E+00 -0.28675832082E+03  0.28675832082E+03  0.00000000000E+00 0.  1.
         21    1    1    2  503  501  0.51047140311E+01  0.49568994048E+02  0.60474796287E+02  0.78360348788E+02  0.00000000000E+00 0.  1.
         21    1    1    2  504  505 -0.14415998498E+03 -0.68678436288E+02  0.19341811425E+03  0.25081745513E+03  0.00000000000E+00 0.  1.
         21    1    1    2  505  502  0.59739237151E+02  0.17930849357E+02 -0.16485411122E+03  0.17625881482E+03  0.00000000000E+00 0.  1.
         21    1    1    2  506  503  0.79316033803E+02  0.11785928828E+01 -0.58535004700E+02  0.98583817509E+02  0.00000000000E+00 0.  1.
<scales pt_clust_3="49.83115" pt_clust_4="124.54661" pt_clust_5="62.82148" pt_clust_6="14000.00000"></scales>
<clustering>
<clus scale="   49.831">  1  3  2 -1</clus>
<clus scale="   62.821">  2  5  1 -1</clus>
<clus scale="  124.547">  1  4  2 -1</clus>
<clus scale="   49.831">  1  3  2 -1</clus>
</clustering>
</event>
<event>
 6    0  0.1463946E+003  0.1509445E+03  0.7546771E-02  0.1199317E+00
         21   -1    0    0  506  501  0.00000000000E+00  0.00000000000E+00  0.21551362123E+04  0.21551362123E+04  0.00000000000E+00 0. -1.
         21   -1    0    0  505  502 -0.00000000000E+00 -0.00000000000E+00 -0.21105679222E+03  0.21105679222E+03  0.00000000000E+00 0.  1.
         21    1    1    2  503  502  0.22969944533E+02 -0.41079737055E+02 -0.76660741941E+02  0.89955725239E+02  0.00000000000E+00 0.  1.
         21    1    1    2  504  501 -0.24209313378E+02 -0.20758098043E+02  0.19308648346E+04  0.19311281674E+04  0.00000000000E+00 0. -1.
         21    1    1    2  505  504  0.97121749976E+02 -0.72932930957E+02 -0.47186239145E+02  0.13030114313E+03  0.00000000000E+00 0.  1.
         21    1    1    2  506  503 -0.95882381131E+02  0.13477076606E+03  0.13706156654E+03  0.21480796870E+03  0.00000000000E+00 0. -1.
<scales pt_clust_3="47.26155" pt_clust_4="31.89027" pt_clust_5="14000.00000" pt_clust_6="150.94449"></scales>
<clustering>
<clus scale="   31.890">  1  4  2 -1</clus>
<clus scale="   47.262">  2  3  1 -1</clus>
<clus scale="  150.944">  1  6  2 -1</clus>
<clus scale="   31.890">  1  3  2 -1</clus>
</clustering>
</event>
<event>
 6    0  0.1463946E+003  0.1010225E+03  0.7546771E-02  0.1278160E+00
         21   -1    0    0  503  501  0.00000000000E+00  0.00000000000E+00  0.31388347214E+02  0.31388347214E+02  0.00000000000E+00 0. -1.
         21   -1    0    0  505  502 -0.00000000000E+00 -0.00000000000E+00 -0.19319153279E+04  0.19319153279E+04  0.00000000000E+00 0. -1.
         21    1    1    2  503  506  0.29934300821E+02  0.21903019670E+02 -0.57790131127E+00  0.37096342222E+02  0.00000000000E+00 0. -1.
         21    1    1    2  504  502 -0.15673293972E+02 -0.10069277486E+03 -0.44362757684E+03  0.45518140777E+03  0.00000000000E+00 0. -1.
         21    1    1    2  505  501 -0.72729089808E+02  0.85011344222E+02 -0.12856788276E+04  0.12905372900E+04  0.00000000000E+00 0. -1.
         21    1    1    2  506  504  0.58468082959E+02 -0.62215890333E+01 -0.17064267490E+03  0.18048863508E+03  0.00000000000E+00 0. -1.
<scales pt_clust_3="37.09184" pt_clust_4="14000.00000" pt_clust_5="101.02251" pt_clust_6="69.72088"></scales>
<clustering>
<clus scale="   37.092">  1  3  2 -1</clus>
<clus scale="   69.721">  1  6  2 -1</clus>
<clus scale="  101.023">  2  5  1 -1</clus>
<clus scale="   37.092">  1  3  2 -1</clus>
</clustering>
</event>
<event>
 6    0  0.1463946E+003  0.6883415E+02  0.7546771E-02  0.1364103E+00
         21   -1    0    0  505  501  0.00000000000E+00  0.00000000000E+00  0.80097660827E+03  0.80097660827E+03  0.00000000000E+00 0.  1.
         21   -1    0    0  506  502 -0.00000000000E+00 -0.00000000000E+00 -0.49409577026E+02  0.49409577026E+02  0.00000000000E+00 0.  1.
         21    1    1    2  503  504  0.96319891453E+01 -0.88148463244E+02  0.30246897678E+03  0.31519899857E+03  0.00000000000E+00 0.  1.
         21    1    1    2  504  501 -0.21596900744E+02 -0.22285483395E+02  0.29354641245E+03  0.29518225752E+03  0.00000000000E+00 0.  1.
         21    1    1    2  505  502  0.47090204787E+02  0.52782942390E+02  0.15730100189E+03  0.17247356780E+03  0.00000000000E+00 0.  1.
         21    1    1    2  506  503 -0.35125293189E+02  0.57651004249E+02 -0.17493598786E+01  0.67531361400E+02  0.00000000000E+00 0.  1.
<scales pt_clust_3="68.83415" pt_clust_4="31.03335" pt_clust_5="60.64519" pt_clust_6="14000.00000"></scales>
<clustering>
<clus scale="   31.033">  1  4  2 -1</clus>
<clus scale="   60.645">  1  5  2 -1</clus>
<clus scale="   68.834">  1  3  2 -1</clus>
<clus scale="   31.033">  1  3  2 -1</clus>
</clustering>
</event>
<event>
 6    0  0.1463946E+003  0.9656053E+02  0.7546771E-02  0.1287700E+00
         21   -1    0    0  503  501  0.00000000000E+00  0.00000000000E+00  0.65408859546E+03  0.65408859546E+03  0.00000000000E+00 0. -1.
         21   -1    0    0  505  502 -0.00000000000E+00 -0.00000000000E+00 -0.24119743949E+04  0.24119743949E+04  0.00000000000E+00 0. -1.
         21    1    1    2  503  502 -0.46885893668E+02  0.51008456953E+02  0.38963708543E+03  0.39574892046E+03  0.00000000000E+00 0. -1.
         21    1    1    2  504  501 -0.49097826897E+02 -0.17113021890E+02  0.18616958237E+03  0.19329398729E+03  0.00000000000E+00 0. -1.
         21    1    1    2  505  506  0.29085728472E+02  0.72423661393E+02 -0.23491603727E+04  0.23504564712E+04  0.00000000000E+00 0. -1.
         21    1    1    2  506  504  0.66897992093E+02 -0.10631909646E+03  0.15467905507E+02  0.12656361135E+03  0.00000000000E+00 0.  1.
<scales pt_clust_3="14000.00000" pt_clust_4="51.99473" pt_clust_5="77.99825" pt_clust_6="96.56053"></scales>
<clustering>
<clus scale="   51.995">  1  4  2 -1</clus>
<clus scale="   77.998">  2  5  1 -1</clus>
<clus scale="   96.561">  2  6  1 -1</clus>
<clus scale="   51.995">  1  3  2 -1</clus>
</clustering>
</event>
<event>
 6    0  0.1463946E+003  0.1440786E+03  0.7546771E-02  0.1207944E+00
         21   -1    0    0  506  501  0.00000000000E+00  0.00000000000E+00  0.12359674190E+04  0.12359674190E+04  0.00000000000E+00 0. -1.
         21   -1    0    0  505  502 -0.00000000000E+00 -0.00000000000E+00 -0.86180336022E+02  0.86180336022E+02  0.00000000000E+00 0. -1.
         21    1    1    2  503  502 -0.45053332078E+02 -0.28405183221E+02 -0.31122766985E+02  0.61686982338E+02  0.00000000000E+00 0.  1.
         21    1    1    2  504  503  0.15509714050E+03 -0.72367517154E+01  0.32043341481E+03  0.35606890751E+03  0.00000000000E+00 0. -1.
         21    1    1    2  505  501 -0.14723625565E+03 -0.71945746614E+02  0.47612103773E+03  0.50353346264E+03  0.00000000000E+00 0. -1.
         21    1    1    2  506  504  0.37192447228E+02  0.10758768155E+03  0.38435539747E+03  0.40085840257E+03  0.00000000000E+00 0. -1.
<scales pt_clust_3="53.26028" pt_clust_4="14000.00000" pt_clust_5="144.07865" pt_clust_6="105.43846"></scales>
<clustering>
<clus scale="   53.260">  2  3  1 -1</clus>
<clus scale="  105.438">  1  6  2 -1</clus>
<clus scale="  144.079">  1  5  2 -1</clus>
<clus scale="  105.438">  1  3  2 -1</clus>
</clustering>
</event>
<event>
 6    0  0.1463946E+003  0.1421451E+03  0.7546771E-02  0.1210471E+00
         21   -1    0    0  504  501  0.00000000000E+00  0.00000000000E+00  0.78970060307E+02  0.78970060307E+02  0.00000000000E+00 0. -1.
         21   -1    0    0  503  502 -0.00000000000E+00 -0.00000000000E+00 -0.19097295043E+04  0.19097295043E+04  0.00000000000E+00 0.  1.
         21    1    1    2  503  506  0.14411090811E+03  0.59386985618E+02 -0.13452426923E+04  0.13542424705E+04  0.00000000000E+00 0.  1.
         21    1    1    2  504  502 -0.35505605866E+02  0.47063483002E+01  0.53914920016E+02  0.64727245906E+02  0.00000000000E+00 0. -1.
         21    1    1    2  505  501  0.11353428753E+02 -0.61241649578E+02 -0.15652647323E+03  0.16846357710E+03  0.00000000000E+00 0. -1.
         21    1    1    2  506  505 -0.11995873100E+03 -0.28516843405E+01 -0.38290519846E+03  0.40126627102E+03  0.00000000000E+00 0. -1.
<scales pt_clust_3="14000.00000" pt_clust_4="35.81617" pt_clust_5="59.81475" pt_clust_6="142.14509"></scales>
<clustering>
<clus scale="   35.816">  1  4  2 -1</clus>
<clus scale="   59.815">  1  5  2 -1</clus>
<clus scale="  142.145">  1  6  2 -1</clus>
<clus scale="   35.816">  1  3  2 -1</clus>
</clustering>
</event>
<event>
 6    0  0.1463946E+003  0.1018603E+03  0.7546771E-02  0.1276432E+00
         21   -1    0    0  504  501  0.00000000000E+00  0.00000000000E+00  0.42665804094E+03  0.42665804094E+03  0.00000000000E+00 0.  1.
         21   -1    0    0  503  502 -0.00000000000E+00 -0.00000000000E+00 -0.16876999297E+04  0.16876999297E+04  0.00000000000E+00 0.  1.
         21    1    1    2  503  506  0.31166277739E+02  0.24321377718E+02 -0.78944692106E+03  0.79043615015E+03  0.00000000000E+00 0.  1.
         21    1    1    2  504  502  0.24475727458E+02  0.53235726445E+02  0.31420076334E+03  0.31961730787E+03  0.00000000000E+00 0.  1.
         21    1    1    2  505  501 -0.11595170979E+03 -0.74414724196E+02  0.64316979078E+02  0.15204941295E+03  0.00000000000E+00 0.  1.
         21    1    1    2  506  505  0.60309704594E+02 -0.31423799672E+01 -0.85011271016E+03  0.85225509972E+03  0.00000000000E+00 0.  1.
<scales pt_clust_3="30.93988" pt_clust_4="58.59269" pt_clust_5="94.40955" pt_clust_6="30.93988"></scales>
<clustering>
<clus scale="   30.940">  3  6 -1 -1</clus>
<clus scale="   58.593">  1  4  2 -1</clus>
<clus scale="   94.410">  1  5  2 -1</clus>
<clus scale="   58.593">  1  3  2 -1</clus>
</clustering>
</event>
<event>
 6    0  0.1463946E+003  0.9575287E+02  0.7546771E-02  0.1289489E+00
         21   -1    0    0  506  501  0.00000000000E+00  0.00000000000E+00  0.76298925513E+02  0.76298925513E+02  0.00000000000E+00 0. -1.
         21   -1    0    0  505  502 -0.00000000000E+00 -0.00000000000E+00 -0.17930281698E+04  0.17930281698E+04  0.00000000000E+00 0.  1.
         21    1    1    2  503  502 -0.44627125387E+02  0.46104889937E+02 -0.65889181266E+03  0.66200880809E+03  0.00000000000E+00 0.  1.
         21    1    1    2  504  501  0.29200012806E+02  0.85899405920E+02  0.36536660124E+01  0.90800319165E+02  0.00000000000E+00 0. -1.
         21    1    1    2  505  504 -0.35943926656E+02  0.41999046551E+00 -0.90291152720E+03  0.90362678591E+03  0.00000000000E+00 0.  1.
         21    1    1    2  506  503  0.51371039236E+02 -0.13242428632E+03 -0.15857957046E+03  0.21289118217E+03  0.00000000000E+00 0.  1.
<scales pt_clust_3="85.08393" pt_clust_4="14000.00000" pt_clust_5="35.94638" pt_clust_6="95.75287"></scales>
<clustering>
<clus scale="   35.946">  2  5  1 -1</clus>
<clus scale="   85.084">  2  3  1 -1</clus>
<clus scale="   95.753">  2  6  1 -1</clus>
<clus scale="   95.753">  1  3  2 -1</clus>
</clustering>
</event>
<event>
 6    0  0.1463946E+003  0.1505150E+03  0.7546771E-02  0.1199842E+00
         21   -1    0    0  503  501  0.00000000000E+00  0.00000000000E+00  0.58414951669E+03  0.58414951669E+03  0.00000000000E+00 0.  1.
         21   -1    0    0  506  502 -0.00000000000E+00 -0.00000000000E+00 -0.23890819555E+03  0.23890819555E+03  0.00000000000E+00 0.  1.
         21    1    1    2  503  505 -0.15858992549E+02 -0.26309775811E+02  0.22898704051E+03  0.23103847444E+03  0.00000000000E+00 0.  1.
         21    1    1    2  504  501 -0.13948360284E+03 -0.10701698210E+02  0.26938317536E+03  0.30354159018E+03  0.00000000000E+00 0.  1.
         21    1    1    2  505  502  0.13914914062E+03  0.72631860829E+01 -0.81301223326E+01  0.13957555695E+03  0.00000000000E+00 0.  1.
         21    1    1    2  506  504  0.16193454761E+02  0.29748287937E+02 -0.14499877239E+03  0.14890209067E+03  0.00000000000E+00 0.  1.
<scales pt_clust_3="30.71989" pt_clust_4="150.51502" pt_clust_5="14000.00000" pt_clust_6="33.70104"></scales>
<clustering>
<clus scale="   30.720">  1  3  2 -1</clus>
<clus scale="   33.701">  2  6  1 -1</clus>
<clus scale="  150.515">  1  4  2 -1</clus>
<clus scale="   30.720">  1  3  2 -1</clus>
</clustering>
</event>
<event>
 6    0  0.1463946E+003  0.1222979E+03  0.7546771E-02  0.1239354E+00
         21   -1    0    0  504  501  0.00000000000E+00  0.00000000000E+00  0.61815997195E+03  0.61815997195E+03  0.00000000000E+00 0.  1.
         21   -1    0    0  503  502 -0.00000000000E+00 -0.00000000000E+00 -0.32215991019E+03  0.32215991019E+03  0.00000000000E+00 0. -1.
         21    1    1    2  503  505  0.88087447525E+02 -0.79991286354E+02 -0.23682322561E+03  0.26503442134E+03  0.00000000000E+00 0. -1.
         21    1    1    2  504  502 -0.84810336150E+02  0.18523820744E+03  0.24559891252E+03  0.31910000383E+03  0.00000000000E+00 0. -1.
         21    1    1    2  505  506  0.33169995577E+02 -0.82442470779E+02  0.27639399577E+02  0.93064203664E+02  0.00000000000E+00 0. -1.
         21    1    1    2  506  501 -0.36447106953E+02 -0.22804450307E+02  0.25958497527E+03  0.26312125331E+03  0.00000000000E+00 0.  1.
<scales pt_clust_3="14000.00000" pt_clust_4="122.29794" pt_clust_5="90.42632" pt_clust_6="42.99342"></scales>
<clustering>
<clus scale="   42.993">  1  6  2 -1</clus>
<clus scale="   90.426">  1  5  2 -1</clus>
<clus scale="  122.298">  1  4  2 -1</clus>
<clus scale="   42.993">  1  3  2 -1</clus>
</clustering>
</event>
<event>
 6    0  0.1463946E+003  0.6596928E+02  0.7546771E-02  0.1374362E+00
         21   -1    0    0  504  501  0.00000000000E+00  0.00000000000E+00  0.55584326351E+03  0.55584326351E+03  0.00000000000E+00 0. -1.
         21   -1    0    0  503  502 -0.00000000000E+00 -0.00000000000E+00 -0.66881819220E+02  0.66881819220E+02  0.00000000000E+00 0. -1.
         21    1    1    2  503  506 -0.52088119721E+02  0.32607170035E+02 -0.14547560144E+02  0.63150861117E+02  0.00000000000E+00 0. -1.
         21    1    1    2  504  505 -0.31882312568E+02 -0.90181397895E+01  0.20113711633E+03  0.20384785568E+03  0.00000000000E+00 0.  1.
         21    1    1    2  505  502  0.38264468909E+02  0.58676073217E+02  0.21923500526E+03  0.23015438010E+03  0.00000000000E+00 0. -1.
         21    1    1    2  506  501  0.45705963380E+02 -0.82265103462E+02  0.83136882842E+02  0.12557198583E+03  0.00000000000E+00 0. -1.
<scales pt_clust_3="65.96928" pt_clust_4="33.13320" pt_clust_5="55.91476" pt_clust_6="14000.00000"></scales>
<clustering>
<clus scale="   33.133">  1  4  2 -1</clus>
<clus scale="   55.915">  1  5  2 -1</clus>
<clus scale="   65.969">  2  3  1 -1</clus>
<clus scale="   33.133">  1  3  2 -1</clus>
</clustering>
</event>
<event>
 6    0  0.1463946E+003  0.3905678E+03  0.7546771E-02  0.1047096E+00
         21   -1    0    0  505  501  0.00000000000E+00  0.00000000000E+00  0.45392497584E+03  0.45392497584E+03  0.00000000000E+00 0. -1.
         21   -1    0    0  503  502 -0.00000000000E+00 -0.00000000000E+00 -0.14671380184E+04  0.14671380184E+04  0.00000000000E+00 0. -1.
         21    1    1    2  503  506 -0.35598630778E+02 -0.84888679551E+02 -0.46134963381E+03  0.47044323254E+03  0.00000000000E+00 0.  1.
         21    1    1    2  504  501 -0.66955665593E+02  0.10385507644E+02  0.11837343763E+03  0.13639351400E+03  0.00000000000E+00 0. -1.
         21    1    1    2  505  502  0.18734501031E+03  0.43353685961E+03 -0.79507302753E+03  0.92476671687E+03  0.00000000000E+00 0. -1.
         21    1    1    2  506  504 -0.84790713941E+02 -0.35903368770E+03  0.12483618110E+03  0.38945953087E+03  0.00000000000E+00 0. -1.
<scales pt_clust_3="92.28253" pt_clust_4="67.75633" pt_clust_5="390.56779" pt_clust_6="14000.00000"></scales>
<clustering>
<clus scale="   67.756">  1  4  2 -1</clus>
<clus scale="   92.283">  2  3  1 -1</clus>
<clus scale="  390.568">  2  5  1 -1</clus>
<clus scale="   67.756">  1  3  2 -1</clus>
</clustering>
</event>
<event>
 6    0  0.1463946E+003  0.1178663E+03  0.7546771E-02  0.1246659E+00
         21   -1    0    0  506  501  0.00000000000E+00  0.00000000000E+00  0.18723285098E+04  0.18723285098E+04  0.00000000000E+00 0. -1.
         21   -1    0    0  503  502 -0.00000000000E+00 -0.00000000000E+00 -0.82431007060E+02  0.82431007060E+02  0.00000000000E+00 0. -1.
         21    1    1    2  503  501 -0.73937369405E+01 -0.62008505827E+02  0.92534052850E+02  0.11163455145E+03  0.00000000000E+00 0.  1.
         21    1    1    2  504  502 -0.29384358918E+02 -0.71337841558E+02 -0.47204118364E+02  0.90447537156E+02  0.00000000000E+00 0. -1.
         21    1    1    2  505  504  0.43314550419E+02  0.63003993104E+02  0.47216520290E+03  0.47831541084E+03  0.00000000000E+00 0. -1.
         21    1    1    2  506  505 -0.65364545608E+01  0.70342354281E+02  0.12724023653E+04  0.12743620174E+04  0.00000000000E+00 0. -1.
<scales pt_clust_3="62.44776" pt_clust_4="117.86629" pt_clust_5="14000.00000" pt_clust_6="69.82473"></scales>
<clustering>
<clus scale="   62.448">  2  3  1 -1</clus>
<clus scale="   69.825">  1  6  2 -1</clus>
<clus scale="  117.866">  2  4  1 -1</clus>
<clus scale="   69.825">  1  3  2 -1</clus>
</clustering>
</event>
<event>
 6    0  0.1463946E+003  0.1096924E+03  0.7546771E-02  0.1261141E+00
         21   -1    0    0  504  501  0.00000000000E+00  0.00000000000E+00  0.88031917295E+03  0.88031917295E+03  0.00000000000E+00 0. -1.
         21   -1    0    0  506  502 -0.00000000000E+00 -0.00000000000E+00 -0.25752987487E+03  0.25752987487E+03  0.00000000000E+00 0.  1.
         21    1    1    2  503  501 -0.38846693501E+02 -0.42295368197E+02  0.45817120414E+03  0.46175623013E+03  0.00000000000E+00 0. -1.
         21    1    1    2  504  505  0.11751616510E+03  0.65677229892E+02  0.19848788704E+03  0.23983533703E+03  0.00000000000E+00 0. -1.
         21    1    1    2  505  502 -0.42907241924E+02  0.82728941599E+02 -0.20874551612E+03  0.22860402378E+03  0.00000000000E+00 0.  1.
         21    1    1    2  506  503 -0.35762229680E+02 -0.10611080329E+03  0.17487572303E+03  0.20765345688E+03  0.00000000000E+00 0. -1.
<scales pt_clust_3="57.42790" pt_clust_4="14000.00000" pt_clust_5="92.73829" pt_clust_6="109.69241"></scales>
<clustering>
<clus scale="   57.428">  1  3  2 -1</clus>
<clus scale="   92.738">  2  5  1 -1</clus>
<clus scale="  109.692">  2  6  1 -1</clus>
<clus scale="   57.428">  1  3  2 -1</clus>
</clustering>
</event>
<event>
 6    0  0.1463946E+003  0.8322048E+02  0.7546771E-02  0.1320153E+00
         21   -1    0    0  505  501  0.00000000000E+00  0.00000000000E+00  0.62758404239E+03  0.62758404239E+03  0.00000000000E+00 0.  1.
         21   -1    0    0  506  502 -0.00000000000E+00 -0.00000000000E+00 -0.99756770043E+02  0.99756770043E+02  0.00000000000E+00 0.  1.
         21    1    1    2  503  501 -0.68087901371E+02 -0.33774736069E+02  0.30933795347E+03  0.31853832512E+03  0.00000000000E+00 0.  1.
         21    1    1    2  504  503  0.12677396500E+03 -0.28647650123E+02  0.23417965572E+03  0.26782911943E+03  0.00000000000E+00 0.  1.
         21    1    1    2  505  502 -0.29739230073E+02  0.32869707536E+02  0.47803703206E+02  0.65192281130E+02  0.00000000000E+00 0.  1.
         21    1    1    2  506  504 -0.28946833560E+02  0.29552678657E+02 -0.63494040049E+02  0.75781086761E+02  0.00000000000E+00 0.  1.
<scales pt_clust_3="14000.00000" pt_clust_4="83.22048" pt_clust_5="56.26042" pt_clust_6="41.36762"></scales>
<clustering>
<clus scale="   41.368">  2  6  1 -1</clus>
<clus scale="   56.260">  2  5  1 -1</clus>
<clus scale="   83.220">  2  4  1 -1</clus>
<clus scale="   83.220">  1  3  2 -1</clus>
</clustering>
</event>
<event>
 6    0  0.1463946E+003  0.1586258E+03  0.7546771E-02  0.1190257E+00
         21   -1    0    0  503  501  0.00000000000E+00  0.00000000000E+00  0.44326899929E+03  0.44326899929E+03  0.00000000000E+00 0.  1.
         21   -1    0    0  505  502 -0.00000000000E+00 -0.00000000000E+00 -0.78523692181E+03  0.78523692181E+03  0.00000000000E+00 0. -1.
         21    1    1    2  503  506  0.32821951912E+02 -0.10121415830E+03 -0.69778274934E+02  0.12724226507E+03  0.00000000000E+00 0. -1.
         21    1    1    2  504  501 -0.29906934854E+02  0.32507634586E+02  0.30284245049E+03  0.30604692594E+03  0.00000000000E+00 0.  1.
         21    1    1    2  505  504 -0.91062196125E+02 -0.69411987633E+02  0.66962215063E+02  0.13264345380E+03  0.00000000000E+00 0. -1.
         21    1    1    2  506  502  0.88147179067E+02  0.13811851135E+03 -0.64199431314E+03  0.66257327629E+03  0.00000000000E+00 0. -1.
<scales pt_clust_3="98.16776" pt_clust_4="44.17206" pt_clust_5="158.62579" pt_clust_6="14000.00000"></scales>
<clustering>
<clus scale="   44.172">  1  4  2 -1</clus>
<clus scale="   98.168">  1  3  2 -1</clus>
<clus scale="  158.626">  1  5  2 -1</clus>
<clus scale="   44.172">  1  3  2 -1</clus>
</clustering>
</event>
<event>
 6    0  0.1463946E+003  0.1371508E+03  0.7546771E-02  0.1217215E+00
         21   -1    0    0  506  501  0.00000000000E+00  0.00000000000E+00  0.18295403383E+03  0.18295403383E+03  0.00000000000E+00 0.  1.
         21   -1    0    0  503  502 -0.00000000000E+00 -0.00000000000E+00 -0.44157041756E+03  0.44157041756E+03  0.00000000000E+00 0. -1.
         21    1    1    2  503  501  0.50362752394E+02  0.47036608131E+01 -0.36874588117E+02  0.62596058203E+02  0.00000000000E+00 0. -1.
         21    1    1    2  504  502 -0.38330096606E+02 -0.13216953681E+02 -0.89415377411E+02  0.98178377904E+02  0.00000000000E+00 0. -1.
         21    1    1    2  505  504  0.15899989918E+02  0.14214183481E+03 -0.24702562329E+03  0.28544486235E+03  0.00000000000E+00 0. -1.
         21    1    1    2  506  505 -0.27932645707E+02 -0.13362854194E+03  0.11469920508E+03  0.17830515293E+03  0.00000000000E+00 0.  1.
<scales pt_clust_3="44.96924" pt_clust_4="40.54484" pt_clust_5="14000.00000" pt_clust_6="137.15083"></scales>
<clustering>
<clus scale="   40.545">  2  4  1 -1</clus>
<clus scale="   44.969">  2  3  1 -1</clus>
<clus scale="  137.151">  1  6  2 -1</clus>
<clus scale="  137.151">  1  3  2 -1</clus>
</clustering>
</event>
<event>
 6    0  0.1463946E+003  0.9269007E+02  0.7546771E-02  0.1296465E+00
         21   -1    0    0  506  501  0.00000000000E+00  0.00000000000E+00  0.30073061608E+03  0.30073061608E+03  0.00000000000E+00 0. -1.
         21   -1    0    0  505  502 -0.00000000000E+00 -0.00000000000E+00 -0.17911465781E+03  0.17911465781E+03  0.00000000000E+00 0.  1.
         21    1    1    2  503  502 -0.59669032055E+01 -0.33283730538E+02 -0.75921748207E+02  0.83111506443E+02  0.00000000000E+00 0.  1.
         21    1    1    2  504  501 -0.25265797129E+02  0.18247136071E+02  0.53193695609E+02  0.61651340066E+02  0.00000000000E+00 0. -1.
         21    1    1    2  505  504 -0.50751943294E+01  0.11660051046E+03 -0.38414142254E+02  0.12287018744E+03  0.00000000000E+00 0.  1.
         21    1    1    2  506  503  0.36307894664E+02 -0.10156391600E+03  0.18275815312E+03  0.21221223994E+03  0.00000000000E+00 0. -1.
<scales pt_clust_3="33.61742" pt_clust_4="31.16598" pt_clust_5="92.69007" pt_clust_6="14000.00000"></scales>
<clustering>
<clus scale="   31.166">  1  4  2 -1</clus>
<clus scale="   33.617">  2  3  1 -1</clus>
<clus scale="   92.690">  2  5  1 -1</clus>
<clus scale="   31.166">  1  3  2 -1</clus>
</clustering>
</event>
<event>
 6    0  0.1463946E+003  0.1687671E+03  0.7546771E-02  0.1179140E+00
         21   -1    0    0  506  501  0.00000000000E+00  0.00000000000E+00  0.15982259742E+03  0.15982259742E+03  0.00000000000E+00 0.  1.
         21   -1    0    0  504  502 -0.00000000000E+00 -0.00000000000E+00 -0.67739234414E+03  0.67739234414E+03  0.00000000000E+00 0.  1.
         21    1    1    2  503  505 -0.65000307805E+02  0.98311418014E+02 -0.72863768838E+01  0.11808160828E+03  0.00000000000E+00 0.  1.
         21    1    1    2  504  501  0.15012302059E+03  0.90863880144E+02 -0.19463428269E+03  0.26206043201E+03  0.00000000000E+00 0.  1.
         21    1    1    2  505  502 -0.10152400140E+03 -0.13581927231E+03 -0.35182391158E+03  0.39055609373E+03  0.00000000000E+00 0.  1.
         21    1    1    2  506  503  0.16401288615E+02 -0.53356025845E+02  0.36174824433E+02  0.66516807537E+02  0.00000000000E+00 0.  1.
<scales pt_clust_3="90.86420" pt_clust_4="14000.00000" pt_clust_5="168.76710" pt_clust_6="55.81996"></scales>
<clustering>
<clus scale="   55.820">  1  6  2 -1</clus>
<clus scale="   90.864">  1  3  2 -1</clus>
<clus scale="  168.767">  2  5  1 -1</clus>
<clus scale="   55.820">  1  3  2 -1</clus>
</clustering>
</event>
<event>
 6    0  0.1463946E+003  0.1572850E+03  0.7546771E-02  0.1191797E+00
         21   -1    0    0  503  501  0.00000000000E+00  0.00000000000E+00  0.14132674947E+03  0.14132674947E+03  0.00000000000E+00 0.  1.
         21   -1    0    0  505  502 -0.00000000000E+00 -0.00000000000E+00 -0.34405683241E+03  0.34405683241E+03  0.00000000000E+00 0.  1.
         21    1    1    2  503  506  0.14068822357E+02  0.42064052029E+02  0.34138604544E+02  0.55971068918E+02  0.00000000000E+00 0.  1.
         21    1    1    2  504  501 -0.98485967681E+02 -0.10903415806E+03 -0.56417070340E+02  0.15738748133E+03  0.00000000000E+00 0.  1.
         21    1    1    2  505  504  0.50310918697E+02 -0.28480217001E+02 -0.15794842551E+03  0.16819636269E+03  0.00000000000E+00 0.  1.
         21    1    1    2  506  502  0.34106226627E+02  0.95450323035E+02 -0.22503191636E+02  0.10382866895E+03  0.00000000000E+00 0.  1.
<scales pt_clust_3="42.71471" pt_clust_4="143.41906" pt_clust_5="57.81273" pt_clust_6="42.71471"></scales>
<clustering>
<clus scale="   42.715">  3  6 -1 -1</clus>
<clus scale="   57.813">  2  5  1 -1</clus>
<clus scale="  143.419">  2  4  1 -1</clus>
<clus scale="  157.285">  1  3  2 -1</clus>
</clustering>
</event>
<event>
 6    0  0.1463946E+003  0.7822243E+02  0.7546771E-02  0.1334173E+00
         21   -1    0    0  506  501  0.00000000000E+00  0.00000000000E+00  0.43123404061E+03  0.43123404061E+03  0.00000000000E+00 0.  1.
         21   -1    0    0  504  502 -0.00000000000E+00 -0.00000000000E+00 -0.13933760268E+03  0.13933760268E+03  0.00000000000E+00 0. -1.
         21    1    1    2  503  501 -0.65961739765E+02 -0.48810709625E+02  0.26067615420E+03  0.27328646848E+03  0.00000000000E+00 0.  1.
         21    1    1    2  504  503  0.73003593866E+02  0.54744829697E+02 -0.34395831479E+01  0.91314576209E+02  0.00000000000E+00 0. -1.
         21    1    1    2  505  502  0.10041721413E+02 -0.75480592701E+02 -0.53001592844E+02  0.92775669696E+02  0.00000000000E+00 0. -1.
         21    1    1    2  506  505 -0.17083575514E+02  0.69546472629E+02  0.87661459734E+02  0.11319492891E+03  0.00000000000E+00 0.  1.
<scales pt_clust_3="14000.00000" pt_clust_4="78.22243" pt_clust_5="71.86729" pt_clust_6="71.61397"></scales>
<clustering>
<clus scale="   71.614">  1  6  2 -1</clus>
<clus scale="   71.867">  2  5  1 -1</clus>
<clus scale="   78.222">  2  4  1 -1</clus>
<clus scale="   71.614">  1  3  2 -1</clus>
</clustering>
</event>
<event>
 6    0  0.1463946E+003  0.1178791E+03  0.7546771E-02  0.1246637E+00
         21   -1    0    0  503  501  0.00000000000E+00  0.00000000000E+00  0.63289365267E+03  0.63289365267E+03  0.00000000000E+00 0.  1.
         21   -1    0    0  505  502 -0.00000000000E+00 -0.00000000000E+00 -0.38103759856E+03  0.38103759856E+03  0.00000000000E+00 0. -1.
         21    1    1    2  503  506  0.12895669245E+02  0.73986913702E+02  0.21610368370E+03  0.22878191317E+03  0.00000000000E+00 0. -1.
         21    1    1    2  504  502 -0.68673096270E+02 -0.23453549151E+02 -0.29914703777E+03  0.30782302274E+03  0.00000000000E+00 0. -1.
         21    1    1    2  505  501 -0.46111563314E+02 -0.17608911894E+02 -0.54466973829E+02  0.73505110621E+02  0.00000000000E+00 0. -1.
         21    1    1    2  506  504  0.10188899034E+03 -0.32924452657E+02  0.38936638201E+03  0.40382120471E+03  0.00000000000E+00 0.  1.
<scales pt_clust_3="74.60201" pt_clust_4="117.87914" pt_clust_5="49.35940" pt_clust_6="14000.00000"></scales>
<clustering>
<clus scale="   49.359">  2  5  1 -1</clus>
<clus scale="   74.602">  1  3  2 -1</clus>
<clus scale="  117.879">  2  4  1 -1</clus>
<clus scale="   74.602">  1  3  2 -1</clus>
</clustering>
</event>
<event>
 6    0  0.1463946E+003  0.1084500E+03  0.7546771E-02  0.1263467E+00
         21   -1    0    0  506  501  0.00000000000E+00  0.00000000000E+00  0.14824861176E+04  0.14824861176E+04  0.00000000000E+00 0. -1.
         21   -1    0    0  505  502 -0.00000000000E+00 -0.00000000000E+00 -0.14007629606E+03  0.14007629606E+03  0.00000000000E+00 0.  1.
         21    1    1    2  503  501  0.91500121714E+02 -0.57187123391E+02  0.13597218330E+04  0.13639963719E+04  0.00000000000E+00 0. -1.
         21    1    1    2  504  502 -0.51850569051E+01  0.29976516505E+02 -0.77662790556E+02  0.83408545089E+02  0.00000000000E+00 0.  1.
         21    1    1    2  505  503  0.26155294520E+02 -0.21919798454E+02  0.36795616350E+02  0.50184603000E+02  0.00000000000E+00 0. -1.
         21    1    1    2  506  504 -0.11247035933E+03  0.49130405340E+02  0.23555162707E+02  0.12497289365E+03  0.00000000000E+00 0.  1.
<scales pt_clust_3="14000.00000" pt_clust_4="30.42164" pt_clust_5="31.59149" pt_clust_6="108.44999"></scales>
<clustering>
<clus scale="   30.422">  2  4  1 -1</clus>
<clus scale="   31.591">  2  5  1 -1</clus>
<clus scale="  108.450">  2  6  1 -1</clus>
<clus scale="  108.450">  1  3  2 -1</clus>
</clustering>
</event>
<event>
 6    0  0.1653434E+003  0.1139080E+03  0.7546771E-02  0.1253499E+00
         21   -1    0    0  506  501  0.00000000000E+00  0.00000000000E+00  0.25169097322E+03  0.25169097322E+03  0.00000000000E+00 0. -1.
         21   -1    0    0  504  502 -0.00000000000E+00 -0.00000000000E+00 -0.73673223554E+03  0.73673223554E+03  0.00000000000E+00 0.  1.
         21    1    1    2  503  505 -0.48445503715E+02 -0.84878697835E+02 -0.45935488603E+02  0.10798809791E+03  0.00000000000E+00 0.  1.
         21    1    1    2  504  503  0.32189448339E+02  0.11285030441E+03 -0.59443827254E+03  0.60591105919E+03  0.00000000000E+00 0.  1.
         21    1    1    2  505  501 -0.37417833420E+02 -0.32658083225E+02  0.19904253882E+03  0.20514525809E+03  0.00000000000E+00 0. -1.
         21    1    1    2  506  502  0.53673888797E+02  0.46864766473E+01 -0.43710039996E+02  0.69378793578E+02  0.00000000000E+00 0.  1.
<scales pt_clust_3="113.90801" pt_clust_4="14000.00000" pt_clust_5="49.66533" pt_clust_6="44.15195"></scales>
<clustering>
<clus scale="   49.665">  1  5  2 -1</clus>
<clus scale="   44.152">  1  6  2 -1</clus>
<clus scale="  113.908">  1  3  2 -1</clus>
<clus scale="   49.665">  1  3  2 -1</clus>
</clustering>
</event>
<event>
 6    0  0.1463946E+003  0.1028929E+03  0.7546771E-02  0.1274328E+00
         21   -1    0    0  506  501  0.00000000000E+00  0.00000000000E+00  0.36811583749E+03  0.36811583749E+03  0.00000000000E+00 0. -1.
         21   -1    0    0  503  502 -0.00000000000E+00 -0.00000000000E+00 -0.25361562426E+03  0.25361562426E+03  0.00000000000E+00 0.  1.
         21    1    1    2  503  504  0.61365784570E+02  0.83429809578E+02 -0.21444058210E+03  0.23814083206E+03  0.00000000000E+00 0.  1.
         21    1    1    2  504  501 -0.23088428618E+02  0.29277272617E+02  0.15703597017E+02  0.40457844569E+02  0.00000000000E+00 0.  1.
         21    1    1    2  505  502 -0.93442505187E+01 -0.99867020581E+02  0.27910822350E+03  0.29658411496E+03  0.00000000000E+00 0. -1.
         21    1    1    2  506  505 -0.28933105434E+02 -0.12840061613E+02  0.34128974815E+02  0.46548670166E+02  0.00000000000E+00 0.  1.
<scales pt_clust_3="14000.00000" pt_clust_4="38.04782" pt_clust_5="102.89286" pt_clust_6="31.65425"></scales>
<clustering>
<clus scale="   31.654">  1  6  2 -1</clus>
<clus scale="   38.048">  1  4  2 -1</clus>
<clus scale="  102.893">  1  5  2 -1</clus>
<clus scale="   31.654">  1  3  2 -1</clus>
</clustering>
</event>
<event>
 6    0  0.1463946E+003  0.1268229E+03  0.7546771E-02  0.1232248E+00
         21   -1    0    0  504  501  0.00000000000E+00  0.00000000000E+00  0.19894554744E+03  0.19894554744E+03  0.00000000000E+00 0.  1.
         21   -1    0    0  505  502 -0.00000000000E+00 -0.00000000000E+00 -0.33024805529E+03  0.33024805529E+03  0.00000000000E+00 0.  1.
         21    1    1    2  503  501  0.63855963140E+01  0.13911228231E+03  0.86132849607E+00  0.13926142616E+03  0.00000000000E+00 0.  1.
         21    1    1    2  504  506  0.31471187504E+02 -0.62565635356E+02  0.30875736448E+02  0.76538914754E+02  0.00000000000E+00 0.  1.
         21    1    1    2  505  503 -0.14466587897E+03 -0.56351310473E+02 -0.12103496465E+03  0.19685819617E+03  0.00000000000E+00 0.  1.
         21    1    1    2  506  502  0.10680909515E+03 -0.20195336476E+02 -0.42004608134E+02  0.11653506565E+03  0.00000000000E+00 0.  1.
<scales pt_clust_3="111.04575" pt_clust_4="70.03495" pt_clust_5="126.82286" pt_clust_6="14000.00000"></scales>
<clustering>
<clus scale="   70.035">  1  4  2 -1</clus>
<clus scale="  111.046">  1  3  2 -1</clus>
<clus scale="  126.823">  1  5  2 -1</clus>
<clus scale="   70.035">  1  3  2 -1</clus>
</clustering>
</event>
<event>
 6    0  0.1463946E+003  0.1786315E+03  0.7546771E-02  0.1169134E+00
         21   -1    0    0  503  501  0.00000000000E+00  0.00000000000E+00  0.83613905691E+03  0.83613905691E+03  0.00000000000E+00 0. -1.
         21   -1    0    0  505  502 -0.00000000000E+00 -0.00000000000E+00 -0.20678149097E+03  0.20678149097E+03  0.00000000000E+00 0.  1.
         21    1    1    2  503  502  0.85037133567E+02 -0.59151948404E+02  0.71247622413E+03  0.71996710830E+03  0.00000000000E+00 0. -1.
         21    1    1    2  504  501  0.35780012404E+02 -0.49544472770E+02  0.64513783922E+02  0.88864460757E+02  0.00000000000E+00 0.  1.
         21    1    1    2  505  506 -0.55448512867E+02  0.60164540001E+01 -0.70866087691E+02  0.90181692613E+02  0.00000000000E+00 0.  1.
         21    1    1    2  506  504 -0.65368633104E+02  0.10267996717E+03 -0.76766354420E+02  0.14390728621E+03  0.00000000000E+00 0.  1.
<scales pt_clust_3="159.11823" pt_clust_4="61.11353" pt_clust_5="54.95337" pt_clust_6="54.95337"></scales>
<clustering>
<clus scale="   54.953">  5  6 -1 -1</clus>
<clus scale="   61.114">  1  4  2 -1</clus>
<clus scale="  159.118">  1  3  2 -1</clus>
<clus scale="   61.114">  1  3  2 -1</clus>
</clustering>
</event>
<event>
 6    0  0.1463946E+003  0.7881252E+02  0.7546771E-02  0.1332455E+00
         21   -1    0    0  506  501  0.00000000000E+00  0.00000000000E+00  0.21011795346E+04  0.21011795346E+04  0.00000000000E+00 0. -1.
         21   -1    0    0  503  502 -0.00000000000E+00 -0.00000000000E+00 -0.11000920859E+03  0.11000920859E+03  0.00000000000E+00 0.  1.
         21    1    1    2  503  504 -0.72708613258E+01  0.69466545054E+02 -0.47296998060E+02  0.84353259164E+02  0.00000000000E+00 0.  1.
         21    1    1    2  504  501 -0.69477745461E+02 -0.70647134369E+01  0.63750192404E+03  0.64131565585E+03  0.00000000000E+00 0. -1.
         21    1    1    2  505  502  0.47968487672E+02 -0.12894063635E+03  0.73312387099E+02  0.15588896566E+03  0.00000000000E+00 0. -1.
         21    1    1    2  506  505  0.28780119114E+02  0.66538804732E+02  0.13276530130E+04  0.13296308625E+04  0.00000000000E+00 0. -1.
<scales pt_clust_3="78.81252" pt_clust_4="69.83600" pt_clust_5="14000.00000" pt_clust_6="69.24892"></scales>
<clustering>
<clus scale="   69.836">  1  4  2 -1</clus>
<clus scale="   69.249">  1  6  2 -1</clus>
<clus scale="   78.813">  2  3  1 -1</clus>
<clus scale="   69.836">  1  3  2 -1</clus>
</clustering>
</event>
<event>
 6    0  0.1463946E+003  0.7896687E+02  0.7546771E-02  0.1332009E+00
         21   -1    0    0  506  501  0.00000000000E+00  0.00000000000E+00  0.17928005187E+03  0.17928005187E+03  0.00000000000E+00 0. -1.
         21   -1    0    0  503  502 -0.00000000000E+00 -0.00000000000E+00 -0.98946690564E+03  0.98946690564E+03  0.00000000000E+00 0. -1.
         21    1    1    2  503  501 -0.15144068662E+02  0.42676472417E+02 -0.34540485827E+02  0.56953220056E+02  0.00000000000E+00 0.  1.
         21    1    1    2  504  502 -0.54322103058E+02 -0.58989269271E+02 -0.91168928549E+03  0.91520925369E+03  0.00000000000E+00 0. -1.
         21    1    1    2  505  504  0.11794250190E+02  0.56885196052E+02  0.21240887084E+02  0.61856326689E+02  0.00000000000E+00 0. -1.
         21    1    1    2  506  505  0.57671921531E+02 -0.40572399198E+02  0.11480203046E+03  0.13472815707E+03  0.00000000000E+00 0. -1.
<scales pt_clust_3="45.28382" pt_clust_4="78.96687" pt_clust_5="14000.00000" pt_clust_6="47.27404"></scales>
<clustering>
<clus scale="   45.284">  1  3  2 -1</clus>
<clus scale="   47.274">  1  6  2 -1</clus>
<clus scale="   78.967">  2  4  1 -1</clus>
<clus scale="   45.284">  1  3  2 -1</clus>
</clustering>
</event>
<event>
 6    0  0.1463946E+003  0.9478472E+02  0.7546771E-02  0.1291662E+00
         21   -1    0    0  503  501  0.00000000000E+00  0.00000000000E+00  0.34583624306E+03  0.34583624306E+03  0.00000000000E+00 0.  1.
         21   -1    0    0  506  502 -0.00000000000E+00 -0.00000000000E+00 -0.13772950603E+04  0.13772950603E+04  0.00000000000E+00 0. -1.
         21    1    1    2  503  504 -0.35365346185E+02  0.41785134110E+02  0.22272717458E+03  0.22935583585E+03  0.00000000000E+00 0.  1.
         21    1    1    2  504  502  0.15898780651E+03 -0.30629113857E+02 -0.16695575050E+03  0.23257146828E+03  0.00000000000E+00 0.  1.
         21    1    1    2  505  501 -0.59990797619E+02 -0.26448211220E+02  0.73579339372E+02  0.98551117995E+02  0.00000000000E+00 0.  1.
         21    1    1    2  506  505 -0.63631662711E+02  0.15292190968E+02 -0.11608095807E+04  0.11626528813E+04  0.00000000000E+00 0. -1.
<scales pt_clust_3="54.74217" pt_clust_4="94.78472" pt_clust_5="14000.00000" pt_clust_6="65.78355"></scales>
<clustering>
<clus scale="   54.742">  1  3  2 -1</clus>
<clus scale="   65.784">  2  6  1 -1</clus>
<clus scale="   94.785">  2  4  1 -1</clus>
<clus scale="   54.742">  1  3  2 -1</clus>
</clustering>
</event>
<event>
 6    0  0.1463946E+003  0.1088883E+03  0.7546771E-02  0.1262643E+00
         21   -1    0    0  504  501  0.00000000000E+00  0.00000000000E+00  0.12271568951E+03  0.12271568951E+03  0.00000000000E+00 0. -1.
         21   -1    0    0  505  502 -0.00000000000E+00 -0.00000000000E+00 -0.36180436605E+03  0.36180436605E+03  0.00000000000E+00 0.  1.
         21    1    1    2  503  501  0.86297163615E+02  0.93292282324E+02  0.31660300804E+02  0.13096955767E+03  0.00000000000E+00 0. -1.
         21    1    1    2  504  502 -0.54126297526E+02  0.20849607067E+01 -0.20377339705E+03  0.21084971067E+03  0.00000000000E+00 0.  1.
         21    1    1    2  505  506  0.22553818590E+02 -0.28592415783E+02 -0.35339090633E+02  0.50744973151E+02  0.00000000000E+00 0.  1.
         21    1    1    2  506  503 -0.54724684678E+02 -0.66784827248E+02 -0.31636489652E+02  0.91955814069E+02  0.00000000000E+00 0.  1.
<scales pt_clust_3="108.88828" pt_clust_4="42.77311" pt_clust_5="36.41704" pt_clust_6="14000.00000"></scales>
<clustering>
<clus scale="   36.417">  2  5  1 -1</clus>
<clus scale="   42.773">  2  4  1 -1</clus>
<clus scale="  108.888">  1  3  2 -1</clus>
<clus scale="  108.888">  1  3  2 -1</clus>
</clustering>
</event>
<event>
 6    0  0.1463946E+003  0.8195147E+02  0.7546771E-02  0.1323603E+00
         21   -1    0    0  506  501  0.00000000000E+00  0.00000000000E+00  0.43731785557E+03  0.43731785557E+03  0.00000000000E+00 0.  1.
         21   -1    0    0  504  502 -0.00000000000E+00 -0.00000000000E+00 -0.95171481785E+02  0.95171481785E+02  0.00000000000E+00 0.  1.
         21    1    1    2  503  502  0.14226327910E+02 -0.74350627483E+02 -0.32386310361E+02  0.82336366884E+02  0.00000000000E+00 0.  1.
         21    1    1    2  504  505 -0.90619364748E+01  0.10465232474E+03  0.60216322642E+02  0.12107945028E+03  0.00000000000E+00 0.  1.
         21    1    1    2  505  501 -0.24542692629E+02  0.18083208543E+02  0.42487118970E+02  0.52292460939E+02  0.00000000000E+00 0. -1.
         21    1    1    2  506  503  0.19378301194E+02 -0.48384905803E+02  0.27182924253E+03  0.27678105925E+03  0.00000000000E+00 0.  1.
<scales pt_clust_3="81.95147" pt_clust_4="14000.00000" pt_clust_5="30.48518" pt_clust_6="35.72634"></scales>
<clustering>
<clus scale="   30.485">  1  5  2 -1</clus>
<clus scale="   35.726">  1  6  2 -1</clus>
<clus scale="   81.951">  2  3  1 -1</clus>
<clus scale="   30.485">  1  3  2 -1</clus>
</clustering>
</event>
<event>
 6    0  0.1463946E+003  0.1148446E+03  0.7546771E-02  0.1251853E+00
         21   -1    0    0  503  501  0.00000000000E+00  0.00000000000E+00  0.86005182280E+02  0.86005182280E+02  0.00000000000E+00 0. -1.
         21   -1    0    0  506  502 -0.00000000000E+00 -0.00000000000E+00 -0.17901098518E+04  0.17901098518E+04  0.00000000000E+00 0. -1.
         21    1    1    2  503  505  0.53250520452E+02 -0.61603337962E+02 -0.11921043544E+03  0.14436660658E+03  0.00000000000E+00 0. -1.
         21    1    1    2  504  501 -0.15044274796E+03  0.60886117295E+01 -0.28378372429E+02  0.15321691691E+03  0.00000000000E+00 0. -1.
         21    1    1    2  505  502  0.11314943165E+03 -0.64607184458E+02 -0.10324101600E+04  0.10405996447E+04  0.00000000000E+00 0. -1.
         21    1    1    2  506  504 -0.15957204142E+02  0.12012191069E+03 -0.52410570162E+03  0.53793186582E+03  0.00000000000E+00 0. -1.
<scales pt_clust_3="81.42843" pt_clust_4="110.91193" pt_clust_5="14000.00000" pt_clust_6="114.84463"></scales>
<clustering>
<clus scale="   81.428">  1  3  2 -1</clus>
<clus scale="  114.845">  2  6  1 -1</clus>
<clus scale="  110.912">  1  4  2 -1</clus>
<clus scale="   81.428">  1  3  2 -1</clus>
</clustering>
</event>
<event>
 6    0  0.1463946E+003  0.7330048E+02  0.7546771E-02  0.1349216E+00
         21   -1    0    0  504  501  0.00000000000E+00  0.00000000000E+00  0.10890337839E+03  0.10890337839E+03  0.00000000000E+00 0. -1.
         21   -1    0    0  503  502 -0.00000000000E+00 -0.00000000000E+00 -0.22057936950E+03  0.22057936950E+03  0.00000000000E+00 0. -1.
         21    1    1    2  503  505  0.78557102842E+02  0.33050297781E+02 -0.94600674590E+02  0.12732960466E+03  0.00000000000E+00 0. -1.
         21    1    1    2  504  506 -0.92062841092E+02 -0.41893970552E+02  0.12357736012E+02  0.10189889655E+03  0.00000000000E+00 0. -1.
         21    1    1    2  505  501  0.45075203582E+02  0.14836110821E+02  0.10896136584E+02  0.48688909976E+02  0.00000000000E+00 0. -1.
         21    1    1    2  506  502 -0.31569465332E+02 -0.59924380497E+01 -0.40329189117E+02  0.51565336709E+02  0.00000000000E+00 0. -1.
<scales pt_clust_3="73.30048" pt_clust_4="14000.00000" pt_clust_5="44.00883" pt_clust_6="32.13317"></scales>
<clustering>
<clus scale="   32.133">  2  6  1 -1</clus>
<clus scale="   44.009">  1  5  2 -1</clus>
<clus scale="   73.300">  2  3  1 -1</clus>
<clus scale="   44.009">  1  3  2 -1</clus>
</clustering>
</event>
<event>
 6    0  0.1463946E+003  0.1026880E+03  0.7546771E-02  0.1274743E+00
         21   -1    0    0  505  501  0.00000000000E+00  0.00000000000E+00  0.16005374033E+03  0.16005374033E+03  0.00000000000E+00 0.  1.
         21   -1    0    0  504  502 -0.00000000000E+00 -0.00000000000E+00 -0.51912787249E+03  0.51912787249E+03  0.00000000000E+00 0.  1.
         21    1    1    2  503  502 -0.71227966614E+01 -0.96198710872E+02 -0.11639148094E+03  0.15116845915E+03  0.00000000000E+00 0.  1.
         21    1    1    2  504  506 -0.66803518800E+02 -0.55442962764E+02 -0.26991798774E+03  0.28353545166E+03  0.00000000000E+00 0.  1.
         21    1    1    2  505  503  0.94780534632E+02  0.58702728866E+02  0.78459292871E+02  0.13632762288E+03  0.00000000000E+00 0.  1.
         21    1    1    2  506  501 -0.20854219170E+02  0.92938944770E+02 -0.51223956353E+02  0.10815007913E+03  0.00000000000E+00 0.  1.
<scales pt_clust_3="14000.00000" pt_clust_4="86.81378" pt_clust_5="102.68798" pt_clust_6="86.11108"></scales>
<clustering>
<clus scale="   86.814">  2  4  1 -1</clus>
<clus scale="   86.111">  2  6  1 -1</clus>
<clus scale="  102.688">  1  5  2 -1</clus>
<clus scale="  102.688">  1  3  2 -1</clus>
</clustering>
</event>
<event>
 6    0  0.1463946E+003  0.1233543E+03  0.7546771E-02  0.1237664E+00
         21   -1    0    0  506  501  0.00000000000E+00  0.00000000000E+00  0.39991446842E+04  0.39991446842E+04  0.00000000000E+00 0.  1.
         21   -1    0    0  503  502 -0.00000000000E+00 -0.00000000000E+00 -0.11374754793E+03  0.11374754793E+03  0.00000000000E+00 0.  1.
         21    1    1    2  503  504  0.29307334314E+02 -0.19915984209E+02 -0.48308168842E+02  0.59910311704E+02  0.00000000000E+00 0.  1.
         21    1    1    2  504  505  0.77425127896E+02 -0.21931256976E+02 -0.26983944382E+02  0.84874988757E+02  0.00000000000E+00 0.  1.
         21    1    1    2  505  501 -0.96476698883E+02 -0.28139612904E+02  0.35463249885E+04  0.35477486544E+04  0.00000000000E+00 0.  1.
         21    1    1    2  506  502 -0.10255763327E+02  0.69986854089E+02  0.41436426105E+03  0.42035827726E+03  0.00000000000E+00 0.  1.
<scales pt_clust_3="30.77489" pt_clust_4="30.77489" pt_clust_5="114.30407" pt_clust_6="70.73429"></scales>
<clustering>
<clus scale="   30.775">  3  4 -1 -1</clus>
<clus scale="   70.734">  1  6  2 -1</clus>
<clus scale="  114.304">  1  5  2 -1</clus>
<clus scale="   70.734">  1  3  2 -1</clus>
</clustering>
</event>
<event>
 6    0  0.1463946E+003  0.1225451E+03  0.7546771E-02  0.1238957E+00
         21   -1    0    0  504  501  0.00000000000E+00  0.00000000000E+00  0.11937937182E+04  0.11937937182E+04  0.00000000000E+00 0.  1.
         21   -1    0    0  506  502 -0.00000000000E+00 -0.00000000000E+00 -0.40395844934E+02  0.40395844934E+02  0.00000000000E+00 0. -1.
         21    1    1    2  503  505 -0.12083567101E+01 -0.49757123948E+02  0.26389270948E+03  0.26854532881E+03  0.00000000000E+00 0.  1.
         21    1    1    2  504  503 -0.11745826782E+02  0.34570891707E+02  0.51340235016E+03  0.51469902287E+03  0.00000000000E+00 0. -1.
         21    1    1    2  505  502 -0.86666370479E+02 -0.74340274466E+02  0.15662559288E+03  0.19382753293E+03  0.00000000000E+00 0.  1.
         21    1    1    2  506  501  0.99620553971E+02  0.89526506706E+02  0.21947722077E+03  0.25711767853E+03  0.00000000000E+00 0. -1.
<scales pt_clust_3="36.68038" pt_clust_4="36.51179" pt_clust_5="14000.00000" pt_clust_6="122.54508"></scales>
<clustering>
<clus scale="   36.512">  1  4  2 -1</clus>
<clus scale="   36.680">  1  3  2 -1</clus>
<clus scale="  122.545">  1  6  2 -1</clus>
<clus scale="   36.512">  1  3  2 -1</clus>
</clustering>
</event>
<event>
 6    0  0.1463946E+003  0.1193131E+03  0.7546771E-02  0.1244235E+00
         21   -1    0    0  504  501  0.00000000000E+00  0.00000000000E+00  0.10276325299E+04  0.10276325299E+04  0.00000000000E+00 0.  1.
         21   -1    0    0  501  502 -0.00000000000E+00 -0.00000000000E+00 -0.87329322909E+02  0.87329322909E+02  0.00000000000E+00 0. -1.
         21    1    1    2  503  502 -0.39998811601E+01  0.45304072851E+02 -0.41685549777E+02  0.61693947243E+02  0.00000000000E+00 0. -1.
         21    1    1    2  504  506 -0.15696378605E+02 -0.50596871540E+02  0.43617375269E+03  0.43937906441E+03  0.00000000000E+00 0.  1.
         21    1    1    2  505  503  0.12450774361E+03 -0.41464517913E+02  0.13885542808E+03  0.19105578863E+03  0.00000000000E+00 0.  1.
         21    1    1    2  506  505 -0.10481148384E+03  0.46757316602E+02  0.40695957603E+03  0.42283305254E+03  0.00000000000E+00 0.  1.
<scales pt_clust_3="45.48030" pt_clust_4="51.08906" pt_clust_5="119.31308" pt_clust_6="14000.00000"></scales>
<clustering>
<clus scale="   45.480">  2  3  1 -1</clus>
<clus scale="   51.089">  1  4  2 -1</clus>
<clus scale="  119.313">  2  5  1 -1</clus>
<clus scale="   51.089">  1  3  2 -1</clus>
</clustering>
</event>
<event>
 6    0  0.1463946E+003  0.8657505E+02  0.7546771E-02  0.1311364E+00
         21   -1    0    0  504  501  0.00000000000E+00  0.00000000000E+00  0.29956209987E+03  0.29956209987E+03  0.00000000000E+00 0.  1.
         21   -1    0    0  506  502 -0.00000000000E+00 -0.00000000000E+00 -0.27087325307E+03  0.27087325307E+03  0.00000000000E+00 0.  1.
         21    1    1    2  503  501 -0.49745824030E+02 -0.21354126319E+02  0.50680838623E+02  0.74156544707E+02  0.00000000000E+00 0.  1.
         21    1    1    2  504  505 -0.33096440773E+02  0.49388918370E+02  0.20589135255E+03  0.21430326340E+03  0.00000000000E+00 0.  1.
         21    1    1    2  505  502  0.10609775277E+03 -0.62643279556E+02 -0.18399221624E+03  0.22143633228E+03  0.00000000000E+00 0.  1.
         21    1    1    2  506  503 -0.23255487963E+02  0.34608487504E+02 -0.43891128132E+02  0.60539212552E+02  0.00000000000E+00 0.  1.
<scales pt_clust_3="54.59409" pt_clust_4="14000.00000" pt_clust_5="86.57505" pt_clust_6="41.69610"></scales>
<clustering>
<clus scale="   41.696">  2  6  1 -1</clus>
<clus scale="   54.594">  1  3  2 -1</clus>
<clus scale="   86.575">  2  5  1 -1</clus>
<clus scale="   54.594">  1  3  2 -1</clus>
</clustering>
</event>
<event>
 6    0  0.1463946E+003  0.8183215E+02  0.7546771E-02  0.1323931E+00
         21   -1    0    0  506  501  0.00000000000E+00  0.00000000000E+00  0.60807392841E+03  0.60807392841E+03  0.00000000000E+00 0.  1.
         21   -1    0    0  503  502 -0.00000000000E+00 -0.00000000000E+00 -0.14493371023E+03  0.14493371023E+03  0.00000000000E+00 0.  1.
         21    1    1    2  503  501 -0.43643649649E+02  0.11933360380E+03  0.11230851692E+02  0.12755943392E+03  0.00000000000E+00 0.  1.
         21    1    1    2  504  502  0.32593810547E+02 -0.63791476622E+02 -0.64920301732E+02  0.96676546032E+02  0.00000000000E+00 0.  1.
         21    1    1    2  505  504 -0.19084627172E+02 -0.37712077966E+02  0.79451925960E+02  0.89994624048E+02  0.00000000000E+00 0.  1.
         21    1    1    2  506  505  0.30134466274E+02 -0.17830049217E+02  0.43737774226E+03  0.43877703465E+03  0.00000000000E+00 0.  1.
<scales pt_clust_3="81.83215" pt_clust_4="14000.00000" pt_clust_5="46.77533" pt_clust_6="35.01424"></scales>
<clustering>
<clus scale="   35.014">  1  6  2 -1</clus>
<clus scale="   46.775">  1  5  2 -1</clus>
<clus scale="   81.832">  1  3  2 -1</clus>
<clus scale="   35.014">  1  3  2 -1</clus>
</clustering>
</event>
<event>
 6    0  0.1463946E+003  0.6820662E+02  0.7546771E-02  0.1366300E+00
         21   -1    0    0  506  501  0.00000000000E+00  0.00000000000E+00  0.13007785505E+04  0.13007785505E+04  0.00000000000E+00 0.  1.
         21   -1    0    0  503  502 -0.00000000000E+00 -0.00000000000E+00 -0.97005990360E+02  0.97005990360E+02  0.00000000000E+00 0.  1.
         21    1    1    2  503  501 -0.24162136564E+02  0.53315164307E+02  0.59204103729E+03  0.59492764722E+03  0.00000000000E+00 0.  1.
         21    1    1    2  504  502  0.16974471516E+02  0.65016756631E+02 -0.72547267000E+02  0.98885880060E+02  0.00000000000E+00 0.  1.
         21    1    1    2  505  504 -0.47640207063E+02 -0.93787211627E+02  0.44578885137E+03  0.45803201897E+03  0.00000000000E+00 0.  1.
         21    1    1    2  506  505  0.54827872111E+02 -0.24544709311E+02  0.23848993846E+03  0.24593899459E+03  0.00000000000E+00 0.  1.
<scales pt_clust_3="58.53474" pt_clust_4="14000.00000" pt_clust_5="68.20662" pt_clust_6="46.97608"></scales>
<clustering>
<clus scale="   58.535">  1  3  2 -1</clus>
<clus scale="   46.976">  1  6  2 -1</clus>
<clus scale="   68.207">  1  5  2 -1</clus>
<clus scale="   58.535">  1  3  2 -1</clus>
</clustering>
</event>
<event>
 6    0  0.1463946E+003  0.1158794E+03  0.7546771E-02  0.1250054E+00
         21   -1    0    0  505  501  0.00000000000E+00  0.00000000000E+00  0.35003145271E+03  0.35003145271E+03  0.00000000000E+00 0. -1.
         21   -1    0    0  504  502 -0.00000000000E+00 -0.00000000000E+00 -0.82995605248E+03  0.82995605248E+03  0.00000000000E+00 0.  1.
         21    1    1    2  503  506  0.10456769837E+03 -0.31410083901E+02 -0.29932833992E+03  0.31861960391E+03  0.00000000000E+00 0.  1.
         21    1    1    2  504  503 -0.40998117384E+01 -0.40478251432E+02 -0.41270243278E+03  0.41470302063E+03  0.00000000000E+00 0.  1.
         21    1    1    2  505  502  0.12654162330E+02  0.44720176864E+02  0.30556236470E+03  0.30907665840E+03  0.00000000000E+00 0. -1.
         21    1    1    2  506  501 -0.11312204896E+03  0.27168158469E+02 -0.73456191770E+02  0.13758822226E+03  0.00000000000E+00 0. -1.
<scales pt_clust_3="14000.00000" pt_clust_4="40.68534" pt_clust_5="46.30692" pt_clust_6="115.87945"></scales>
<clustering>
<clus scale="   40.685">  2  4  1 -1</clus>
<clus scale="   46.307">  1  5  2 -1</clus>
<clus scale="  115.879">  1  6  2 -1</clus>
<clus scale="   46.307">  1  3  2 -1</clus>
</clustering>
</event>
<event>
 6    0  0.1463946E+003  0.8253942E+02  0.7546771E-02  0.1321996E+00
         21   -1    0    0  504  501  0.00000000000E+00  0.00000000000E+00  0.18508527767E+03  0.18508527767E+03  0.00000000000E+00 0.  1.
         21   -1    0    0  503  502 -0.00000000000E+00 -0.00000000000E+00 -0.10262584068E+03  0.10262584068E+03  0.00000000000E+00 0.  1.
         21    1    1    2  503  505 -0.17680539968E+02 -0.46108599631E+02  0.20807850181E+02  0.53587042115E+02  0.00000000000E+00 0.  1.
         21    1    1    2  504  506 -0.77635134912E+02  0.34947160552E+02  0.64524182217E+02  0.10682644005E+03  0.00000000000E+00 0.  1.
         21    1    1    2  505  501  0.70941379887E+02 -0.29444558985E+02 -0.15335973999E+02  0.78325305825E+02  0.00000000000E+00 0.  1.
         21    1    1    2  506  502  0.24374294993E+02  0.40605998064E+02  0.12463378587E+02  0.48972330361E+02  0.00000000000E+00 0.  1.
<scales pt_clust_3="40.35357" pt_clust_4="82.53942" pt_clust_5="14000.00000" pt_clust_6="47.35983"></scales>
<clustering>
<clus scale="   47.360">  2  6  1 -1</clus>
<clus scale="   40.354">  2  3  1 -1</clus>
<clus scale="   82.539">  1  4  2 -1</clus>
<clus scale="   82.539">  1  3  2 -1</clus>
</clustering>
</event>
<event>
 6    0  0.1463946E+003  0.1297956E+03  0.7546771E-02  0.1227759E+00
         21   -1    0    0  504  501  0.00000000000E+00  0.00000000000E+00  0.54149593379E+03  0.54149593379E+03  0.00000000000E+00 0. -1.
         21   -1    0    0  503  502 -0.00000000000E+00 -0.00000000000E+00 -0.11726276326E+03  0.11726276326E+03  0.00000000000E+00 0.  1.
         21    1    1    2  503  501 -0.16751193639E+03  0.16802582793E+02  0.27733135910E+03  0.32443066803E+03  0.00000000000E+00 0. -1.
         21    1    1    2  504  505  0.23821110250E+02  0.22494932968E+02  0.11460030142E+03  0.11919184699E+03  0.00000000000E+00 0.  1.
         21    1    1    2  505  506  0.73620727863E+02 -0.75026060536E+02  0.71628520526E+02  0.12719892407E+03  0.00000000000E+00 0.  1.
         21    1    1    2  506  502  0.70070098274E+02  0.35728544776E+02 -0.39327010514E+02  0.87937257974E+02  0.00000000000E+00 0.  1.
<scales pt_clust_3="14000.00000" pt_clust_4="32.76381" pt_clust_5="129.79561" pt_clust_6="80.45477"></scales>
<clustering>
<clus scale="   32.764">  1  4  2 -1</clus>
<clus scale="   80.455">  2  6  1 -1</clus>
<clus scale="  129.796">  2  5  1 -1</clus>
<clus scale="   32.764">  1  3  2 -1</clus>
</clustering>
</event>
<event>
 6    0  0.1463946E+003  0.6977010E+02  0.7546771E-02  0.1360877E+00
         21   -1    0    0  503  501  0.00000000000E+00  0.00000000000E+00  0.12190389188E+03  0.12190389188E+03  0.00000000000E+00 0.  1.
         21   -1    0    0  506  502 -0.00000000000E+00 -0.00000000000E+00 -0.31776091302E+03  0.31776091302E+03  0.00000000000E+00 0.  1.
         21    1    1    2  503  504  0.34228226860E+02  0.49517071519E+02 -0.11307478601E+02  0.61248436373E+02  0.00000000000E+00 0.  1.
         21    1    1    2  504  502  0.42463257597E+02  0.49557596306E+02 -0.19573979529E+03  0.20633262237E+03  0.00000000000E+00 0.  1.
         21    1    1    2  505  501 -0.20978546766E+02 -0.21977788284E+02  0.58446249044E+02  0.65871743787E+02  0.00000000000E+00 0. -1.
         21    1    1    2  506  505 -0.55712937691E+02 -0.77096879540E+02 -0.47255996292E+02  0.10621200237E+03  0.00000000000E+00 0.  1.
<scales pt_clust_3="47.69534" pt_clust_4="69.77010" pt_clust_5="30.38293" pt_clust_6="14000.00000"></scales>
<clustering>
<clus scale="   30.383">  1  5  2 -1</clus>
<clus scale="   47.695">  1  3  2 -1</clus>
<clus scale="   69.770">  2  4  1 -1</clus>
<clus scale="   30.383">  1  3  2 -1</clus>
</clustering>
</event>
<event>
 6    0  0.1463946E+003  0.1165443E+03  0.7546771E-02  0.1248909E+00
         21   -1    0    0  506  501  0.00000000000E+00  0.00000000000E+00  0.19621584877E+03  0.19621584877E+03  0.00000000000E+00 0. -1.
         21   -1    0    0  503  502 -0.00000000000E+00 -0.00000000000E+00 -0.15879656963E+03  0.15879656963E+03  0.00000000000E+00 0. -1.
         21    1    1    2  503  501 -0.36509060170E+02  0.19894768334E+01  0.67638222794E+00  0.36569481614E+02  0.00000000000E+00 0. -1.
         21    1    1    2  504  502 -0.18390370613E+02 -0.30595162262E+02 -0.48646776895E+02  0.60338864651E+02  0.00000000000E+00 0. -1.
         21    1    1    2  505  504  0.20480918472E+02  0.13240344921E+03  0.41351720759E+02  0.14021450065E+03  0.00000000000E+00 0. -1.
         21    1    1    2  506  505  0.34418512311E+02 -0.10379776378E+03  0.44037953047E+02  0.11788957148E+03  0.00000000000E+00 0. -1.
<scales pt_clust_3="39.80824" pt_clust_4="35.69691" pt_clust_5="14000.00000" pt_clust_6="116.54435"></scales>
<clustering>
<clus scale="   35.697">  2  4  1 -1</clus>
<clus scale="   39.808">  2  3  1 -1</clus>
<clus scale="  116.544">  1  6  2 -1</clus>
<clus scale="  116.544">  1  3  2 -1</clus>
</clustering>
</event>
<event>
 6    0  0.1463946E+003  0.1006868E+03  0.7546771E-02  0.1278858E+00
         21   -1    0    0  505  501  0.00000000000E+00  0.00000000000E+00  0.12313545685E+03  0.12313545685E+03  0.00000000000E+00 0. -1.
         21   -1    0    0  506  502 -0.00000000000E+00 -0.00000000000E+00 -0.67394606496E+03  0.67394606496E+03  0.00000000000E+00 0. -1.
         21    1    1    2  503  501  0.72840143307E+02 -0.67529865648E+02  0.77933171615E+02  0.12625192462E+03  0.00000000000E+00 0. -1.
         21    1    1    2  504  502 -0.30314885400E+02 -0.50841024047E+02 -0.16284648808E+03  0.17327083044E+03  0.00000000000E+00 0. -1.
         21    1    1    2  505  504 -0.74646206521E+02  0.10316550604E+03 -0.42353664830E+03  0.44226515829E+03  0.00000000000E+00 0. -1.
         21    1    1    2  506  503  0.32120948613E+02  0.15205383660E+02 -0.42360643350E+02  0.55293608465E+02  0.00000000000E+00 0. -1.
<scales pt_clust_3="100.68683" pt_clust_4="51.53499" pt_clust_5="14000.00000" pt_clust_6="35.53813"></scales>
<clustering>
<clus scale="   35.538">  2  6  1 -1</clus>
<clus scale="   51.535">  2  4  1 -1</clus>
<clus scale="  100.687">  1  3  2 -1</clus>
<clus scale="  100.687">  1  3  2 -1</clus>
</clustering>
</event>
<event>
 6    0  0.1463946E+003  0.9517449E+02  0.7546771E-02  0.1290784E+00
         21   -1    0    0  506  501  0.00000000000E+00  0.00000000000E+00  0.47036418379E+03  0.47036418379E+03  0.00000000000E+00 0. -1.
         21   -1    0    0  504  502 -0.00000000000E+00 -0.00000000000E+00 -0.15646508249E+03  0.15646508249E+03  0.00000000000E+00 0. -1.
         21    1    1    2  503  502 -0.87504745975E+02  0.42562278141E+02 -0.69078271396E+02  0.11933329656E+03  0.00000000000E+00 0. -1.
         21    1    1    2  504  501  0.32334913437E+02  0.24945288658E+02 -0.13471067079E+02  0.43003298727E+02  0.00000000000E+00 0.  1.
         21    1    1    2  505  503  0.62232429392E+02 -0.10082327275E+03  0.72808343295E+02  0.13906567675E+03  0.00000000000E+00 0. -1.
         21    1    1    2  506  505 -0.70625968536E+01  0.33315705949E+02  0.32364009648E+03  0.32542699425E+03  0.00000000000E+00 0. -1.
<scales pt_clust_3="14000.00000" pt_clust_4="42.44713" pt_clust_5="95.17449" pt_clust_6="34.05608"></scales>
<clustering>
<clus scale="   34.056">  1  6  2 -1</clus>
<clus scale="   42.447">  2  4  1 -1</clus>
<clus scale="   95.174">  1  5  2 -1</clus>
<clus scale="   34.056">  1  3  2 -1</clus>
</clustering>
</event>
<event>
 6    0  0.1463946E+003  0.1580702E+03  0.7546771E-02  0.1190893E+00
         21   -1    0    0  503  501  0.00000000000E+00  0.00000000000E+00  0.18981445406E+03  0.18981445406E+03  0.00000000000E+00 0.  1.
         21   -1    0    0  506  502 -0.00000000000E+00 -0.00000000000E+00 -0.10063558054E+04  0.10063558054E+04  0.00000000000E+00 0. -1.
         21    1    1    2  503  502 -0.40151732976E+02  0.29825439512E+02  0.15418867591E+03  0.16209832288E+03  0.00000000000E+00 0.  1.
         21    1    1    2  504  505  0.13094413359E+03 -0.36511523664E+00 -0.61283610902E+03  0.62666944711E+03  0.00000000000E+00 0. -1.
         21    1    1    2  505  501 -0.11664679040E+03 -0.35925702884E+01 -0.12252562217E+03  0.16920965800E+03  0.00000000000E+00 0.  1.
         21    1    1    2  506  504  0.25854389788E+02 -0.25867753987E+02 -0.23536829611E+03  0.23819283151E+03  0.00000000000E+00 0. -1.
<scales pt_clust_3="50.01718" pt_clust_4="30.18464" pt_clust_5="147.39095" pt_clust_6="30.18464"></scales>
<clustering>
<clus scale="   30.185">  4  6 -1 -1</clus>
<clus scale="   50.017">  1  3  2 -1</clus>
<clus scale="  147.391">  1  5  2 -1</clus>
<clus scale="   50.017">  1  3  2 -1</clus>
</clustering>
</event>
<event>
 6    0  0.1463946E+003  0.1174043E+03  0.7546771E-02  0.1247442E+00
         21   -1    0    0  506  501  0.00000000000E+00  0.00000000000E+00  0.17956233188E+04  0.17956233188E+04  0.00000000000E+00 0. -1.
         21   -1    0    0  504  502 -0.00000000000E+00 -0.00000000000E+00 -0.65583403740E+02  0.65583403740E+02  0.00000000000E+00 0. -1.
         21    1    1    2  503  501  0.11299611787E+02 -0.43241915241E+02  0.10951461119E+04  0.10960577315E+04  0.00000000000E+00 0. -1.
         21    1    1    2  504  505  0.13367403200E+03  0.75421041050E+02  0.65064425348E+02  0.16670470812E+03  0.00000000000E+00 0. -1.
         21    1    1    2  505  503 -0.10942924139E+03 -0.17162658978E+02  0.53537702730E+03  0.54671553581E+03  0.00000000000E+00 0. -1.
         21    1    1    2  506  502 -0.35544402392E+02 -0.15016466832E+02  0.34452350509E+02  0.51728747067E+02  0.00000000000E+00 0. -1.
<scales pt_clust_3="44.73930" pt_clust_4="14000.00000" pt_clust_5="117.40433" pt_clust_6="38.58625"></scales>
<clustering>
<clus scale="   38.586">  2  6  1 -1</clus>
<clus scale="   44.739">  1  3  2 -1</clus>
<clus scale="  117.404">  1  5  2 -1</clus>
<clus scale="   44.739">  1  3  2 -1</clus>
</clustering>
</event>
<event>
 6    0  0.1463946E+003  0.1777191E+03  0.7546771E-02  0.1170029E+00
         21   -1    0    0  503  501  0.00000000000E+00  0.00000000000E+00  0.56360668380E+03  0.56360668380E+03  0.00000000000E+00 0.  1.
         21   -1    0    0  506  502 -0.00000000000E+00 -0.00000000000E+00 -0.25856082976E+03  0.25856082976E+03  0.00000000000E+00 0. -1.
         21    1    1    2  503  502  0.92003689418E+02 -0.10780231704E+03 -0.18840274414E+03  0.23575752889E+03  0.00000000000E+00 0. -1.
         21    1    1    2  504  501 -0.24144822002E+02  0.41907580390E+02  0.72930139656E+02  0.87510130807E+02  0.00000000000E+00 0.  1.
         21    1    1    2  505  504 -0.50809915743E+02  0.10880780528E+03  0.43439178905E+03  0.45068504792E+03  0.00000000000E+00 0.  1.
         21    1    1    2  506  505 -0.17048951674E+02 -0.42913068629E+02 -0.13873330514E+02  0.48214805941E+02  0.00000000000E+00 0. -1.
<scales pt_clust_3="166.24958" pt_clust_4="39.86147" pt_clust_5="39.86147" pt_clust_6="46.17573"></scales>
<clustering>
<clus scale="   39.861">  4  5 -1 -1</clus>
<clus scale="   46.176">  2  6  1 -1</clus>
<clus scale="  166.250">  2  3  1 -1</clus>
<clus scale="  177.719">  1  3  2 -1</clus>
</clustering>
</event>
<event>
 6    0  0.1463946E+003  0.1873919E+03  0.7546771E-02  0.1160835E+00
         21   -1    0    0  506  501  0.00000000000E+00  0.00000000000E+00  0.38066990984E+03  0.38066990984E+03  0.00000000000E+00 0.  1.
         21   -1    0    0  504  502 -0.00000000000E+00 -0.00000000000E+00 -0.46255450030E+03  0.46255450030E+03  0.00000000000E+00 0. -1.
         21    1    1    2  503  501  0.39305062776E+02  0.21613939441E+03  0.10113552157E+03  0.24184606571E+03  0.00000000000E+00 0. -1.
         21    1    1    2  504  503 -0.60140766145E+02 -0.55016250632E+02 -0.34417253663E+02  0.88477380928E+02  0.00000000000E+00 0.  1.
         21    1    1    2  505  502  0.43650561539E+01 -0.13009859783E+03 -0.31605100755E+03  0.34180833555E+03  0.00000000000E+00 0. -1.
         21    1    1    2  506  505  0.16470647215E+02 -0.31024545951E+02  0.16744814919E+03  0.17109262795E+03  0.00000000000E+00 0.  1.
<scales pt_clust_3="187.39185" pt_clust_4="82.74688" pt_clust_5="14000.00000" pt_clust_6="35.12556"></scales>
<clustering>
<clus scale="   35.126">  1  6  2 -1</clus>
<clus scale="   82.747">  2  4  1 -1</clus>
<clus scale="  187.392">  1  3  2 -1</clus>
<clus scale="   35.126">  1  3  2 -1</clus>
</clustering>
</event>
<event>
 6    0  0.1463946E+003  0.8625408E+02  0.7546771E-02  0.1312185E+00
         21   -1    0    0  505  501  0.00000000000E+00  0.00000000000E+00  0.12426635729E+03  0.12426635729E+03  0.00000000000E+00 0. -1.
         21   -1    0    0  503  502 -0.00000000000E+00 -0.00000000000E+00 -0.40961355002E+03  0.40961355002E+03  0.00000000000E+00 0. -1.
         21    1    1    2  503  504  0.31893615659E+02  0.54579214193E+02 -0.23389265907E+03  0.24228468649E+03  0.00000000000E+00 0. -1.
         21    1    1    2  504  501 -0.12029729002E+03 -0.41813775222E+02 -0.67958085288E+02  0.14435418643E+03  0.00000000000E+00 0. -1.
         21    1    1    2  505  506  0.50249565477E+02 -0.70120284086E+01  0.66778248862E+02  0.83866095022E+02  0.00000000000E+00 0. -1.
         21    1    1    2  506  502  0.38154108880E+02 -0.57534105624E+01 -0.50274697230E+02  0.63374939361E+02  0.00000000000E+00 0. -1.
<scales pt_clust_3="86.25408" pt_clust_4="14000.00000" pt_clust_5="51.67087" pt_clust_6="38.58546"></scales>
<clustering>
<clus scale="   38.585">  2  6  1 -1</clus>
<clus scale="   51.671">  1  5  2 -1</clus>
<clus scale="   86.254">  2  3  1 -1</clus>
<clus scale="   51.671">  1  3  2 -1</clus>
</clustering>
</event>
<event>
 6    0  0.1463946E+003  0.1266656E+03  0.7546771E-02  0.1232489E+00
         21   -1    0    0  506  501  0.00000000000E+00  0.00000000000E+00  0.40548877411E+03  0.40548877411E+03  0.00000000000E+00 0. -1.
         21   -1    0    0  503  502 -0.00000000000E+00 -0.00000000000E+00 -0.24708577170E+03  0.24708577170E+03  0.00000000000E+00 0. -1.
         21    1    1    2  503  505  0.15899554436E+03 -0.48516862602E+02  0.12733149143E+03  0.20939622201E+03  0.00000000000E+00 0. -1.
         21    1    1    2  504  502 -0.82980442261E+02 -0.69065319189E+02 -0.15810028722E+03  0.19144574410E+03  0.00000000000E+00 0. -1.
         21    1    1    2  505  501 -0.76705399563E+02  0.65623502248E+02  0.73328823968E+02  0.12476890155E+03  0.00000000000E+00 0. -1.
         21    1    1    2  506  504  0.69029746524E+00  0.51958679544E+02  0.11584297424E+03  0.12696367816E+03  0.00000000000E+00 0. -1.
<scales pt_clust_3="126.66556" pt_clust_4="106.00534" pt_clust_5="14000.00000" pt_clust_6="51.96326"></scales>
<clustering>
<clus scale="   51.963">  1  6  2 -1</clus>
<clus scale="  106.005">  2  4  1 -1</clus>
<clus scale="  126.666">  2  3  1 -1</clus>
<clus scale="   51.963">  1  3  2 -1</clus>
</clustering>
</event>
<event>
 6    0  0.1463946E+003  0.9676071E+02  0.7546771E-02  0.1287259E+00
         21   -1    0    0  504  501  0.00000000000E+00  0.00000000000E+00  0.20062322410E+04  0.20062322410E+04  0.00000000000E+00 0. -1.
         21   -1    0    0  505  502 -0.00000000000E+00 -0.00000000000E+00 -0.15608610987E+02  0.15608610987E+02  0.00000000000E+00 0. -1.
         21    1    1    2  503  501  0.42694114431E+02 -0.18088229681E+02  0.49541977778E+03  0.49758489494E+03  0.00000000000E+00 0. -1.
         21    1    1    2  504  506 -0.10129224571E+03  0.20444150626E+02  0.48795490560E+03  0.49877657547E+03  0.00000000000E+00 0. -1.
         21    1    1    2  505  503  0.81784015999E+02  0.68739068638E+02  0.75036592927E+03  0.75793318482E+03  0.00000000000E+00 0. -1.
         21    1    1    2  506  502 -0.23185884724E+02 -0.71094989583E+02  0.25688301735E+03  0.26754619676E+03  0.00000000000E+00 0. -1.
<scales pt_clust_3="46.36778" pt_clust_4="96.76071" pt_clust_5="14000.00000" pt_clust_6="75.89326"></scales>
<clustering>
<clus scale="   46.368">  1  3  2 -1</clus>
<clus scale="   75.893">  2  6  1 -1</clus>
<clus scale="   96.761">  1  4  2 -1</clus>
<clus scale="   46.368">  1  3  2 -1</clus>
</clustering>
</event>
<event>
 6    0  0.1463946E+003  0.1138325E+03  0.7546771E-02  0.1253633E+00
         21   -1    0    0  505  501  0.00000000000E+00  0.00000000000E+00  0.10443129447E+04  0.10443129447E+04  0.00000000000E+00 0.  1.
         21   -1    0    0  506  502 -0.00000000000E+00 -0.00000000000E+00 -0.88313915406E+02  0.88313915406E+02  0.00000000000E+00 0.  1.
         21    1    1    2  503  501  0.56360303654E+02  0.16387158266E+02  0.66612131463E+03  0.66870219723E+03  0.00000000000E+00 0.  1.
         21    1    1    2  504  502  0.67246599603E+02 -0.37270284030E+02  0.35649582420E+01  0.76966799058E+02  0.00000000000E+00 0.  1.
         21    1    1    2  505  504 -0.13947175752E+02 -0.96531032542E+02  0.84829046579E+02  0.12926225705E+03  0.00000000000E+00 0.  1.
         21    1    1    2  506  503 -0.10965972751E+03  0.11741415831E+03  0.20148370981E+03  0.25769560673E+03  0.00000000000E+00 0.  1.
<scales pt_clust_3="58.69432" pt_clust_4="81.42365" pt_clust_5="14000.00000" pt_clust_6="113.83246"></scales>
<clustering>
<clus scale="   58.694">  1  3  2 -1</clus>
<clus scale="   81.424">  2  4  1 -1</clus>
<clus scale="  113.832">  2  6  1 -1</clus>
<clus scale="   58.694">  1  3  2 -1</clus>
</clustering>
</event>
<event>
 6    0  0.1463946E+003  0.1323007E+03  0.7546771E-02  0.1224081E+00
         21   -1    0    0  503  501  0.00000000000E+00  0.00000000000E+00  0.14845505575E+03  0.14845505575E+03  0.00000000000E+00 0. -1.
         21   -1    0    0  506  502 -0.00000000000E+00 -0.00000000000E+00 -0.29221829747E+03  0.29221829747E+03  0.00000000000E+00 0. -1.
         21    1    1    2  503  504 -0.76132712055E+02  0.12169734550E+03  0.65755834066E+02  0.15789320271E+03  0.00000000000E+00 0. -1.
         21    1    1    2  504  502  0.40079356193E+02 -0.28660408247E+02 -0.23480453835E+02  0.54581182710E+02  0.00000000000E+00 0. -1.
         21    1    1    2  505  501  0.54627527139E+02 -0.68507169073E+02 -0.17463754350E+03  0.19538595276E+03  0.00000000000E+00 0. -1.
         21    1    1    2  506  505 -0.18574171277E+02 -0.24529768184E+02 -0.11401078447E+02  0.32813015033E+02  0.00000000000E+00 0. -1.
<scales pt_clust_3="14000.00000" pt_clust_4="49.35154" pt_clust_5="132.30067" pt_clust_6="30.76864"></scales>
<clustering>
<clus scale="   30.769">  2  6  1 -1</clus>
<clus scale="   49.352">  2  4  1 -1</clus>
<clus scale="  132.301">  2  5  1 -1</clus>
<clus scale="  132.301">  1  3  2 -1</clus>
</clustering>
</event>
<event>
 6    0  0.1463946E+003  0.1140911E+03  0.7546771E-02  0.1253176E+00
         21   -1    0    0  506  501  0.00000000000E+00  0.00000000000E+00  0.22395037693E+03  0.22395037693E+03  0.00000000000E+00 0.  1.
         21   -1    0    0  503  502 -0.00000000000E+00 -0.00000000000E+00 -0.23984799106E+03  0.23984799106E+03  0.00000000000E+00 0.  1.
         21    1    1    2  503  504  0.10800031552E+03 -0.93081803409E+02  0.10143582798E+02  0.14293768765E+03  0.00000000000E+00 0.  1.
         21    1    1    2  504  501 -0.40695298394E+02 -0.49945198265E+02  0.80869426393E+02  0.10339484642E+03  0.00000000000E+00 0.  1.
         21    1    1    2  505  502 -0.60720682591E+02  0.88582866936E+02 -0.12004542482E+03  0.16107398806E+03  0.00000000000E+00 0.  1.
         21    1    1    2  506  505 -0.65843345392E+01  0.54444134738E+02  0.13134801499E+02  0.56391845856E+02  0.00000000000E+00 0.  1.
<scales pt_clust_3="114.09111" pt_clust_4="49.76346" pt_clust_5="14000.00000" pt_clust_6="54.84084"></scales>
<clustering>
<clus scale="   54.841">  1  6  2 -1</clus>
<clus scale="   49.763">  1  4  2 -1</clus>
<clus scale="  114.091">  1  3  2 -1</clus>
<clus scale="   54.841">  1  3  2 -1</clus>
</clustering>
</event>
<event>
 6    0  0.1463946E+003  0.9996054E+02  0.7546771E-02  0.1280379E+00
         21   -1    0    0  505  501  0.00000000000E+00  0.00000000000E+00  0.10707006801E+03  0.10707006801E+03  0.00000000000E+00 0.  1.
         21   -1    0    0  504  502 -0.00000000000E+00 -0.00000000000E+00 -0.33502763781E+03  0.33502763781E+03  0.00000000000E+00 0.  1.
         21    1    1    2  503  501  0.31535222171E+02  0.20229447158E+02  0.20613464798E+02  0.42762316362E+02  0.00000000000E+00 0.  1.
         21    1    1    2  504  503  0.33378621360E+02  0.40917877074E+02 -0.11056031607E+02  0.53950355542E+02  0.00000000000E+00 0.  1.
         21    1    1    2  505  506 -0.12033303007E+03  0.10282351818E+01 -0.33332687569E+02  0.12486858473E+03  0.00000000000E+00 0.  1.
         21    1    1    2  506  502  0.55419186536E+02 -0.62175559414E+02 -0.20418231543E+03  0.22051644918E+03  0.00000000000E+00 0.  1.
<scales pt_clust_3="30.47766" pt_clust_4="30.47766" pt_clust_5="93.18216" pt_clust_6="83.28917"></scales>
<clustering>
<clus scale="   30.478">  3  4 -1 -1</clus>
<clus scale="   83.289">  2  6  1 -1</clus>
<clus scale="   93.182">  2  5  1 -1</clus>
<clus scale="   99.961">  1  3  2 -1</clus>
</clustering>
</event>
<event>
 6    0  0.1463946E+003  0.1922812E+03  0.7546771E-02  0.1156420E+00
         21   -1    0    0  505  501  0.00000000000E+00  0.00000000000E+00  0.11937901501E+03  0.11937901501E+03  0.00000000000E+00 0.  1.
         21   -1    0    0  503  502 -0.00000000000E+00 -0.00000000000E+00 -0.63077693251E+03  0.63077693251E+03  0.00000000000E+00 0.  1.
         21    1    1    2  503  501  0.17543389462E+03  0.10827222034E+03 -0.16417242624E+03  0.26353844239E+03  0.00000000000E+00 0.  1.
         21    1    1    2  504  506 -0.72036854768E+02  0.18409925826E+02 -0.11721553212E+03  0.13880819422E+03  0.00000000000E+00 0. -1.
         21    1    1    2  505  504 -0.10500841319E+03 -0.15819490036E+03 -0.10113846333E+03  0.21513108122E+03  0.00000000000E+00 0.  1.
         21    1    1    2  506  502  0.16113733320E+01  0.31512754198E+02 -0.12887149581E+03  0.13267822969E+03  0.00000000000E+00 0. -1.
<scales pt_clust_3="14000.00000" pt_clust_4="76.36178" pt_clust_5="192.28121" pt_clust_6="31.55393"></scales>
<clustering>
<clus scale="   31.554">  2  6  1 -1</clus>
<clus scale="   76.362">  2  4  1 -1</clus>
<clus scale="  192.281">  1  5  2 -1</clus>
<clus scale="  192.281">  1  3  2 -1</clus>
</clustering>
</event>
<event>
 6    0  0.1463946E+003  0.8195849E+02  0.7546771E-02  0.1323584E+00
         21   -1    0    0  503  501  0.00000000000E+00  0.00000000000E+00  0.33839765221E+03  0.33839765221E+03  0.00000000000E+00 0. -1.
         21   -1    0    0  504  502 -0.00000000000E+00 -0.00000000000E+00 -0.13836240328E+03  0.13836240328E+03  0.00000000000E+00 0.  1.
         21    1    1    2  503  502  0.88406679344E+02 -0.84475955887E+02 -0.72571965986E+02  0.14219218798E+03  0.00000000000E+00 0.  1.
         21    1    1    2  504  505 -0.16022479796E+02  0.44606435655E+02  0.42800779438E+01  0.47589631517E+02  0.00000000000E+00 0.  1.
         21    1    1    2  505  506 -0.41031323256E+02  0.52641675771E+02  0.19756587548E+03  0.20853534633E+03  0.00000000000E+00 0. -1.
         21    1    1    2  506  501 -0.31352876291E+02 -0.12772155539E+02  0.70761261502E+02  0.78442889660E+02  0.00000000000E+00 0. -1.
<scales pt_clust_3="81.95849" pt_clust_4="47.37389" pt_clust_5="14000.00000" pt_clust_6="33.85455"></scales>
<clustering>
<clus scale="   33.855">  1  6  2 -1</clus>
<clus scale="   47.374">  2  4  1 -1</clus>
<clus scale="   81.958">  2  3  1 -1</clus>
<clus scale="   33.855">  1  3  2 -1</clus>
</clustering>
</event>
<event>
 6    0  0.1463946E+003  0.8163465E+02  0.7546771E-02  0.1324476E+00
         21   -1    0    0  502  501  0.00000000000E+00  0.00000000000E+00  0.22049811704E+03  0.22049811704E+03  0.00000000000E+00 0.  1.
         21   -1    0    0  504  502 -0.00000000000E+00 -0.00000000000E+00 -0.70050803421E+03  0.70050803421E+03  0.00000000000E+00 0.  1.
         21    1    1    2  503  506 -0.10212722974E+03 -0.64561070498E+02 -0.16584085074E+03  0.20518599039E+03  0.00000000000E+00 0.  1.
         21    1    1    2  504  503  0.18746712955E+02  0.77357053448E+02 -0.49967175871E+03  0.50597175753E+03  0.00000000000E+00 0.  1.
         21    1    1    2  505  501  0.27021808495E+02 -0.22904060724E+02  0.39700305622E+02  0.53206093622E+02  0.00000000000E+00 0.  1.
         21    1    1    2  506  505  0.56358708291E+02  0.10108077774E+02  0.14580238665E+03  0.15664230971E+03  0.00000000000E+00 0.  1.
<scales pt_clust_3="81.63465" pt_clust_4="79.31057" pt_clust_5="35.42279" pt_clust_6="14000.00000"></scales>
<clustering>
<clus scale="   35.423">  1  5  2 -1</clus>
<clus scale="   79.311">  2  4  1 -1</clus>
<clus scale="   81.635">  2  3  1 -1</clus>
<clus scale="   35.423">  1  3  2 -1</clus>
</clustering>
</event>
<event>
 6    0  0.1463946E+003  0.1690569E+03  0.7546771E-02  0.1178835E+00
         21   -1    0    0  506  501  0.00000000000E+00  0.00000000000E+00  0.12864458505E+04  0.12864458505E+04  0.00000000000E+00 0.  1.
         21   -1    0    0  505  502 -0.00000000000E+00 -0.00000000000E+00 -0.24328172912E+03  0.24328172912E+03  0.00000000000E+00 0. -1.
         21    1    1    2  503  502 -0.42156006234E+02  0.37007140911E+02  0.45034416900E+02  0.71935777229E+02  0.00000000000E+00 0.  1.
         21    1    1    2  504  501 -0.79747658667E+02 -0.67444604109E+02  0.22744739379E+03  0.25028140288E+03  0.00000000000E+00 0.  1.
         21    1    1    2  505  504  0.56232204856E+02  0.14008564878E+03 -0.18757310312E+03  0.24076901560E+03  0.00000000000E+00 0. -1.
         21    1    1    2  506  503  0.65671460045E+02 -0.10964818558E+03  0.95825541380E+03  0.96674138390E+03  0.00000000000E+00 0.  1.
<scales pt_clust_3="56.09507" pt_clust_4="104.89165" pt_clust_5="169.05694" pt_clust_6="14000.00000"></scales>
<clustering>
<clus scale="   56.095">  2  3  1 -1</clus>
<clus scale="  104.892">  1  4  2 -1</clus>
<clus scale="  169.057">  2  5  1 -1</clus>
<clus scale="  104.892">  1  3  2 -1</clus>
</clustering>
</event>
<event>
 6    0  0.1463946E+003  0.9515462E+02  0.7546771E-02  0.1290828E+00
         21   -1    0    0  504  501  0.00000000000E+00  0.00000000000E+00  0.87177759022E+03  0.87177759022E+03  0.00000000000E+00 0.  1.
         21   -1    0    0  506  502 -0.00000000000E+00 -0.00000000000E+00 -0.30257269813E+03  0.30257269813E+03  0.00000000000E+00 0. -1.
         21    1    1    2  503  501 -0.11726610227E+03  0.33387184179E+02  0.74802366853E+03  0.75789540933E+03  0.00000000000E+00 0.  1.
         21    1    1    2  504  505  0.34947573109E+02  0.11329824233E+02  0.93658440340E+02  0.10060616895E+03  0.00000000000E+00 0.  1.
         21    1    1    2  505  502  0.10481760903E+03 -0.66609045242E+02 -0.24245524010E+03  0.27241152604E+03  0.00000000000E+00 0. -1.
         21    1    1    2  506  503 -0.22499079866E+02  0.21892036830E+02 -0.30021976690E+02  0.43437184023E+02  0.00000000000E+00 0. -1.
<scales pt_clust_3="95.15462" pt_clust_4="36.54858" pt_clust_5="14000.00000" pt_clust_6="31.39219"></scales>
<clustering>
<clus scale="   31.392">  2  6  1 -1</clus>
<clus scale="   36.549">  1  4  2 -1</clus>
<clus scale="   95.155">  1  3  2 -1</clus>
<clus scale="   36.549">  1  3  2 -1</clus>
</clustering>
</event>
<event>
 6    0  0.1463946E+003  0.9432099E+02  0.7546771E-02  0.1292713E+00
         21   -1    0    0  503  501  0.00000000000E+00  0.00000000000E+00  0.14644248960E+03  0.14644248960E+03  0.00000000000E+00 0. -1.
         21   -1    0    0  506  502 -0.00000000000E+00 -0.00000000000E+00 -0.34074848499E+03  0.34074848499E+03  0.00000000000E+00 0. -1.
         21    1    1    2  503  505  0.14417190971E+03  0.17554332803E+02  0.77295517919E+01  0.14544222262E+03  0.00000000000E+00 0. -1.
         21    1    1    2  504  502 -0.36342112089E+00 -0.59268648533E+02 -0.61599857756E+02  0.85483608074E+02  0.00000000000E+00 0. -1.
         21    1    1    2  505  504 -0.79656943974E+02  0.53949666643E+02 -0.16120794980E+03  0.18773331706E+03  0.00000000000E+00 0. -1.
         21    1    1    2  506  501 -0.64151544613E+02 -0.12235350912E+02  0.20772260372E+02  0.68531826834E+02  0.00000000000E+00 0. -1.
<scales pt_clust_3="94.32099" pt_clust_4="59.26976" pt_clust_5="14000.00000" pt_clust_6="66.53542"></scales>
<clustering>
<clus scale="   59.270">  2  4  1 -1</clus>
<clus scale="   66.535">  1  6  2 -1</clus>
<clus scale="   94.321">  1  3  2 -1</clus>
<clus scale="   66.535">  1  3  2 -1</clus>
</clustering>
</event>
<event>
 6    0  0.1463946E+003  0.9411829E+02  0.7546771E-02  0.1293174E+00
         21   -1    0    0  502  501  0.00000000000E+00  0.00000000000E+00  0.46778232135E+03  0.46778232135E+03  0.00000000000E+00 0. -1.
         21   -1    0    0  505  502 -0.00000000000E+00 -0.00000000000E+00 -0.16564155042E+03  0.16564155042E+03  0.00000000000E+00 0.  1.
         21    1    1    2  503  501 -0.48223829964E+02  0.83300128472E+01  0.34212665087E+03  0.34560898733E+03  0.00000000000E+00 0. -1.
         21    1    1    2  504  506  0.89752988179E+02 -0.34913447987E+02 -0.17686806319E+02  0.97915120666E+02  0.00000000000E+00 0.  1.
         21    1    1    2  505  504  0.35716732534E+02  0.20577582954E+02 -0.82206111633E+02  0.91961767561E+02  0.00000000000E+00 0.  1.
         21    1    1    2  506  503 -0.77245890749E+02  0.60058521851E+01  0.59907038010E+02  0.97937996208E+02  0.00000000000E+00 0. -1.
<scales pt_clust_3="48.23908" pt_clust_4="14000.00000" pt_clust_5="41.22041" pt_clust_6="94.11829"></scales>
<clustering>
<clus scale="   41.220">  2  5  1 -1</clus>
<clus scale="   48.239">  1  3  2 -1</clus>
<clus scale="   94.118">  1  6  2 -1</clus>
<clus scale="   48.239">  1  3  2 -1</clus>
</clustering>
</event>
<event>
 6    0  0.1463946E+003  0.1072438E+03  0.7546771E-02  0.1265761E+00
         21   -1    0    0  505  501  0.00000000000E+00  0.00000000000E+00  0.60309944284E+03  0.60309944284E+03  0.00000000000E+00 0.  1.
         21   -1    0    0  506  502 -0.00000000000E+00 -0.00000000000E+00 -0.46460092109E+02  0.46460092109E+02  0.00000000000E+00 0. -1.
         21    1    1    2  503  501 -0.55877861665E+01 -0.56086816163E+02  0.11595247800E+03  0.12892606973E+03  0.00000000000E+00 0. -1.
         21    1    1    2  504  503  0.46725278450E+02 -0.29733607831E+01  0.18743847108E+02  0.50432373779E+02  0.00000000000E+00 0. -1.
         21    1    1    2  505  502 -0.89799064692E+02  0.17081286798E+02  0.38577385964E+03  0.39645568877E+03  0.00000000000E+00 0.  1.
         21    1    1    2  506  504  0.48661572408E+02  0.41978890148E+02  0.36169165988E+02  0.73745402674E+02  0.00000000000E+00 0. -1.
<scales pt_clust_3="56.36448" pt_clust_4="36.05727" pt_clust_5="98.57297" pt_clust_6="36.05727"></scales>
<clustering>
<clus scale="   36.057">  4  6 -1 -1</clus>
<clus scale="   56.364">  1  3  2 -1</clus>
<clus scale="   98.573">  1  5  2 -1</clus>
<clus scale="   56.364">  1  3  2 -1</clus>
</clustering>
</event>
<event>
 6    0  0.1463946E+003  0.1234361E+03  0.7546771E-02  0.1237534E+00
         21   -1    0    0  503  501  0.00000000000E+00  0.00000000000E+00  0.70040677981E+03  0.70040677981E+03  0.00000000000E+00 0. -1.
         21   -1    0    0  506  502 -0.00000000000E+00 -0.00000000000E+00 -0.28525706102E+03  0.28525706102E+03  0.00000000000E+00 0. -1.
         21    1    1    2  503  502 -0.32092988101E+02 -0.55259301059E+02  0.97462198040E+02  0.11654368402E+03  0.00000000000E+00 0. -1.
         21    1    1    2  504  501 -0.55654409030E+02 -0.37256488702E+02  0.55924021885E+03  0.56323625734E+03  0.00000000000E+00 0. -1.
         21    1    1    2  505  504  0.61161173764E+02  0.10929126514E+03 -0.98268279567E+02  0.15919147145E+03  0.00000000000E+00 0. -1.
         21    1    1    2  506  505  0.26586223368E+02 -0.16775475380E+02 -0.14328441854E+03  0.14669242803E+03  0.00000000000E+00 0. -1.
<scales pt_clust_3="64.01685" pt_clust_4="14000.00000" pt_clust_5="123.43605" pt_clust_6="31.43635"></scales>
<clustering>
<clus scale="   31.436">  2  6  1 -1</clus>
<clus scale="   64.017">  1  3  2 -1</clus>
<clus scale="  123.436">  2  5  1 -1</clus>
<clus scale="   64.017">  1  3  2 -1</clus>
</clustering>
</event>
<event>
 6    0  0.1463946E+003  0.9322738E+02  0.7546771E-02  0.1295219E+00
         21   -1    0    0  503  501  0.00000000000E+00  0.00000000000E+00  0.42253007396E+03  0.42253007396E+03  0.00000000000E+00 0. -1.
         21   -1    0    0  505  502 -0.00000000000E+00 -0.00000000000E+00 -0.13851855355E+03  0.13851855355E+03  0.00000000000E+00 0. -1.
         21    1    1    2  503  502  0.29955323510E+02  0.24172189002E+02  0.30269960666E+02  0.48968220781E+02  0.00000000000E+00 0. -1.
         21    1    1    2  504  506 -0.66309189974E+02 -0.80333472632E+02  0.90445566427E+02  0.13795207859E+03  0.00000000000E+00 0. -1.
         21    1    1    2  505  504  0.75057503728E+02 -0.35003630858E+02 -0.77708448390E+02  0.11356709907E+03  0.00000000000E+00 0. -1.
         21    1    1    2  506  501 -0.38703637264E+02  0.91164914488E+02  0.24100444171E+03  0.26056122907E+03  0.00000000000E+00 0. -1.
<scales pt_clust_3="38.49177" pt_clust_4="14000.00000" pt_clust_5="83.62685" pt_clust_6="93.22738"></scales>
<clustering>
<clus scale="   38.492">  1  3  2 -1</clus>
<clus scale="   83.627">  2  5  1 -1</clus>
<clus scale="   93.227">  1  6  2 -1</clus>
<clus scale="   38.492">  1  3  2 -1</clus>
</clustering>
</event>
<event>
 6    0  0.1463946E+003  0.1146606E+03  0.7546771E-02  0.1252175E+00
         21   -1    0    0  506  501  0.00000000000E+00  0.00000000000E+00  0.33217523225E+03  0.33217523225E+03  0.00000000000E+00 0.  1.
         21   -1    0    0  503  502 -0.00000000000E+00 -0.00000000000E+00 -0.12597373699E+03  0.12597373699E+03  0.00000000000E+00 0.  1.
         21    1    1    2  503  504  0.61723801560E+02  0.31919886509E+02 -0.53764100890E+02  0.87859463795E+02  0.00000000000E+00 0.  1.
         21    1    1    2  504  505  0.35288109149E+02 -0.21040133765E+02 -0.19802163257E+02  0.45607713665E+02  0.00000000000E+00 0. -1.
         21    1    1    2  505  501  0.29762973260E+02 -0.83674235393E+01  0.10017200436E+03  0.10483453062E+03  0.00000000000E+00 0.  1.
         21    1    1    2  506  502 -0.12677488397E+03 -0.25123292048E+01  0.17959575505E+03  0.21984726115E+03  0.00000000000E+00 0.  1.
<scales pt_clust_3="41.53628" pt_clust_4="41.53628" pt_clust_5="30.91680" pt_clust_6="101.36689"></scales>
<clustering>
<clus scale="   30.917">  1  5  2 -1</clus>
<clus scale="   41.536">  3  4 -1 -1</clus>
<clus scale="  101.367">  1  6  2 -1</clus>
<clus scale="   30.917">  1  3  2 -1</clus>
</clustering>
</event>
<event>
 6    0  0.1463946E+003  0.1172562E+03  0.7546771E-02  0.1247693E+00
         21   -1    0    0  506  501  0.00000000000E+00  0.00000000000E+00  0.18448271966E+03  0.18448271966E+03  0.00000000000E+00 0. -1.
         21   -1    0    0  503  502 -0.00000000000E+00 -0.00000000000E+00 -0.16762201413E+03  0.16762201413E+03  0.00000000000E+00 0.  1.
         21    1    1    2  503  504 -0.27034418308E+02  0.44504280001E+02 -0.70752593612E+02  0.87848848680E+02  0.00000000000E+00 0. -1.
         21    1    1    2  504  505 -0.63207311924E+02  0.19267957703E+02 -0.38611911686E+02  0.76532987650E+02  0.00000000000E+00 0.  1.
         21    1    1    2  505  501  0.20291950532E+01 -0.42072036339E+02  0.67459950476E+02  0.79529986751E+02  0.00000000000E+00 0. -1.
         21    1    1    2  506  502  0.88212535178E+02 -0.21700201364E+02  0.58765260351E+02  0.10819291070E+03  0.00000000000E+00 0. -1.
<scales pt_clust_3="46.82789" pt_clust_4="46.82789" pt_clust_5="42.12094" pt_clust_6="104.39680"></scales>
<clustering>
<clus scale="   42.121">  1  5  2 -1</clus>
<clus scale="   46.828">  3  4 -1 -1</clus>
<clus scale="  104.397">  1  6  2 -1</clus>
<clus scale="   42.121">  1  3  2 -1</clus>
</clustering>
</event>
<event>
 6    0  0.1463946E+003  0.1627878E+03  0.7546771E-02  0.1185585E+00
         21   -1    0    0  506  501  0.00000000000E+00  0.00000000000E+00  0.62742635746E+03  0.62742635746E+03  0.00000000000E+00 0. -1.
         21   -1    0    0  503  502 -0.00000000000E+00 -0.00000000000E+00 -0.23071972446E+03  0.23071972446E+03  0.00000000000E+00 0. -1.
         21    1    1    2  503  501  0.24016507457E+02  0.98092652660E+02  0.15977573766E+03  0.18901652700E+03  0.00000000000E+00 0. -1.
         21    1    1    2  504  502 -0.74609041487E+02 -0.35277648543E+02 -0.13469053714E+03  0.15796380077E+03  0.00000000000E+00 0. -1.
         21    1    1    2  505  504 -0.53268427575E+02 -0.52170839568E+02 -0.41310065042E+02  0.85239916420E+02  0.00000000000E+00 0. -1.
         21    1    1    2  506  505  0.10386096160E+03 -0.10644164549E+02  0.41293149754E+03  0.42592583773E+03  0.00000000000E+00 0. -1.
<scales pt_clust_3="100.98991" pt_clust_4="61.39344" pt_clust_5="61.39344" pt_clust_6="149.42534"></scales>
<clustering>
<clus scale="   61.393">  4  5 -1 -1</clus>
<clus scale="  100.990">  1  3  2 -1</clus>
<clus scale="  149.425">  1  6  2 -1</clus>
<clus scale="  100.990">  1  3  2 -1</clus>
</clustering>
</event>
<event>
 6    0  0.1463946E+003  0.1089227E+03  0.7546771E-02  0.1262578E+00
         21   -1    0    0  504  501  0.00000000000E+00  0.00000000000E+00  0.39572549918E+03  0.39572549918E+03  0.00000000000E+00 0.  1.
         21   -1    0    0  505  502 -0.00000000000E+00 -0.00000000000E+00 -0.40971041714E+03  0.40971041714E+03  0.00000000000E+00 0. -1.
         21    1    1    2  503  506 -0.95533330976E+02 -0.93777230893E+02 -0.12253369196E+03  0.18148083102E+03  0.00000000000E+00 0. -1.
         21    1    1    2  504  502  0.10095304484E+03  0.14846104003E+02  0.12990275205E+03  0.16518670968E+03  0.00000000000E+00 0. -1.
         21    1    1    2  505  503  0.35346393185E+01  0.36573057874E+02 -0.23648589012E+03  0.23932333456E+03  0.00000000000E+00 0. -1.
         21    1    1    2  506  501 -0.89543531805E+01  0.42358069015E+02  0.21513191208E+03  0.21944504106E+03  0.00000000000E+00 0.  1.
<scales pt_clust_3="108.92268" pt_clust_4="14000.00000" pt_clust_5="36.74347" pt_clust_6="43.73438"></scales>
<clustering>
<clus scale="   36.743">  2  5  1 -1</clus>
<clus scale="   43.734">  1  6  2 -1</clus>
<clus scale="  108.923">  2  3  1 -1</clus>
<clus scale="   43.734">  1  3  2 -1</clus>
</clustering>
</event>
<event>
 6    0  0.1463946E+003  0.1835499E+03  0.7546771E-02  0.1164411E+00
         21   -1    0    0  505  501  0.00000000000E+00  0.00000000000E+00  0.39234121456E+02  0.39234121456E+02  0.00000000000E+00 0.  1.
         21   -1    0    0  506  502 -0.00000000000E+00 -0.00000000000E+00 -0.12115527829E+04  0.12115527829E+04  0.00000000000E+00 0. -1.
         21    1    1    2  503  501 -0.66575784600E+02  0.72199222058E+00 -0.73259081044E+02  0.98993683249E+02  0.00000000000E+00 0.  1.
         21    1    1    2  504  503 -0.72715185996E+02  0.77398898075E+02 -0.20028095391E+03  0.22669483496E+03  0.00000000000E+00 0.  1.
         21    1    1    2  505  502 -0.31910926758E+02 -0.29368511992E+01 -0.13991525880E+03  0.14353818999E+03  0.00000000000E+00 0. -1.
         21    1    1    2  506  504  0.17120189735E+03 -0.75184039096E+02 -0.75886336768E+03  0.78156019614E+03  0.00000000000E+00 0. -1.
<scales pt_clust_3="60.02190" pt_clust_4="60.02190" pt_clust_5="32.04579" pt_clust_6="167.17223"></scales>
<clustering>
<clus scale="   32.046">  2  5  1 -1</clus>
<clus scale="   60.022">  3  4 -1 -1</clus>
<clus scale="  167.172">  2  6  1 -1</clus>
<clus scale="  183.550">  1  3  2 -1</clus>
</clustering>
</event>
<event>
 6    0  0.1463946E+003  0.1019520E+03  0.7546771E-02  0.1276244E+00
         21   -1    0    0  505  501  0.00000000000E+00  0.00000000000E+00  0.35946005236E+03  0.35946005236E+03  0.00000000000E+00 0. -1.
         21   -1    0    0  506  502 -0.00000000000E+00 -0.00000000000E+00 -0.12843924174E+03  0.12843924174E+03  0.00000000000E+00 0. -1.
         21    1    1    2  503  504 -0.44567353441E+02 -0.13691679958E+02 -0.10275017751E+02  0.47741879756E+02  0.00000000000E+00 0. -1.
         21    1    1    2  504  502 -0.31877200519E+02 -0.28411430297E+02 -0.55441789390E+02  0.69979692020E+02  0.00000000000E+00 0. -1.
         21    1    1    2  505  503 -0.58887899697E+02  0.44227863273E+02  0.16777047981E+03  0.18322342240E+03  0.00000000000E+00 0. -1.
         21    1    1    2  506  501  0.13533245366E+03 -0.21247530185E+01  0.12896713795E+03  0.18695429992E+03  0.00000000000E+00 0. -1.
<scales pt_clust_3="41.96946" pt_clust_4="41.96946" pt_clust_5="73.64705" pt_clust_6="92.03790"></scales>
<clustering>
<clus scale="   41.969">  3  4 -1 -1</clus>
<clus scale="   73.647">  1  5  2 -1</clus>
<clus scale="   92.038">  1  6  2 -1</clus>
<clus scale="   73.647">  1  3  2 -1</clus>
</clustering>
</event>
<event>
 6    0  0.1463946E+003  0.2143300E+03  0.7546771E-02  0.1138182E+00
         21   -1    0    0  504  501  0.00000000000E+00  0.00000000000E+00  0.29609943742E+03  0.29609943742E+03  0.00000000000E+00 0.  1.
         21   -1    0    0  506  502 -0.00000000000E+00 -0.00000000000E+00 -0.67254593554E+03  0.67254593554E+03  0.00000000000E+00 0.  1.
         21    1    1    2  503  502  0.77044008725E+02 -0.18015156336E+03 -0.76892814638E+02  0.21048246959E+03  0.00000000000E+00 0.  1.
         21    1    1    2  504  503  0.69230907647E+02  0.22852228318E+03  0.14539886802E+03  0.27956427402E+03  0.00000000000E+00 0.  1.
         21    1    1    2  505  501 -0.11730837483E+03 -0.82744671035E+00 -0.25567685565E+03  0.28130516168E+03  0.00000000000E+00 0.  1.
         21    1    1    2  506  505 -0.28966541540E+02 -0.47543273113E+02 -0.18927569585E+03  0.19729346768E+03  0.00000000000E+00 0. -1.
<scales pt_clust_3="14000.00000" pt_clust_4="214.33001" pt_clust_5="136.33055" pt_clust_6="55.67246"></scales>
<clustering>
<clus scale="   55.672">  2  6  1 -1</clus>
<clus scale="  136.331">  2  5  1 -1</clus>
<clus scale="  214.330">  1  4  2 -1</clus>
<clus scale="  214.330">  1  3  2 -1</clus>
</clustering>
</event>
<event>
 6    0  0.1463946E+003  0.1429735E+03  0.7546771E-02  0.1209383E+00
         21   -1    0    0  505  501  0.00000000000E+00  0.00000000000E+00  0.17673929208E+03  0.17673929208E+03  0.00000000000E+00 0.  1.
         21   -1    0    0  503  502 -0.00000000000E+00 -0.00000000000E+00 -0.34437056753E+03  0.34437056753E+03  0.00000000000E+00 0.  1.
         21    1    1    2  503  506 -0.18480477284E+02 -0.31593137582E+02 -0.14053439784E+03  0.14522248917E+03  0.00000000000E+00 0. -1.
         21    1    1    2  504  501 -0.13271907935E+03  0.78484138759E+02  0.53964296030E+02  0.16335929513E+03  0.00000000000E+00 0.  1.
         21    1    1    2  505  502  0.32184608963E+01 -0.33713053809E+02  0.13458748429E+02  0.36442645307E+02  0.00000000000E+00 0.  1.
         21    1    1    2  506  504  0.14798109573E+03 -0.13177947368E+02 -0.94519922071E+02  0.17608543000E+03  0.00000000000E+00 0.  1.
<scales pt_clust_3="37.02684" pt_clust_4="14000.00000" pt_clust_5="33.86633" pt_clust_6="142.97350"></scales>
<clustering>
<clus scale="   33.866">  1  5  2 -1</clus>
<clus scale="   37.027">  2  3  1 -1</clus>
<clus scale="  142.973">  2  6  1 -1</clus>
<clus scale="   33.866">  1  3  2 -1</clus>
</clustering>
</event>
<event>
 6    0  0.1463946E+003  0.9597626E+02  0.7546771E-02  0.1288992E+00
         21   -1    0    0  504  501  0.00000000000E+00  0.00000000000E+00  0.13415045528E+03  0.13415045528E+03  0.00000000000E+00 0. -1.
         21   -1    0    0  506  502 -0.00000000000E+00 -0.00000000000E+00 -0.43020937137E+03  0.43020937137E+03  0.00000000000E+00 0.  1.
         21    1    1    2  503  502 -0.16340637025E+02  0.82556420386E+02 -0.64418541342E+02  0.10598267516E+03  0.00000000000E+00 0.  1.
         21    1    1    2  504  503 -0.33346244445E+02 -0.29073919227E+02  0.87386123509E+01  0.45095766361E+02  0.00000000000E+00 0.  1.
         21    1    1    2  505  501  0.27183857359E+02 -0.83375918072E+02  0.62761657831E+02  0.10784030559E+03  0.00000000000E+00 0. -1.
         21    1    1    2  506  505  0.22503024112E+02  0.29893416914E+02 -0.30314064492E+03  0.30544107954E+03  0.00000000000E+00 0.  1.
<scales pt_clust_3="95.97626" pt_clust_4="38.97221" pt_clust_5="14000.00000" pt_clust_6="37.41661"></scales>
<clustering>
<clus scale="   37.417">  2  6  1 -1</clus>
<clus scale="   38.972">  1  4  2 -1</clus>
<clus scale="   95.976">  2  3  1 -1</clus>
<clus scale="   38.972">  1  3  2 -1</clus>
</clustering>
</event>
<event>
 6    0  0.1463946E+003  0.9549300E+02  0.7546771E-02  0.1290070E+00
         21   -1    0    0  504  501  0.00000000000E+00  0.00000000000E+00  0.56987253976E+02  0.56987253976E+02  0.00000000000E+00 0.  1.
         21   -1    0    0  505  502 -0.00000000000E+00 -0.00000000000E+00 -0.12438231441E+04  0.12438231441E+04  0.00000000000E+00 0.  1.
         21    1    1    2  503  501 -0.70502036625E+02  0.78904962620E+02 -0.15355058780E+02  0.10692197213E+03  0.00000000000E+00 0.  1.
         21    1    1    2  504  506  0.51092616389E+02 -0.47127909632E+02 -0.14768045158E+03  0.16322074346E+03  0.00000000000E+00 0.  1.
         21    1    1    2  505  503 -0.36038084086E+02 -0.48784993588E+02 -0.54743091788E+03  0.55078065412E+03  0.00000000000E+00 0.  1.
         21    1    1    2  506  502  0.55447504322E+02  0.17007940600E+02 -0.47636946187E+03  0.47988702835E+03  0.00000000000E+00 0.  1.
<scales pt_clust_3="14000.00000" pt_clust_4="95.49300" pt_clust_5="36.77717" pt_clust_6="57.99738"></scales>
<clustering>
<clus scale="   57.997">  2  6  1 -1</clus>
<clus scale="   36.777">  2  5  1 -1</clus>
<clus scale="   95.493">  2  4  1 -1</clus>
<clus scale="   95.493">  1  3  2 -1</clus>
</clustering>
</event>
<event>
 6    0  0.1463946E+003  0.7619061E+02  0.7546771E-02  0.1340223E+00
         21   -1    0    0  503  501  0.00000000000E+00  0.00000000000E+00  0.26077417328E+03  0.26077417328E+03  0.00000000000E+00 0. -1.
         21   -1    0    0  505  502 -0.00000000000E+00 -0.00000000000E+00 -0.17105680033E+03  0.17105680033E+03  0.00000000000E+00 0. -1.
         21    1    1    2  503  504  0.37551212891E+02 -0.72094493091E+02  0.58435100442E+02  0.10011178995E+03  0.00000000000E+00 0. -1.
         21    1    1    2  504  506 -0.80719334282E+02  0.59908714956E+01 -0.36062522973E+01  0.81021642318E+02  0.00000000000E+00 0. -1.
         21    1    1    2  505  501  0.42790157684E+02  0.16530259862E+02  0.13304569720E+03  0.14073167600E+03  0.00000000000E+00 0. -1.
         21    1    1    2  506  502  0.37796370763E+00  0.49573361734E+02 -0.98157172393E+02  0.10996586535E+03  0.00000000000E+00 0. -1.
<scales pt_clust_3="76.19061" pt_clust_4="14000.00000" pt_clust_5="45.87207" pt_clust_6="50.41917"></scales>
<clustering>
<clus scale="   45.872">  1  5  2 -1</clus>
<clus scale="   50.419">  2  6  1 -1</clus>
<clus scale="   76.191">  1  3  2 -1</clus>
<clus scale="   45.872">  1  3  2 -1</clus>
</clustering>
</event>
<event>
 6    0  0.1463946E+003  0.5751407E+02  0.7546771E-02  0.1408570E+00
         21   -1    0    0  505  501  0.00000000000E+00  0.00000000000E+00  0.43874486660E+03  0.43874486660E+03  0.00000000000E+00 0.  1.
         21   -1    0    0  506  502 -0.00000000000E+00 -0.00000000000E+00 -0.56168274043E+03  0.56168274043E+03  0.00000000000E+00 0. -1.
         21    1    1    2  503  501  0.58887789656E+02 -0.10099276407E+03 -0.39921583309E+03  0.41598147982E+03  0.00000000000E+00 0. -1.
         21    1    1    2  504  502 -0.23592772557E+02  0.35090194440E+02 -0.13596567193E+02  0.44416295458E+02  0.00000000000E+00 0. -1.
         21    1    1    2  505  504 -0.50642274884E+02  0.26826025586E+02  0.40937628396E+03  0.41336813801E+03  0.00000000000E+00 0.  1.
         21    1    1    2  506  503  0.15347257785E+02  0.39076544041E+02 -0.11950175750E+03  0.12666169374E+03  0.00000000000E+00 0. -1.
<scales pt_clust_3="57.51407" pt_clust_4="43.92179" pt_clust_5="14000.00000" pt_clust_6="41.98231"></scales>
<clustering>
<clus scale="   41.982">  2  6  1 -1</clus>
<clus scale="   43.922">  2  4  1 -1</clus>
<clus scale="   57.514">  2  3  1 -1</clus>
<clus scale="   57.514">  1  3  2 -1</clus>
</clustering>
</event>
<event>
 6    0  0.1463946E+003  0.9906181E+02  0.7546771E-02  0.1282281E+00
         21   -1    0    0  504  501  0.00000000000E+00  0.00000000000E+00  0.29674063820E+03  0.29674063820E+03  0.00000000000E+00 0.  1.
         21   -1    0    0  505  502 -0.00000000000E+00 -0.00000000000E+00 -0.11664158909E+04  0.11664158909E+04  0.00000000000E+00 0. -1.
         21    1    1    2  503  502 -0.99388663587E+02 -0.38325117896E+01 -0.11002136200E+04  0.11047003233E+04  0.00000000000E+00 0. -1.
         21    1    1    2  504  503 -0.80555213767E+01 -0.79648470460E+02  0.41515963933E+02  0.90179518365E+02  0.00000000000E+00 0.  1.
         21    1    1    2  505  506  0.77760800346E+02  0.91201087200E+02  0.56957734835E+02  0.13269726423E+03  0.00000000000E+00 0.  1.
         21    1    1    2  506  501  0.29683384618E+02 -0.77201049499E+01  0.13206466851E+03  0.13557942326E+03  0.00000000000E+00 0. -1.
<scales pt_clust_3="14000.00000" pt_clust_4="82.86256" pt_clust_5="99.06181" pt_clust_6="30.67089"></scales>
<clustering>
<clus scale="   30.671">  1  6  2 -1</clus>
<clus scale="   82.863">  1  4  2 -1</clus>
<clus scale="   99.062">  1  5  2 -1</clus>
<clus scale="   30.671">  1  3  2 -1</clus>
</clustering>
</event>
<event>
 6    0  0.1463946E+003  0.9624079E+02  0.7546771E-02  0.1288406E+00
         21   -1    0    0  505  501  0.00000000000E+00  0.00000000000E+00  0.72990203964E+02  0.72990203964E+02  0.00000000000E+00 0. -1.
         21   -1    0    0  503  502 -0.00000000000E+00 -0.00000000000E+00 -0.68424748011E+03  0.68424748011E+03  0.00000000000E+00 0. -1.
         21    1    1    2  503  506  0.30469388881E+02 -0.83986603228E+00 -0.39312086359E+03  0.39430077660E+03  0.00000000000E+00 0. -1.
         21    1    1    2  504  502  0.22587859537E+02  0.80337063583E+02 -0.58038128407E+02  0.10164978865E+03  0.00000000000E+00 0. -1.
         21    1    1    2  505  504  0.32057210023E+02  0.19337891844E+01  0.25810509930E+02  0.41201780033E+02  0.00000000000E+00 0.  1.
         21    1    1    2  506  501 -0.85114458441E+02 -0.81430986735E+02 -0.18590879407E+03  0.22008533879E+03  0.00000000000E+00 0. -1.
<scales pt_clust_3="30.48096" pt_clust_4="14000.00000" pt_clust_5="32.91982" pt_clust_6="96.24079"></scales>
<clustering>
<clus scale="   30.481">  2  3  1 -1</clus>
<clus scale="   32.920">  1  5  2 -1</clus>
<clus scale="   96.241">  2  6  1 -1</clus>
<clus scale="   32.920">  1  3  2 -1</clus>
</clustering>
</event>
<event>
 6    0  0.1463946E+003  0.7903236E+02  0.7546771E-02  0.1331820E+00
         21   -1    0    0  503  501  0.00000000000E+00  0.00000000000E+00  0.13486450315E+04  0.13486450315E+04  0.00000000000E+00 0.  1.
         21   -1    0    0  506  502 -0.00000000000E+00 -0.00000000000E+00 -0.10368594914E+03  0.10368594914E+03  0.00000000000E+00 0. -1.
         21    1    1    2  503  504 -0.98190074970E+02 -0.23410971577E+02  0.10030008347E+04  0.10080674773E+04  0.00000000000E+00 0.  1.
         21    1    1    2  504  505  0.56330964824E+02  0.63742381907E+01  0.30469027752E+03  0.30991930196E+03  0.00000000000E+00 0.  1.
         21    1    1    2  505  502  0.24467756793E+02 -0.44968360746E+02 -0.12568843138E+02  0.52714328303E+02  0.00000000000E+00 0.  1.
         21    1    1    2  506  501  0.17391353353E+02  0.62005094132E+02 -0.50163186741E+02  0.81629873047E+02  0.00000000000E+00 0. -1.
<scales pt_clust_3="14000.00000" pt_clust_4="79.03236" pt_clust_5="51.19399" pt_clust_6="44.93100"></scales>
<clustering>
<clus scale="   51.194">  2  5  1 -1</clus>
<clus scale="   44.931">  2  6  1 -1</clus>
<clus scale="   79.032">  2  4  1 -1</clus>
<clus scale="   79.032">  1  3  2 -1</clus>
</clustering>
</event>
<event>
 6    0  0.1463946E+003  0.9683284E+02  0.7546771E-02  0.1287101E+00
         21   -1    0    0  503  501  0.00000000000E+00  0.00000000000E+00  0.27008831425E+03  0.27008831425E+03  0.00000000000E+00 0.  1.
         21   -1    0    0  506  502 -0.00000000000E+00 -0.00000000000E+00 -0.12423521401E+03  0.12423521401E+03  0.00000000000E+00 0.  1.
         21    1    1    2  503  502  0.27600443262E+02 -0.13126153059E+02  0.57773458665E+01  0.31103988292E+02  0.00000000000E+00 0. -1.
         21    1    1    2  504  501 -0.40788718260E+02 -0.92666987304E+02  0.19553510507E+03  0.22019279595E+03  0.00000000000E+00 0.  1.
         21    1    1    2  505  504 -0.22584191928E+02  0.88118754014E+02 -0.30411345392E+02  0.95915642429E+02  0.00000000000E+00 0.  1.
         21    1    1    2  506  505  0.35772466926E+02  0.17674386350E+02 -0.25048005303E+02  0.47111101585E+02  0.00000000000E+00 0.  1.
<scales pt_clust_3="30.56273" pt_clust_4="14000.00000" pt_clust_5="96.83284" pt_clust_6="46.67169"></scales>
<clustering>
<clus scale="   30.563">  2  3  1 -1</clus>
<clus scale="   46.672">  2  6  1 -1</clus>
<clus scale="   96.833">  2  5  1 -1</clus>
<clus scale="   96.833">  1  3  2 -1</clus>
</clustering>
</event>
<event>
 6    0  0.1463946E+003  0.8194880E+02  0.7546771E-02  0.1323610E+00
         21   -1    0    0  506  501  0.00000000000E+00  0.00000000000E+00  0.24040083485E+03  0.24040083485E+03  0.00000000000E+00 0. -1.
         21   -1    0    0  504  502 -0.00000000000E+00 -0.00000000000E+00 -0.83575360753E+03  0.83575360753E+03  0.00000000000E+00 0. -1.
         21    1    1    2  503  502 -0.40443294217E+02  0.38774118685E+02 -0.35238412252E+03  0.35681040082E+03  0.00000000000E+00 0. -1.
         21    1    1    2  504  505  0.63938237783E+02 -0.11544739581E+03 -0.44565879136E+03  0.46478807834E+03  0.00000000000E+00 0. -1.
         21    1    1    2  505  501 -0.31387842586E+02  0.47260779870E+02  0.21451272100E+03  0.22188845272E+03  0.00000000000E+00 0. -1.
         21    1    1    2  506  503  0.78928990204E+01  0.29412497255E+02 -0.11822579809E+02  0.32667510512E+02  0.00000000000E+00 0. -1.
<scales pt_clust_3="56.16924" pt_clust_4="14000.00000" pt_clust_5="81.94880" pt_clust_6="30.45313"></scales>
<clustering>
<clus scale="   30.453">  1  6  2 -1</clus>
<clus scale="   56.169">  2  3  1 -1</clus>
<clus scale="   81.949">  1  5  2 -1</clus>
<clus scale="   30.453">  1  3  2 -1</clus>
</clustering>
</event>
<event>
 6    0  0.1463946E+003  0.1157758E+03  0.7546771E-02  0.1250233E+00
         21   -1    0    0  503  501  0.00000000000E+00  0.00000000000E+00  0.21643740662E+04  0.21643740662E+04  0.00000000000E+00 0.  1.
         21   -1    0    0  506  502 -0.00000000000E+00 -0.00000000000E+00 -0.22489258910E+02  0.22489258910E+02  0.00000000000E+00 0.  1.
         21    1    1    2  503  504  0.33156127920E+02  0.31726567717E+02  0.83953600980E+03  0.84078928137E+03  0.00000000000E+00 0.  1.
         21    1    1    2  504  505  0.45381641669E+02  0.68481823946E+02  0.28862891154E+03  0.30009315585E+03  0.00000000000E+00 0.  1.
         21    1    1    2  505  502  0.55638770020E+02  0.38484164107E+00  0.80773402072E+02  0.98082431223E+02  0.00000000000E+00 0.  1.
         21    1    1    2  506  501 -0.13417653961E+03 -0.10059323330E+03  0.93294648383E+03  0.94789845662E+03  0.00000000000E+00 0.  1.
<scales pt_clust_3="45.89013" pt_clust_4="14000.00000" pt_clust_5="57.93306" pt_clust_6="115.77583"></scales>
<clustering>
<clus scale="   45.890">  1  3  2 -1</clus>
<clus scale="   57.933">  2  5  1 -1</clus>
<clus scale="  115.776">  1  6  2 -1</clus>
<clus scale="   45.890">  1  3  2 -1</clus>
</clustering>
</event>
<event>
 6    0  0.1463946E+003  0.1299086E+03  0.7546771E-02  0.1227591E+00
         21   -1    0    0  506  501  0.00000000000E+00  0.00000000000E+00  0.12731606392E+03  0.12731606392E+03  0.00000000000E+00 0.  1.
         21   -1    0    0  505  502 -0.00000000000E+00 -0.00000000000E+00 -0.21026253104E+04  0.21026253104E+04  0.00000000000E+00 0. -1.
         21    1    1    2  503  502  0.24116863825E+02 -0.19596259099E+02 -0.13460030065E+04  0.13463616639E+04  0.00000000000E+00 0. -1.
         21    1    1    2  504  501 -0.13522474214E+03 -0.17496031239E+02  0.78782511024E+02  0.15747547758E+03  0.00000000000E+00 0.  1.
         21    1    1    2  505  504  0.81224065263E+02  0.47109355890E+02 -0.25195405358E+03  0.26888191703E+03  0.00000000000E+00 0. -1.
         21    1    1    2  506  503  0.29883813055E+02 -0.10017065551E+02 -0.45613469746E+03  0.45722231585E+03  0.00000000000E+00 0. -1.
<scales pt_clust_3="31.07469" pt_clust_4="14000.00000" pt_clust_5="129.90863" pt_clust_6="49.52328"></scales>
<clustering>
<clus scale="   31.075">  2  3  1 -1</clus>
<clus scale="   49.523">  2  6  1 -1</clus>
<clus scale="  129.909">  2  5  1 -1</clus>
<clus scale="  129.909">  1  3  2 -1</clus>
</clustering>
</event>
<event>
 6    0  0.1463946E+003  0.7203342E+02  0.7546771E-02  0.1353312E+00
         21   -1    0    0  506  501  0.00000000000E+00  0.00000000000E+00  0.31575225156E+03  0.31575225156E+03  0.00000000000E+00 0. -1.
         21   -1    0    0  505  502 -0.00000000000E+00 -0.00000000000E+00 -0.14639707891E+03  0.14639707891E+03  0.00000000000E+00 0. -1.
         21    1    1    2  503  504 -0.37577154493E+02  0.39068501513E+02  0.41581923510E+02  0.68318714223E+02  0.00000000000E+00 0. -1.
         21    1    1    2  504  502 -0.32240361515E+02  0.57143694223E+02 -0.75882304372E+02  0.10031434004E+03  0.00000000000E+00 0. -1.
         21    1    1    2  505  501  0.31758552997E+02 -0.11367162824E+03  0.40046156037E+02  0.12463362054E+03  0.00000000000E+00 0. -1.
         21    1    1    2  506  503  0.38058963011E+02  0.17459432501E+02  0.16360939747E+03  0.16888265568E+03  0.00000000000E+00 0. -1.
<scales pt_clust_3="51.23839" pt_clust_4="72.03342" pt_clust_5="14000.00000" pt_clust_6="41.87262"></scales>
<clustering>
<clus scale="   41.873">  1  6  2 -1</clus>
<clus scale="   51.238">  1  3  2 -1</clus>
<clus scale="   72.033">  2  4  1 -1</clus>
<clus scale="   41.873">  1  3  2 -1</clus>
</clustering>
</event>
<event>
 6    0  0.1463946E+003  0.9630916E+02  0.7546771E-02  0.1288254E+00
         21   -1    0    0  506  501  0.00000000000E+00  0.00000000000E+00  0.28749768696E+03  0.28749768696E+03  0.00000000000E+00 0.  1.
         21   -1    0    0  504  502 -0.00000000000E+00 -0.00000000000E+00 -0.13381191723E+03  0.13381191723E+03  0.00000000000E+00 0.  1.
         21    1    1    2  503  505 -0.27160742409E+02 -0.28644269135E+02  0.23631548064E+02  0.46007066266E+02  0.00000000000E+00 0.  1.
         21    1    1    2  504  503 -0.70499738306E+02  0.65695873286E+02 -0.81736491363E+02  0.12636065404E+03  0.00000000000E+00 0.  1.
         21    1    1    2  505  501  0.24323984053E+02  0.24870393913E+02  0.53027396516E+02  0.63420008475E+02  0.00000000000E+00 0.  1.
         21    1    1    2  506  502  0.73336496662E+02 -0.61921998063E+02  0.15876331651E+03  0.18552187541E+03  0.00000000000E+00 0.  1.
<scales pt_clust_3="34.19163" pt_clust_4="96.30916" pt_clust_5="34.78782" pt_clust_6="14000.00000"></scales>
<clustering>
<clus scale="   34.788">  1  5  2 -1</clus>
<clus scale="   34.192">  1  3  2 -1</clus>
<clus scale="   96.309">  2  4  1 -1</clus>
<clus scale="   34.788">  1  3  2 -1</clus>
</clustering>
</event>
<event>
 6    0  0.1463946E+003  0.8062312E+02  0.7546771E-02  0.1327292E+00
         21   -1    0    0  505  501  0.00000000000E+00  0.00000000000E+00  0.34997202094E+02  0.34997202094E+02  0.00000000000E+00 0. -1.
         21   -1    0    0  504  502 -0.00000000000E+00 -0.00000000000E+00 -0.20458127914E+04  0.20458127914E+04  0.00000000000E+00 0.  1.
         21    1    1    2  503  506  0.27085950186E+02  0.11829895738E+03 -0.55111331044E+03  0.56431743988E+03  0.00000000000E+00 0.  1.
         21    1    1    2  504  503 -0.15377051515E+01 -0.40351204266E+02 -0.13661342629E+04  0.13667309203E+04  0.00000000000E+00 0.  1.
         21    1    1    2  505  502  0.18505019540E+02 -0.36941792171E+02 -0.35393194473E+01  0.41468765826E+02  0.00000000000E+00 0. -1.
         21    1    1    2  506  501 -0.44053264574E+02 -0.41005960939E+02 -0.90028696532E+02  0.10829286750E+03  0.00000000000E+00 0. -1.
<scales pt_clust_3="14000.00000" pt_clust_4="40.38049" pt_clust_5="42.49458" pt_clust_6="80.62312"></scales>
<clustering>
<clus scale="   40.380">  2  4  1 -1</clus>
<clus scale="   42.495">  1  5  2 -1</clus>
<clus scale="   80.623">  1  6  2 -1</clus>
<clus scale="   42.495">  1  3  2 -1</clus>
</clustering>
</event>
<event>
 6    0  0.1463946E+003  0.1102921E+03  0.7546771E-02  0.1260030E+00
         21   -1    0    0  503  501  0.00000000000E+00  0.00000000000E+00  0.98154927256E+02  0.98154927256E+02  0.00000000000E+00 0.  1.
         21   -1    0    0  504  502 -0.00000000000E+00 -0.00000000000E+00 -0.89732755297E+03  0.89732755297E+03  0.00000000000E+00 0.  1.
         21    1    1    2  503  502 -0.11429324614E+01  0.65755779980E+02 -0.45967664290E+03  0.46435734615E+03  0.00000000000E+00 0.  1.
         21    1    1    2  504  505 -0.20952159076E+02 -0.17179199746E+03 -0.35461330331E+03  0.39459102657E+03  0.00000000000E+00 0.  1.
         21    1    1    2  505  506 -0.21017427780E+02  0.81785088621E+02 -0.11879040419E+01  0.84450838404E+02  0.00000000000E+00 0.  1.
         21    1    1    2  506  501  0.43112519317E+02  0.24251128858E+02  0.16305224544E+02  0.52083269101E+02  0.00000000000E+00 0.  1.
<scales pt_clust_3="66.64456" pt_clust_4="110.29210" pt_clust_5="14000.00000" pt_clust_6="49.46521"></scales>
<clustering>
<clus scale="   49.465">  1  6  2 -1</clus>
<clus scale="   66.645">  2  3  1 -1</clus>
<clus scale="  110.292">  2  4  1 -1</clus>
<clus scale="   49.465">  1  3  2 -1</clus>
</clustering>
</event>
<event>
 6    0  0.1463946E+003  0.1116890E+03  0.7546771E-02  0.1257474E+00
         21   -1    0    0  503  501  0.00000000000E+00  0.00000000000E+00  0.61291167736E+03  0.61291167736E+03  0.00000000000E+00 0.  1.
         21   -1    0    0  506  502 -0.00000000000E+00 -0.00000000000E+00 -0.11476583222E+03  0.11476583222E+03  0.00000000000E+00 0. -1.
         21    1    1    2  503  505 -0.55532363267E+02  0.91034980079E+02  0.39010708044E+03  0.40441902178E+03  0.00000000000E+00 0.  1.
         21    1    1    2  504  501 -0.67311412445E+02  0.16490859191E+02 -0.20074995088E+02  0.72151092230E+02  0.00000000000E+00 0. -1.
         21    1    1    2  505  502  0.15290068429E+03 -0.74412015741E+02  0.90258408151E+02  0.19251583723E+03  0.00000000000E+00 0. -1.
         21    1    1    2  506  504 -0.30056908578E+02 -0.33113823529E+02  0.37855351636E+02  0.58591558347E+02  0.00000000000E+00 0. -1.
<scales pt_clust_3="111.68896" pt_clust_4="80.60927" pt_clust_5="14000.00000" pt_clust_6="44.72072"></scales>
<clustering>
<clus scale="   44.721">  2  6  1 -1</clus>
<clus scale="   80.609">  2  4  1 -1</clus>
<clus scale="  111.689">  1  3  2 -1</clus>
<clus scale="  111.689">  1  3  2 -1</clus>
</clustering>
</event>
<event>
 6    0  0.1463946E+003  0.7884381E+02  0.7546771E-02  0.1332365E+00
         21   -1    0    0  504  501  0.00000000000E+00  0.00000000000E+00  0.17679669432E+03  0.17679669432E+03  0.00000000000E+00 0. -1.
         21   -1    0    0  506  502 -0.00000000000E+00 -0.00000000000E+00 -0.18779779931E+03  0.18779779931E+03  0.00000000000E+00 0. -1.
         21    1    1    2  503  501 -0.17435515733E+01 -0.57907912492E+02  0.10440320434E+03  0.11940014815E+03  0.00000000000E+00 0. -1.
         21    1    1    2  504  505  0.21807586864E+01 -0.62570118129E+02 -0.25371781755E+02  0.67553702345E+02  0.00000000000E+00 0. -1.
         21    1    1    2  505  502 -0.34210617467E+02  0.14302711798E+02 -0.42791108102E+02  0.56621664095E+02  0.00000000000E+00 0. -1.
         21    1    1    2  506  503  0.33773410354E+02  0.10617531882E+03 -0.47241419478E+02  0.12101897904E+03  0.00000000000E+00 0. -1.
<scales pt_clust_3="57.24465" pt_clust_4="78.84381" pt_clust_5="37.08010" pt_clust_6="14000.00000"></scales>
<clustering>
<clus scale="   37.080">  2  5  1 -1</clus>
<clus scale="   57.245">  1  3  2 -1</clus>
<clus scale="   78.844">  2  4  1 -1</clus>
<clus scale="   57.245">  1  3  2 -1</clus>
</clustering>
</event>
<event>
 6    0  0.1463946E+003  0.1086274E+03  0.7546771E-02  0.1263133E+00
         21   -1    0    0  503  501  0.00000000000E+00  0.00000000000E+00  0.21943259006E+03  0.21943259006E+03  0.00000000000E+00 0. -1.
         21   -1    0    0  504  502 -0.00000000000E+00 -0.00000000000E+00 -0.86019594119E+03  0.86019594119E+03  0.00000000000E+00 0.  1.
         21    1    1    2  503  505  0.11538641561E+02 -0.31127402643E+02  0.17158441429E+03  0.17476632018E+03  0.00000000000E+00 0. -1.
         21    1    1    2  504  501 -0.28371226562E+02 -0.74893407066E+02 -0.23730436457E+03  0.25045420812E+03  0.00000000000E+00 0. -1.
         21    1    1    2  505  506 -0.18229015099E+02 -0.39595549234E+02  0.14653440057E+02  0.45987257105E+02  0.00000000000E+00 0.  1.
         21    1    1    2  506  502  0.35061600099E+02  0.14561635894E+03 -0.58969684091E+03  0.60842074584E+03  0.00000000000E+00 0.  1.
<scales pt_clust_3="33.19722" pt_clust_4="108.62741" pt_clust_5="60.93935" pt_clust_6="14000.00000"></scales>
<clustering>
<clus scale="   33.197">  1  3  2 -1</clus>
<clus scale="   60.939">  1  5  2 -1</clus>
<clus scale="  108.627">  2  4  1 -1</clus>
<clus scale="   33.197">  1  3  2 -1</clus>
</clustering>
</event>
<event>
 6    0  0.1463946E+003  0.1012831E+03  0.7546771E-02  0.1277621E+00
         21   -1    0    0  504  501  0.00000000000E+00  0.00000000000E+00  0.15669495757E+04  0.15669495757E+04  0.00000000000E+00 0.  1.
         21   -1    0    0  505  502 -0.00000000000E+00 -0.00000000000E+00 -0.17703814940E+03  0.17703814940E+03  0.00000000000E+00 0.  1.
         21    1    1    2  503  506  0.52855985268E+02 -0.15505819156E+03  0.33057771789E+03  0.36894230649E+03  0.00000000000E+00 0.  1.
         21    1    1    2  504  502 -0.14713338978E+02  0.54574496776E+02  0.58784319955E+02  0.81550317687E+02  0.00000000000E+00 0.  1.
         21    1    1    2  505  503  0.22830427472E+01  0.98717774167E+02 -0.12942746026E+03  0.16279397621E+03  0.00000000000E+00 0.  1.
         21    1    1    2  506  501 -0.40425689038E+02  0.17659206144E+01  0.11299768487E+04  0.11307011247E+04  0.00000000000E+00 0.  1.
<scales pt_clust_3="14000.00000" pt_clust_4="58.81583" pt_clust_5="101.28307" pt_clust_6="40.46424"></scales>
<clustering>
<clus scale="   40.464">  1  6  2 -1</clus>
<clus scale="   58.816">  1  4  2 -1</clus>
<clus scale="  101.283">  2  5  1 -1</clus>
<clus scale="   40.464">  1  3  2 -1</clus>
</clustering>
</event>
<event>
 6    0  0.1463946E+003  0.1637237E+03  0.7546771E-02  0.1184556E+00
         21   -1    0    0  506  501  0.00000000000E+00  0.00000000000E+00  0.10439704812E+04  0.10439704812E+04  0.00000000000E+00 0. -1.
         21   -1    0    0  503  502 -0.00000000000E+00 -0.00000000000E+00 -0.20318328222E+03  0.20318328222E+03  0.00000000000E+00 0.  1.
         21    1    1    2  503  504 -0.33371808450E+02  0.15421328830E+02 -0.64093490166E+02  0.73888229535E+02  0.00000000000E+00 0.  1.
         21    1    1    2  504  505 -0.11608900284E+03 -0.39223555520E+02 -0.95526811618E+02  0.15537218421E+03  0.00000000000E+00 0.  1.
         21    1    1    2  505  501  0.23190089621E+02  0.20390154928E+02  0.47532235592E+02  0.56682026207E+02  0.00000000000E+00 0. -1.
         21    1    1    2  506  502  0.12627072167E+03  0.34120717619E+01  0.95287526517E+03  0.96121132347E+03  0.00000000000E+00 0. -1.
<scales pt_clust_3="35.49345" pt_clust_4="35.49345" pt_clust_5="30.87942" pt_clust_6="150.42881"></scales>
<clustering>
<clus scale="   30.879">  1  5  2 -1</clus>
<clus scale="   35.493">  3  4 -1 -1</clus>
<clus scale="  150.429">  1  6  2 -1</clus>
<clus scale="   30.879">  1  3  2 -1</clus>
</clustering>
</event>
<event>
 6    0  0.1463946E+003  0.8593334E+02  0.7546771E-02  0.1313010E+00
         21   -1    0    0  504  501  0.00000000000E+00  0.00000000000E+00  0.56865304809E+03  0.56865304809E+03  0.00000000000E+00 0.  1.
         21   -1    0    0  505  502 -0.00000000000E+00 -0.00000000000E+00 -0.80224939271E+02  0.80224939271E+02  0.00000000000E+00 0.  1.
         21    1    1    2  503  501  0.66220139704E+02  0.97970447285E+02  0.25083811424E+03  0.27731403679E+03  0.00000000000E+00 0.  1.
         21    1    1    2  504  506 -0.42784066621E+02 -0.25566235186E+02  0.23566350537E+03  0.24087630955E+03  0.00000000000E+00 0.  1.
         21    1    1    2  505  503 -0.54034615010E+02 -0.70718291119E+02  0.24866599030E+02  0.92407597444E+02  0.00000000000E+00 0.  1.
         21    1    1    2  506  502  0.30598541927E+02 -0.16859209805E+01 -0.22940109824E+02  0.38280043578E+02  0.00000000000E+00 0.  1.
<scales pt_clust_3="85.93334" pt_clust_4="48.51479" pt_clust_5="14000.00000" pt_clust_6="30.64495"></scales>
<clustering>
<clus scale="   30.645">  2  6  1 -1</clus>
<clus scale="   48.515">  1  4  2 -1</clus>
<clus scale="   85.933">  1  3  2 -1</clus>
<clus scale="   48.515">  1  3  2 -1</clus>
</clustering>
</event>
<event>
 6    0  0.1463946E+003  0.2300750E+03  0.7546771E-02  0.1126587E+00
         21   -1    0    0  504  501  0.00000000000E+00  0.00000000000E+00  0.94851286835E+03  0.94851286835E+03  0.00000000000E+00 0. -1.
         21   -1    0    0  506  502 -0.00000000000E+00 -0.00000000000E+00 -0.43277436433E+03  0.43277436433E+03  0.00000000000E+00 0.  1.
         21    1    1    2  503  501  0.46430964896E+02 -0.30175921254E+02  0.71275488365E+03  0.71490275205E+03  0.00000000000E+00 0. -1.
         21    1    1    2  504  502 -0.85270363487E+02  0.49924476644E+01 -0.40081158367E+02  0.94352841393E+02  0.00000000000E+00 0.  1.
         21    1    1    2  505  503  0.59909663613E+02 -0.19679898031E+03  0.10258499643E+03  0.22987537480E+03  0.00000000000E+00 0. -1.
         21    1    1    2  506  505 -0.21070265023E+02  0.22198245390E+03 -0.25952021770E+03  0.34215626445E+03  0.00000000000E+00 0.  1.
<scales pt_clust_3="55.37527" pt_clust_4="79.91583" pt_clust_5="230.07499" pt_clust_6="14000.00000"></scales>
<clustering>
<clus scale="   55.375">  1  3  2 -1</clus>
<clus scale="   79.916">  2  4  1 -1</clus>
<clus scale="  230.075">  1  5  2 -1</clus>
<clus scale="   55.375">  1  3  2 -1</clus>
</clustering>
</event>
<event>
 6    0  0.1463946E+003  0.1368356E+03  0.7546771E-02  0.1217651E+00
         21   -1    0    0  506  501  0.00000000000E+00  0.00000000000E+00  0.27123841583E+03  0.27123841583E+03  0.00000000000E+00 0. -1.
         21   -1    0    0  504  502 -0.00000000000E+00 -0.00000000000E+00 -0.11680976512E+04  0.11680976512E+04  0.00000000000E+00 0. -1.
         21    1    1    2  503  501 -0.23592767737E+02 -0.13698552462E+03  0.11025353811E+03  0.17741898239E+03  0.00000000000E+00 0. -1.
         21    1    1    2  504  505 -0.60086862215E+02 -0.22690125532E+02 -0.84770492278E+03  0.85013464164E+03  0.00000000000E+00 0. -1.
         21    1    1    2  505  503 -0.56601607925E+02  0.12104570989E+03 -0.21737145734E+03  0.25515908052E+03  0.00000000000E+00 0. -1.
         21    1    1    2  506  502  0.14028123788E+03  0.38629940264E+02  0.57963606642E+02  0.15662336250E+03  0.00000000000E+00 0. -1.
<scales pt_clust_3="136.83557" pt_clust_4="64.22829" pt_clust_5="14000.00000" pt_clust_6="135.62164"></scales>
<clustering>
<clus scale="   64.228">  2  4  1 -1</clus>
<clus scale="  135.622">  1  6  2 -1</clus>
<clus scale="  136.836">  1  3  2 -1</clus>
<clus scale="  135.622">  1  3  2 -1</clus>
</clustering>
</event>
<event>
 6    0  0.1463946E+003  0.1304642E+03  0.7546771E-02  0.1226769E+00
         21   -1    0    0  505  501  0.00000000000E+00  0.00000000000E+00  0.50637887138E+02  0.50637887138E+02  0.00000000000E+00 0. -1.
         21   -1    0    0  506  502 -0.00000000000E+00 -0.00000000000E+00 -0.30809945781E+04  0.30809945781E+04  0.00000000000E+00 0. -1.
         21    1    1    2  503  502  0.50115957314E+02  0.38271754858E+02 -0.10318658775E+04  0.10337908519E+04  0.00000000000E+00 0. -1.
         21    1    1    2  504  501 -0.18749263827E+02 -0.63382930335E+02  0.15783378437E+02  0.67956204918E+02  0.00000000000E+00 0. -1.
         21    1    1    2  505  503  0.19919570006E+02  0.73947133955E+02 -0.18424277654E+04  0.18440187197E+04  0.00000000000E+00 0. -1.
         21    1    1    2  506  504 -0.51286263493E+02 -0.48835958478E+02 -0.17184642655E+03  0.18586668874E+03  0.00000000000E+00 0. -1.
<scales pt_clust_3="47.37637" pt_clust_4="66.09789" pt_clust_5="47.37637" pt_clust_6="119.56160"></scales>
<clustering>
<clus scale="   47.376">  3  5 -1 -1</clus>
<clus scale="   66.098">  1  4  2 -1</clus>
<clus scale="  119.562">  1  6  2 -1</clus>
<clus scale="   66.098">  1  3  2 -1</clus>
</clustering>
</event>
<event>
 6    0  0.1463946E+003  0.8492030E+02  0.7546771E-02  0.1315641E+00
         21   -1    0    0  503  501  0.00000000000E+00  0.00000000000E+00  0.24874149712E+04  0.24874149712E+04  0.00000000000E+00 0. -1.
         21   -1    0    0  506  502 -0.00000000000E+00 -0.00000000000E+00 -0.83821171652E+02  0.83821171652E+02  0.00000000000E+00 0. -1.
         21    1    1    2  503  505 -0.37206292644E+02 -0.76361462901E+02  0.43731213528E+03  0.44548544857E+03  0.00000000000E+00 0. -1.
         21    1    1    2  504  501  0.85442859153E+02  0.35970032917E+01  0.19317316040E+04  0.19336236476E+04  0.00000000000E+00 0. -1.
         21    1    1    2  505  502 -0.73119842155E+02  0.50335628740E+02 -0.49505807494E+02  0.10164158506E+03  0.00000000000E+00 0. -1.
         21    1    1    2  506  504  0.24883275646E+02  0.22428830869E+02  0.84055867708E+02  0.90485461579E+02  0.00000000000E+00 0.  1.
<scales pt_clust_3="83.37102" pt_clust_4="84.92030" pt_clust_5="14000.00000" pt_clust_6="33.49970"></scales>
<clustering>
<clus scale="   33.500">  2  6  1 -1</clus>
<clus scale="   83.371">  1  3  2 -1</clus>
<clus scale="   84.920">  1  4  2 -1</clus>
<clus scale="   83.371">  1  3  2 -1</clus>
</clustering>
</event>
<event>
 6    0  0.1463946E+003  0.7683601E+02  0.7546771E-02  0.1338278E+00
         21   -1    0    0  503  501  0.00000000000E+00  0.00000000000E+00  0.15649131125E+04  0.15649131125E+04  0.00000000000E+00 0. -1.
         21   -1    0    0  505  502 -0.00000000000E+00 -0.00000000000E+00 -0.83043049599E+02  0.83043049599E+02  0.00000000000E+00 0. -1.
         21    1    1    2  503  506  0.10357145884E+02 -0.29081804151E+02  0.79706304671E+03  0.79766065606E+03  0.00000000000E+00 0. -1.
         21    1    1    2  504  501 -0.60433749057E+02 -0.29942565426E+02  0.66796674828E+03  0.67136307022E+03  0.00000000000E+00 0. -1.
         21    1    1    2  505  504 -0.16137582347E+02 -0.34776760458E+02  0.46577715756E+02  0.60326845077E+02  0.00000000000E+00 0. -1.
         21    1    1    2  506  502  0.66214185520E+02  0.93801130035E+02 -0.29737447809E+02  0.11860559077E+03  0.00000000000E+00 0. -1.
<scales pt_clust_3="30.87105" pt_clust_4="14000.00000" pt_clust_5="39.90052" pt_clust_6="76.83601"></scales>
<clustering>
<clus scale="   30.871">  1  3  2 -1</clus>
<clus scale="   39.901">  2  5  1 -1</clus>
<clus scale="   76.836">  2  6  1 -1</clus>
<clus scale="   30.871">  1  3  2 -1</clus>
</clustering>
</event>
<event>
 6    0  0.1463946E+003  0.8291448E+02  0.7546771E-02  0.1320978E+00
         21   -1    0    0  504  501  0.00000000000E+00  0.00000000000E+00  0.20475642036E+03  0.20475642036E+03  0.00000000000E+00 0.  1.
         21   -1    0    0  503  502 -0.00000000000E+00 -0.00000000000E+00 -0.11470564346E+03  0.11470564346E+03  0.00000000000E+00 0.  1.
         21    1    1    2  503  505  0.33613939997E+02 -0.60559844178E+01 -0.37213452652E+02  0.50511513219E+02  0.00000000000E+00 0.  1.
         21    1    1    2  504  502 -0.12087995573E+03  0.41020228980E+02  0.74738890454E+02  0.14792067005E+03  0.00000000000E+00 0.  1.
         21    1    1    2  505  506  0.46926523517E+02 -0.29864634618E+02  0.13134162430E+01  0.55639195470E+02  0.00000000000E+00 0.  1.
         21    1    1    2  506  501  0.40339492215E+02 -0.50996099444E+01  0.51211922854E+02  0.65390685087E+02  0.00000000000E+00 0.  1.
<scales pt_clust_3="34.15512" pt_clust_4="82.91448" pt_clust_5="14000.00000" pt_clust_6="44.07416"></scales>
<clustering>
<clus scale="   34.155">  2  3  1 -1</clus>
<clus scale="   44.074">  1  6  2 -1</clus>
<clus scale="   82.914">  1  4  2 -1</clus>
<clus scale="   44.074">  1  3  2 -1</clus>
</clustering>
</event>
<event>
 6    0  0.1463946E+003  0.1056579E+03  0.7546771E-02  0.1268829E+00
         21   -1    0    0  504  501  0.00000000000E+00  0.00000000000E+00  0.10810780297E+03  0.10810780297E+03  0.00000000000E+00 0.  1.
         21   -1    0    0  505  502 -0.00000000000E+00 -0.00000000000E+00 -0.58765644983E+03  0.58765644983E+03  0.00000000000E+00 0. -1.
         21    1    1    2  503  501  0.18942694838E+02 -0.53878718454E+02  0.42399779688E+02  0.71130045041E+02  0.00000000000E+00 0.  1.
         21    1    1    2  504  506  0.18696482728E+02  0.54168307649E+02 -0.52042509977E+02  0.77409216923E+02  0.00000000000E+00 0. -1.
         21    1    1    2  505  503 -0.62971473458E+02 -0.10095667727E+03 -0.79127970621E+02  0.14289469161E+03  0.00000000000E+00 0.  1.
         21    1    1    2  506  502  0.25332295892E+02  0.10066708808E+03 -0.39077794595E+03  0.40433029923E+03  0.00000000000E+00 0. -1.
<scales pt_clust_3="57.11166" pt_clust_4="47.07285" pt_clust_5="105.65787" pt_clust_6="14000.00000"></scales>
<clustering>
<clus scale="   57.112">  1  3  2 -1</clus>
<clus scale="   47.073">  1  4  2 -1</clus>
<clus scale="  105.658">  1  5  2 -1</clus>
<clus scale="   57.112">  1  3  2 -1</clus>
</clustering>
</event>
<event>
 6    0  0.1463946E+003  0.6939051E+02  0.7546771E-02  0.1362178E+00
         21   -1    0    0  503  501  0.00000000000E+00  0.00000000000E+00  0.30789369000E+03  0.30789369000E+03  0.00000000000E+00 0.  1.
         21   -1    0    0  506  502 -0.00000000000E+00 -0.00000000000E+00 -0.19497909105E+03  0.19497909105E+03  0.00000000000E+00 0. -1.
         21    1    1    2  503  504 -0.57426049890E+02 -0.15460224723E+02  0.94920162008E+02  0.11201163739E+03  0.00000000000E+00 0.  1.
         21    1    1    2  504  502 -0.15640794075E+02 -0.43834971658E+02 -0.89779666559E+02  0.10112629582E+03  0.00000000000E+00 0. -1.
         21    1    1    2  505  501  0.22375085924E+02 -0.43272942565E+02  0.15759085365E+03  0.16494868652E+03  0.00000000000E+00 0.  1.
         21    1    1    2  506  505  0.50691758041E+02  0.10256813895E+03 -0.49816750151E+02  0.12478616131E+03  0.00000000000E+00 0. -1.
<scales pt_clust_3="69.39051" pt_clust_4="46.54180" pt_clust_5="49.90503" pt_clust_6="14000.00000"></scales>
<clustering>
<clus scale="   46.542">  2  4  1 -1</clus>
<clus scale="   49.905">  1  5  2 -1</clus>
<clus scale="   69.391">  1  3  2 -1</clus>
<clus scale="   49.905">  1  3  2 -1</clus>
</clustering>
</event>
<event>
 6    0  0.1463946E+003  0.1359972E+03  0.7546771E-02  0.1218819E+00
         21   -1    0    0  505  501  0.00000000000E+00  0.00000000000E+00  0.10780435676E+03  0.10780435676E+03  0.00000000000E+00 0.  1.
         21   -1    0    0  504  502 -0.00000000000E+00 -0.00000000000E+00 -0.11883970532E+04  0.11883970532E+04  0.00000000000E+00 0. -1.
         21    1    1    2  503  502 -0.27839496124E+02 -0.52478256971E+02 -0.53123344230E+03  0.53454464287E+03  0.00000000000E+00 0. -1.
         21    1    1    2  504  501 -0.96316803944E+02  0.61938230984E+02 -0.31325329130E+03  0.33352795338E+03  0.00000000000E+00 0.  1.
         21    1    1    2  505  506  0.86924264385E+02 -0.11083232728E+03  0.27272943837E+02  0.14346932068E+03  0.00000000000E+00 0.  1.
         21    1    1    2  506  503  0.37232035683E+02  0.10137235327E+03 -0.26337890673E+03  0.28465949308E+03  0.00000000000E+00 0.  1.
<scales pt_clust_3="59.40543" pt_clust_4="135.99718" pt_clust_5="14000.00000" pt_clust_6="83.45662"></scales>
<clustering>
<clus scale="   59.405">  2  3  1 -1</clus>
<clus scale="   83.457">  2  6  1 -1</clus>
<clus scale="  135.997">  2  4  1 -1</clus>
<clus scale="  135.997">  1  3  2 -1</clus>
</clustering>
</event>
<event>
 6    0  0.1463946E+003  0.1118752E+03  0.7546771E-02  0.1257136E+00
         21   -1    0    0  505  501  0.00000000000E+00  0.00000000000E+00  0.41125927397E+02  0.41125927397E+02  0.00000000000E+00 0. -1.
         21   -1    0    0  504  502 -0.00000000000E+00 -0.00000000000E+00 -0.21955652130E+04  0.21955652130E+04  0.00000000000E+00 0.  1.
         21    1    1    2  503  502  0.45823198229E+01  0.43548088287E+02 -0.86507651507E+03  0.86618405121E+03  0.00000000000E+00 0.  1.
         21    1    1    2  504  506  0.11596651482E+03 -0.18085380009E+02 -0.26033430449E+03  0.28556831691E+03  0.00000000000E+00 0. -1.
         21    1    1    2  505  503 -0.11014118778E+03 -0.69638984443E+02 -0.10312963558E+04  0.10394964372E+04  0.00000000000E+00 0.  1.
         21    1    1    2  506  501 -0.10407646867E+02  0.44176276165E+02  0.22678898275E+01  0.45442335034E+02  0.00000000000E+00 0. -1.
<scales pt_clust_3="43.78851" pt_clust_4="111.87519" pt_clust_5="14000.00000" pt_clust_6="46.05728"></scales>
<clustering>
<clus scale="   43.789">  2  3  1 -1</clus>
<clus scale="   46.057">  1  6  2 -1</clus>
<clus scale="  111.875">  1  4  2 -1</clus>
<clus scale="   46.057">  1  3  2 -1</clus>
</clustering>
</event>
<event>
 6    0  0.1463946E+003  0.1000533E+03  0.7546771E-02  0.1280184E+00
         21   -1    0    0  504  501  0.00000000000E+00  0.00000000000E+00  0.18580024092E+04  0.18580024092E+04  0.00000000000E+00 0.  1.
         21   -1    0    0  505  502 -0.00000000000E+00 -0.00000000000E+00 -0.48821143058E+02  0.48821143058E+02  0.00000000000E+00 0.  1.
         21    1    1    2  503  502 -0.33223472703E+02 -0.80316915950E+02  0.20448560622E+02  0.89290255670E+02  0.00000000000E+00 0.  1.
         21    1    1    2  504  503 -0.44611826851E+02 -0.14568258798E+02  0.42077576083E+03  0.42338480152E+03  0.00000000000E+00 0. -1.
         21    1    1    2  505  506  0.32658744449E+02 -0.20481300953E+02  0.26031725635E+02  0.46515889944E+02  0.00000000000E+00 0. -1.
         21    1    1    2  506  501  0.45176555104E+02  0.11536647570E+03  0.13419252191E+04  0.13476326051E+04  0.00000000000E+00 0.  1.
<scales pt_clust_3="100.05330" pt_clust_4="46.10634" pt_clust_5="38.54967" pt_clust_6="14000.00000"></scales>
<clustering>
<clus scale="   38.550">  2  5  1 -1</clus>
<clus scale="   46.106">  1  4  2 -1</clus>
<clus scale="  100.053">  2  3  1 -1</clus>
<clus scale="   46.106">  1  3  2 -1</clus>
</clustering>
</event>
<event>
 6    0  0.1463946E+003  0.1424537E+03  0.7546771E-02  0.1210065E+00
         21   -1    0    0  504  501  0.00000000000E+00  0.00000000000E+00  0.14625687029E+03  0.14625687029E+03  0.00000000000E+00 0.  1.
         21   -1    0    0  506  502 -0.00000000000E+00 -0.00000000000E+00 -0.11515576925E+04  0.11515576925E+04  0.00000000000E+00 0. -1.
         21    1    1    2  503  501 -0.47167279910E+02 -0.24261660232E+02 -0.85989675840E+01  0.53733813328E+02  0.00000000000E+00 0.  1.
         21    1    1    2  504  502 -0.58748201153E+02  0.12368909174E+02 -0.86773964723E+02  0.10551806484E+03  0.00000000000E+00 0.  1.
         21    1    1    2  505  503  0.18948906011E+03  0.75186801317E+01  0.32520090971E+02  0.19240631687E+03  0.00000000000E+00 0.  1.
         21    1    1    2  506  505 -0.83573579050E+02  0.43740709259E+01 -0.94244798082E+03  0.94615636772E+03  0.00000000000E+00 0. -1.
<scales pt_clust_3="53.04131" pt_clust_4="63.20552" pt_clust_5="142.45375" pt_clust_6="14000.00000"></scales>
<clustering>
<clus scale="   53.041">  1  3  2 -1</clus>
<clus scale="   63.206">  2  4  1 -1</clus>
<clus scale="  142.454">  1  5  2 -1</clus>
<clus scale="   53.041">  1  3  2 -1</clus>
</clustering>
</event>
<event>
 6    0  0.1463946E+003  0.1287629E+03  0.7546771E-02  0.1229303E+00
         21   -1    0    0  505  501  0.00000000000E+00  0.00000000000E+00  0.31010469124E+03  0.31010469124E+03  0.00000000000E+00 0. -1.
         21   -1    0    0  504  502 -0.00000000000E+00 -0.00000000000E+00 -0.87168808088E+03  0.87168808088E+03  0.00000000000E+00 0. -1.
         21    1    1    2  503  502 -0.70048432833E+02 -0.57739529700E+02 -0.54094694439E+03  0.54851092321E+03  0.00000000000E+00 0. -1.
         21    1    1    2  504  501  0.30561054695E+02  0.13217988769E+01  0.32395893921E+02  0.44555798267E+02  0.00000000000E+00 0.  1.
         21    1    1    2  505  506  0.76232372282E+02  0.53379938074E+02  0.25864358544E+03  0.27487687546E+03  0.00000000000E+00 0. -1.
         21    1    1    2  506  503 -0.36744994144E+02  0.30377927485E+01 -0.31167592461E+03  0.31384917518E+03  0.00000000000E+00 0. -1.
<scales pt_clust_3="30.57788" pt_clust_4="30.58963" pt_clust_5="119.48987" pt_clust_6="30.57788"></scales>
<clustering>
<clus scale="   30.578">  3  6 -1 -1</clus>
<clus scale="   30.590">  1  4  2 -1</clus>
<clus scale="  119.490">  1  5  2 -1</clus>
<clus scale="   30.590">  1  3  2 -1</clus>
</clustering>
</event>
<event>
 6    0  0.1463946E+003  0.1179166E+03  0.7546771E-02  0.1246574E+00
         21   -1    0    0  504  501  0.00000000000E+00  0.00000000000E+00  0.22925685295E+03  0.22925685295E+03  0.00000000000E+00 0. -1.
         21   -1    0    0  506  502 -0.00000000000E+00 -0.00000000000E+00 -0.20848013959E+03  0.20848013959E+03  0.00000000000E+00 0. -1.
         21    1    1    2  503  505 -0.46288356412E+02  0.48662802972E+02 -0.55028775508E+02  0.86826530890E+02  0.00000000000E+00 0. -1.
         21    1    1    2  504  502 -0.11038558881E+03 -0.84412221623E+02  0.32080802712E+02  0.14261689689E+03  0.00000000000E+00 0. -1.
         21    1    1    2  505  501  0.11064338731E+03  0.19481331018E+02  0.87750265316E+02  0.14255381607E+03  0.00000000000E+00 0. -1.
         21    1    1    2  506  503  0.46030557907E+02  0.16268087633E+02 -0.44025579162E+02  0.65739748683E+02  0.00000000000E+00 0. -1.
<scales pt_clust_3="61.50009" pt_clust_4="117.91663" pt_clust_5="14000.00000" pt_clust_6="48.82072"></scales>
<clustering>
<clus scale="   48.821">  2  6  1 -1</clus>
<clus scale="   61.500">  2  3  1 -1</clus>
<clus scale="  117.917">  2  4  1 -1</clus>
<clus scale="  117.917">  1  3  2 -1</clus>
</clustering>
</event>
<event>
 6    0  0.1463946E+003  0.1090547E+03  0.7546771E-02  0.1262331E+00
         21   -1    0    0  505  501  0.00000000000E+00  0.00000000000E+00  0.39537984531E+03  0.39537984531E+03  0.00000000000E+00 0.  1.
         21   -1    0    0  504  502 -0.00000000000E+00 -0.00000000000E+00 -0.15840359546E+04  0.15840359546E+04  0.00000000000E+00 0. -1.
         21    1    1    2  503  502  0.10394472130E+02 -0.47358289080E+02 -0.11583849600E+04  0.11593992272E+04  0.00000000000E+00 0. -1.
         21    1    1    2  504  501  0.67619078951E+01  0.44287254657E+02  0.57466321925E+02  0.72866058484E+02  0.00000000000E+00 0.  1.
         21    1    1    2  505  506 -0.99398699560E+02 -0.98671425817E+02  0.30369457252E+03  0.33443466495E+03  0.00000000000E+00 0.  1.
         21    1    1    2  506  503  0.82242319534E+02  0.10174246024E+03 -0.39143204380E+03  0.41271584929E+03  0.00000000000E+00 0. -1.
<scales pt_clust_3="48.42139" pt_clust_4="44.80049" pt_clust_5="14000.00000" pt_clust_6="109.05468"></scales>
<clustering>
<clus scale="   44.800">  1  4  2 -1</clus>
<clus scale="   48.421">  2  3  1 -1</clus>
<clus scale="  109.055">  2  6  1 -1</clus>
<clus scale="   44.800">  1  3  2 -1</clus>
</clustering>
</event>
<event>
 6    0  0.1463946E+003  0.7904902E+02  0.7546771E-02  0.1331772E+00
         21   -1    0    0  505  501  0.00000000000E+00  0.00000000000E+00  0.95007979966E+03  0.95007979966E+03  0.00000000000E+00 0. -1.
         21   -1    0    0  503  502 -0.00000000000E+00 -0.00000000000E+00 -0.46959976870E+02  0.46959976870E+02  0.00000000000E+00 0.  1.
         21    1    1    2  503  504  0.94306409563E+02  0.12096400609E+02  0.43273920732E+02  0.10446364922E+03  0.00000000000E+00 0.  1.
         21    1    1    2  504  501  0.28149168969E+02  0.17528483198E+02  0.47435282659E+03  0.47551049150E+03  0.00000000000E+00 0. -1.
         21    1    1    2  505  506 -0.96764877569E+02  0.87951042803E-01  0.35320129086E+03  0.36621660412E+03  0.00000000000E+00 0. -1.
         21    1    1    2  506  502 -0.25690700964E+02 -0.29712834850E+02  0.32291784613E+02  0.50849031695E+02  0.00000000000E+00 0.  1.
<scales pt_clust_3="79.04902" pt_clust_4="33.16057" pt_clust_5="14000.00000" pt_clust_6="36.51862"></scales>
<clustering>
<clus scale="   33.161">  1  4  2 -1</clus>
<clus scale="   36.519">  2  6  1 -1</clus>
<clus scale="   79.049">  2  3  1 -1</clus>
<clus scale="   33.161">  1  3  2 -1</clus>
</clustering>
</event>
<event>
 6    0  0.1463946E+003  0.9637815E+02  0.7546771E-02  0.1288102E+00
         21   -1    0    0  505  501  0.00000000000E+00  0.00000000000E+00  0.36330635547E+03  0.36330635547E+03  0.00000000000E+00 0. -1.
         21   -1    0    0  504  502 -0.00000000000E+00 -0.00000000000E+00 -0.55176382221E+03  0.55176382221E+03  0.00000000000E+00 0. -1.
         21    1    1    2  503  506 -0.88613202727E+02  0.14335121519E+02 -0.23236209185E+03  0.24909824796E+03  0.00000000000E+00 0. -1.
         21    1    1    2  504  501  0.65267601155E+02 -0.73654896423E+02 -0.61002869554E+02  0.11578537741E+03  0.00000000000E+00 0. -1.
         21    1    1    2  505  503  0.53081276330E+02  0.75785049292E+02  0.31964939145E+03  0.33277128640E+03  0.00000000000E+00 0. -1.
         21    1    1    2  506  502 -0.29735674759E+02 -0.16465274388E+02 -0.21474189679E+03  0.21741526591E+03  0.00000000000E+00 0. -1.
<scales pt_clust_3="14000.00000" pt_clust_4="96.37815" pt_clust_5="91.92910" pt_clust_6="33.98993"></scales>
<clustering>
<clus scale="   33.990">  2  6  1 -1</clus>
<clus scale="   91.929">  1  5  2 -1</clus>
<clus scale="   96.378">  1  4  2 -1</clus>
<clus scale="   91.929">  1  3  2 -1</clus>
</clustering>
</event>
<event>
 6    0  0.1463946E+003  0.1354162E+03  0.7546771E-02  0.1219633E+00
         21   -1    0    0  505  501  0.00000000000E+00  0.00000000000E+00  0.32664837421E+02  0.32664837421E+02  0.00000000000E+00 0. -1.
         21   -1    0    0  506  502 -0.00000000000E+00 -0.00000000000E+00 -0.19731614297E+04  0.19731614297E+04  0.00000000000E+00 0. -1.
         21    1    1    2  503  502 -0.60202164475E+02  0.14915824783E+02 -0.68941148692E+03  0.69219576763E+03  0.00000000000E+00 0.  1.
         21    1    1    2  504  501  0.34515592573E+02 -0.71339533312E+01 -0.89715208020E+01  0.36369047366E+02  0.00000000000E+00 0. -1.
         21    1    1    2  505  503  0.16030878145E+03 -0.57700608392E+01 -0.75709821260E+03  0.77390561604E+03  0.00000000000E+00 0. -1.
         21    1    1    2  506  504 -0.13462220954E+03 -0.20118106128E+01 -0.48501537199E+03  0.50335583611E+03  0.00000000000E+00 0. -1.
<scales pt_clust_3="59.43744" pt_clust_4="35.24513" pt_clust_5="135.41621" pt_clust_6="14000.00000"></scales>
<clustering>
<clus scale="   35.245">  1  4  2 -1</clus>
<clus scale="   59.437">  2  3  1 -1</clus>
<clus scale="  135.416">  2  5  1 -1</clus>
<clus scale="   35.245">  1  3  2 -1</clus>
</clustering>
</event>
<event>
 6    0  0.1463946E+003  0.1200755E+03  0.7546771E-02  0.1242973E+00
         21   -1    0    0  504  501  0.00000000000E+00  0.00000000000E+00  0.79186294251E+03  0.79186294251E+03  0.00000000000E+00 0.  1.
         21   -1    0    0  505  502 -0.00000000000E+00 -0.00000000000E+00 -0.11082973299E+04  0.11082973299E+04  0.00000000000E+00 0.  1.
         21    1    1    2  503  506  0.14533763192E+03 -0.30474965271E+02  0.35728669655E+02  0.15273600949E+03  0.00000000000E+00 0.  1.
         21    1    1    2  504  502 -0.69619181005E+01  0.39181552601E+02  0.30774958255E+03  0.31031188815E+03  0.00000000000E+00 0.  1.
         21    1    1    2  505  503 -0.40439383771E+02 -0.30443921901E+02 -0.10414129903E+04  0.10426424087E+04  0.00000000000E+00 0.  1.
         21    1    1    2  506  501 -0.97936330045E+02  0.21737334570E+02  0.38150035075E+03  0.39446996600E+03  0.00000000000E+00 0.  1.
<scales pt_clust_3="120.07550" pt_clust_4="39.79526" pt_clust_5="50.59504" pt_clust_6="14000.00000"></scales>
<clustering>
<clus scale="   39.795">  1  4  2 -1</clus>
<clus scale="   50.595">  2  5  1 -1</clus>
<clus scale="  120.076">  2  3  1 -1</clus>
<clus scale="   39.795">  1  3  2 -1</clus>
</clustering>
</event>
<event>
 6    0  0.1463946E+003  0.1142544E+03  0.7546771E-02  0.1252888E+00
         21   -1    0    0  503  501  0.00000000000E+00  0.00000000000E+00  0.38428146546E+03  0.38428146546E+03  0.00000000000E+00 0.  1.
         21   -1    0    0  506  502 -0.00000000000E+00 -0.00000000000E+00 -0.59326231270E+03  0.59326231270E+03  0.00000000000E+00 0.  1.
         21    1    1    2  503  505  0.36852402465E+02 -0.32538568685E+02  0.29002990945E+03  0.29416697026E+03  0.00000000000E+00 0.  1.
         21    1    1    2  504  501  0.69482515816E+02 -0.31559078363E+02  0.59371336005E+02  0.96688939234E+02  0.00000000000E+00 0. -1.
         21    1    1    2  505  502 -0.94411631599E+02  0.20466557045E+02 -0.51511362118E+03  0.52409395996E+03  0.00000000000E+00 0.  1.
         21    1    1    2  506  504 -0.11923286682E+02  0.43631090002E+02 -0.43268471513E+02  0.62593908706E+02  0.00000000000E+00 0. -1.
<scales pt_clust_3="49.01687" pt_clust_4="14000.00000" pt_clust_5="114.25439" pt_clust_6="45.23093"></scales>
<clustering>
<clus scale="   45.231">  2  6  1 -1</clus>
<clus scale="   49.017">  1  3  2 -1</clus>
<clus scale="  114.254">  2  5  1 -1</clus>
<clus scale="   49.017">  1  3  2 -1</clus>
</clustering>
</event>
<event>
 6    0  0.1463946E+003  0.1180835E+03  0.7546771E-02  0.1246293E+00
         21   -1    0    0  505  501  0.00000000000E+00  0.00000000000E+00  0.50984667824E+02  0.50984667824E+02  0.00000000000E+00 0. -1.
         21   -1    0    0  506  502 -0.00000000000E+00 -0.00000000000E+00 -0.87552036944E+03  0.87552036944E+03  0.00000000000E+00 0.  1.
         21    1    1    2  503  501  0.48186883842E+02 -0.76733576363E+01  0.59158264597E+01  0.49151329530E+02  0.00000000000E+00 0. -1.
         21    1    1    2  504  503  0.84840089428E+02 -0.40287213112E+02 -0.16323811212E+03  0.18832838756E+03  0.00000000000E+00 0. -1.
         21    1    1    2  505  502 -0.11049656195E+03  0.77251642962E+02 -0.53744152535E+03  0.55409448627E+03  0.00000000000E+00 0.  1.
         21    1    1    2  506  504 -0.22530411317E+02 -0.29291072214E+02 -0.12977189061E+03  0.13493083390E+03  0.00000000000E+00 0. -1.
<scales pt_clust_3="48.29002" pt_clust_4="14000.00000" pt_clust_5="118.08348" pt_clust_6="36.95384"></scales>
<clustering>
<clus scale="   36.954">  2  6  1 -1</clus>
<clus scale="   48.290">  1  3  2 -1</clus>
<clus scale="  118.083">  2  5  1 -1</clus>
<clus scale="   48.290">  1  3  2 -1</clus>
</clustering>
</event>
<event>
 6    0  0.1463946E+003  0.1023595E+03  0.7546771E-02  0.1275411E+00
         21   -1    0    0  505  501  0.00000000000E+00  0.00000000000E+00  0.97625215862E+03  0.97625215862E+03  0.00000000000E+00 0.  1.
         21   -1    0    0  506  502 -0.00000000000E+00 -0.00000000000E+00 -0.16536854738E+03  0.16536854738E+03  0.00000000000E+00 0.  1.
         21    1    1    2  503  501 -0.37537535404E+02 -0.12888281854E+03  0.81831291692E+02  0.15721389181E+03  0.00000000000E+00 0.  1.
         21    1    1    2  504  502 -0.15873887621E+02  0.40738190368E+02 -0.22703761831E+02  0.49265010545E+02  0.00000000000E+00 0.  1.
         21    1    1    2  505  504 -0.52704716754E+01  0.34659835784E+02  0.82581870149E+03  0.82656252626E+03  0.00000000000E+00 0.  1.
         21    1    1    2  506  503  0.58681894700E+02  0.53484792384E+02 -0.74062620109E+02  0.10857927739E+03  0.00000000000E+00 0.  1.
<scales pt_clust_3="14000.00000" pt_clust_4="46.75403" pt_clust_5="35.05827" pt_clust_6="102.35948"></scales>
<clustering>
<clus scale="   35.058">  1  5  2 -1</clus>
<clus scale="   46.754">  2  4  1 -1</clus>
<clus scale="  102.359">  2  6  1 -1</clus>
<clus scale="   35.058">  1  3  2 -1</clus>
</clustering>
</event>
<event>
 6    0  0.1463946E+003  0.1010837E+03  0.7546771E-02  0.1278034E+00
         21   -1    0    0  504  501  0.00000000000E+00  0.00000000000E+00  0.64136808370E+02  0.64136808370E+02  0.00000000000E+00 0. -1.
         21   -1    0    0  506  502 -0.00000000000E+00 -0.00000000000E+00 -0.25115226193E+04  0.25115226193E+04  0.00000000000E+00 0. -1.
         21    1    1    2  503  505 -0.68260071372E+02 -0.44136501561E+01 -0.13492554918E+03  0.15127399470E+03  0.00000000000E+00 0.  1.
         21    1    1    2  504  502  0.24433908631E+02  0.19263678869E+02 -0.25095450218E+03  0.25287599210E+03  0.00000000000E+00 0.  1.
         21    1    1    2  505  501  0.11068635106E+03 -0.39791063216E+02 -0.92187188863E+01  0.11798212492E+03  0.00000000000E+00 0. -1.
         21    1    1    2  506  503 -0.66860188323E+02  0.24941034503E+02 -0.20522870407E+04  0.20535273160E+04  0.00000000000E+00 0. -1.
<scales pt_clust_3="14000.00000" pt_clust_4="31.11439" pt_clust_5="101.08366" pt_clust_6="61.61177"></scales>
<clustering>
<clus scale="   31.114">  2  4  1 -1</clus>
<clus scale="   61.612">  2  6  1 -1</clus>
<clus scale="  101.084">  1  5  2 -1</clus>
<clus scale="  101.084">  1  3  2 -1</clus>
</clustering>
</event>
<event>
 6    0  0.1463946E+003  0.1078591E+03  0.7546771E-02  0.1264587E+00
         21   -1    0    0  505  501  0.00000000000E+00  0.00000000000E+00  0.23127695696E+04  0.23127695696E+04  0.00000000000E+00 0. -1.
         21   -1    0    0  504  502 -0.00000000000E+00 -0.00000000000E+00 -0.31497855815E+02  0.31497855815E+02  0.00000000000E+00 0.  1.
         21    1    1    2  503  502 -0.18274720807E+02 -0.65409493888E+02  0.42106260340E+03  0.42650449387E+03  0.00000000000E+00 0. -1.
         21    1    1    2  504  506  0.14924361957E+02  0.51144233725E+02  0.19676729795E+02  0.56794743758E+02  0.00000000000E+00 0.  1.
         21    1    1    2  505  503 -0.32112814425E+02 -0.90535192316E+02  0.27065082964E+03  0.28719283675E+03  0.00000000000E+00 0.  1.
         21    1    1    2  506  501  0.35463173275E+02  0.10480045248E+03  0.15698815509E+04  0.15737753510E+04  0.00000000000E+00 0. -1.
<scales pt_clust_3="56.71147" pt_clust_4="53.27729" pt_clust_5="14000.00000" pt_clust_6="107.85907"></scales>
<clustering>
<clus scale="   53.277">  2  4  1 -1</clus>
<clus scale="   56.711">  2  3  1 -1</clus>
<clus scale="  107.859">  1  6  2 -1</clus>
<clus scale="  107.859">  1  3  2 -1</clus>
</clustering>
</event>
<event>
 6    0  0.1463946E+003  0.1059678E+03  0.7546771E-02  0.1268224E+00
         21   -1    0    0  505  501  0.00000000000E+00  0.00000000000E+00  0.10753179713E+03  0.10753179713E+03  0.00000000000E+00 0. -1.
         21   -1    0    0  503  502 -0.00000000000E+00 -0.00000000000E+00 -0.50243869524E+03  0.50243869524E+03  0.00000000000E+00 0. -1.
         21    1    1    2  503  501  0.54502591804E+02  0.10081874112E+03 -0.30869680571E+03  0.32928508762E+03  0.00000000000E+00 0. -1.
         21    1    1    2  504  506  0.89981325267E+01 -0.75331556635E+02  0.12477127926E+02  0.76886205104E+02  0.00000000000E+00 0. -1.
         21    1    1    2  505  504  0.51836288745E+02 -0.62942209627E+01 -0.22982417682E+01  0.52267580426E+02  0.00000000000E+00 0. -1.
         21    1    1    2  506  502 -0.11533701308E+03 -0.19192963518E+02 -0.96388978566E+02  0.15153161922E+03  0.00000000000E+00 0. -1.
<scales pt_clust_3="14000.00000" pt_clust_4="87.02262" pt_clust_5="52.21703" pt_clust_6="105.96783"></scales>
<clustering>
<clus scale="   52.217">  1  5  2 -1</clus>
<clus scale="   87.023">  1  4  2 -1</clus>
<clus scale="  105.968">  1  6  2 -1</clus>
<clus scale="   52.217">  1  3  2 -1</clus>
</clustering>
</event>
<event>
 6    0  0.1463946E+003  0.1785170E+03  0.7546771E-02  0.1169246E+00
         21   -1    0    0  504  501  0.00000000000E+00  0.00000000000E+00  0.56677541738E+03  0.56677541738E+03  0.00000000000E+00 0. -1.
         21   -1    0    0  505  502 -0.00000000000E+00 -0.00000000000E+00 -0.59207184061E+03  0.59207184061E+03  0.00000000000E+00 0. -1.
         21    1    1    2  503  501 -0.36395369644E+02  0.29731376068E+01  0.61203829023E+02  0.71269707210E+02  0.00000000000E+00 0. -1.
         21    1    1    2  504  506  0.10146268202E+02  0.17394862523E+03  0.46364879913E+03  0.49530927703E+03  0.00000000000E+00 0. -1.
         21    1    1    2  505  503  0.58500920804E+02 -0.17225034712E+03 -0.41279389470E+03  0.45110014334E+03  0.00000000000E+00 0. -1.
         21    1    1    2  506  502 -0.32251819362E+02 -0.46714157252E+01 -0.13735515668E+03  0.14116813041E+03  0.00000000000E+00 0. -1.
<scales pt_clust_3="36.86975" pt_clust_4="14000.00000" pt_clust_5="178.51699" pt_clust_6="32.58837"></scales>
<clustering>
<clus scale="   32.588">  2  6  1 -1</clus>
<clus scale="   36.870">  1  3  2 -1</clus>
<clus scale="  178.517">  2  5  1 -1</clus>
<clus scale="   36.870">  1  3  2 -1</clus>
</clustering>
</event>
<event>
 6    0  0.1463946E+003  0.9520840E+02  0.7546771E-02  0.1290707E+00
         21   -1    0    0  502  501  0.00000000000E+00  0.00000000000E+00  0.95502205696E+02  0.95502205696E+02  0.00000000000E+00 0. -1.
         21   -1    0    0  506  502 -0.00000000000E+00 -0.00000000000E+00 -0.15301686797E+04  0.15301686797E+04  0.00000000000E+00 0.  1.
         21    1    1    2  503  501 -0.30030035494E+02 -0.93564617463E+02  0.57000119457E+02  0.11360085515E+03  0.00000000000E+00 0. -1.
         21    1    1    2  504  505  0.43462037697E+02 -0.20053560237E+02 -0.55141982901E+03  0.55349338011E+03  0.00000000000E+00 0.  1.
         21    1    1    2  505  503 -0.20847544669E+02  0.82189077417E+02 -0.19508304163E+03  0.21271355786E+03  0.00000000000E+00 0.  1.
         21    1    1    2  506  504  0.74155424664E+01  0.31429100283E+02 -0.74516372283E+03  0.74586309229E+03  0.00000000000E+00 0.  1.
<scales pt_clust_3="95.20840" pt_clust_4="48.72734" pt_clust_5="14000.00000" pt_clust_6="32.29208"></scales>
<clustering>
<clus scale="   32.292">  2  6  1 -1</clus>
<clus scale="   48.727">  2  4  1 -1</clus>
<clus scale="   95.208">  1  3  2 -1</clus>
<clus scale="   95.208">  1  3  2 -1</clus>
</clustering>
</event>
<event>
 6    0  0.1463946E+003  0.8727285E+02  0.7546771E-02  0.1309594E+00
         21   -1    0    0  504  501  0.00000000000E+00  0.00000000000E+00  0.40437577824E+03  0.40437577824E+03  0.00000000000E+00 0. -1.
         21   -1    0    0  503  502 -0.00000000000E+00 -0.00000000000E+00 -0.12678307382E+03  0.12678307382E+03  0.00000000000E+00 0.  1.
         21    1    1    2  503  505  0.14842520492E+02 -0.93712124760E+02 -0.81877913970E+02  0.12532460069E+03  0.00000000000E+00 0.  1.
         21    1    1    2  504  502 -0.18310944166E+02 -0.26284122316E+02  0.74728963867E+02  0.81305373763E+02  0.00000000000E+00 0.  1.
         21    1    1    2  505  506 -0.34254658481E+02  0.54972351109E+02  0.62862708147E+02  0.90261071840E+02  0.00000000000E+00 0. -1.
         21    1    1    2  506  501  0.37723082155E+02  0.65023895968E+02  0.22187894638E+03  0.23426780577E+03  0.00000000000E+00 0. -1.
<scales pt_clust_3="14000.00000" pt_clust_4="32.03351" pt_clust_5="87.27285" pt_clust_6="52.89674"></scales>
<clustering>
<clus scale="   32.034">  1  4  2 -1</clus>
<clus scale="   52.897">  1  6  2 -1</clus>
<clus scale="   87.273">  1  5  2 -1</clus>
<clus scale="   32.034">  1  3  2 -1</clus>
</clustering>
</event>
<event>
 6    0  0.1463946E+003  0.9541195E+02  0.7546771E-02  0.1290251E+00
         21   -1    0    0  505  501  0.00000000000E+00  0.00000000000E+00  0.46083369931E+03  0.46083369931E+03  0.00000000000E+00 0.  1.
         21   -1    0    0  506  502 -0.00000000000E+00 -0.00000000000E+00 -0.96704887337E+03  0.96704887337E+03  0.00000000000E+00 0. -1.
         21    1    1    2  503  502 -0.16844818894E+02  0.36880772981E+02 -0.83134564104E+03  0.83233377573E+03  0.00000000000E+00 0. -1.
         21    1    1    2  504  501  0.65328147679E+02  0.99141224324E+02  0.21257620760E+03  0.24348592008E+03  0.00000000000E+00 0.  1.
         21    1    1    2  505  503 -0.49810625518E+01 -0.31008731222E+02  0.20386010229E+03  0.20626510539E+03  0.00000000000E+00 0.  1.
         21    1    1    2  506  504 -0.43502266233E+02 -0.10501326608E+03 -0.91305842909E+02  0.14579777149E+03  0.00000000000E+00 0. -1.
<scales pt_clust_3="40.49505" pt_clust_4="95.41195" pt_clust_5="31.40625" pt_clust_6="14000.00000"></scales>
<clustering>
<clus scale="   31.406">  1  5  2 -1</clus>
<clus scale="   40.495">  2  3  1 -1</clus>
<clus scale="   95.412">  1  4  2 -1</clus>
<clus scale="   31.406">  1  3  2 -1</clus>
</clustering>
</event>
<event>
 6    0  0.1463946E+003  0.2064998E+03  0.7546771E-02  0.1144368E+00
         21   -1    0    0  505  501  0.00000000000E+00  0.00000000000E+00  0.36371201830E+04  0.36371201830E+04  0.00000000000E+00 0. -1.
         21   -1    0    0  501  502 -0.00000000000E+00 -0.00000000000E+00 -0.73848571199E+02  0.73848571199E+02  0.00000000000E+00 0. -1.
         21    1    1    2  503  506  0.76582705194E+02  0.89545998186E+02  0.60987654330E+03  0.62115440479E+03  0.00000000000E+00 0. -1.
         21    1    1    2  504  502 -0.82867893891E+02 -0.10143360341E+03  0.10922789058E+03  0.17054792822E+03  0.00000000000E+00 0.  1.
         21    1    1    2  505  503  0.87611953342E+02  0.44427778026E+02  0.28285921782E+04  0.28302974035E+04  0.00000000000E+00 0. -1.
         21    1    1    2  506  504 -0.81326764644E+02 -0.32540172805E+02  0.15574999760E+02  0.88969017704E+02  0.00000000000E+00 0. -1.
<scales pt_clust_3="189.15009" pt_clust_4="67.75462" pt_clust_5="98.23279" pt_clust_6="67.75462"></scales>
<clustering>
<clus scale="   67.755">  4  6 -1 -1</clus>
<clus scale="   98.233">  1  5  2 -1</clus>
<clus scale="  189.150">  1  3  2 -1</clus>
<clus scale="   98.233">  1  3  2 -1</clus>
</clustering>
</event>
<event>
 6    0  0.1463946E+003  0.1067877E+03  0.7546771E-02  0.1266637E+00
         21   -1    0    0  506  501  0.00000000000E+00  0.00000000000E+00  0.81628512913E+02  0.81628512913E+02  0.00000000000E+00 0. -1.
         21   -1    0    0  505  502 -0.00000000000E+00 -0.00000000000E+00 -0.30146092963E+03  0.30146092963E+03  0.00000000000E+00 0.  1.
         21    1    1    2  503  501  0.97063873127E+01 -0.38168608775E+02 -0.30579360593E+02  0.49861347202E+02  0.00000000000E+00 0. -1.
         21    1    1    2  504  503  0.78210612125E+02 -0.36933795831E+02 -0.12471027556E+03  0.15176843530E+03  0.00000000000E+00 0.  1.
         21    1    1    2  505  504 -0.15402765240E+00  0.64751043706E+02 -0.66836933958E+02  0.93058568259E+02  0.00000000000E+00 0. -1.
         21    1    1    2  506  502 -0.87762971785E+02  0.10351360901E+02  0.22941533892E+01  0.88401091786E+02  0.00000000000E+00 0. -1.
<scales pt_clust_3="37.99195" pt_clust_4="37.99195" pt_clust_5="64.75123" pt_clust_6="90.73960"></scales>
<clustering>
<clus scale="   37.992">  3  4 -1 -1</clus>
<clus scale="   64.751">  2  5  1 -1</clus>
<clus scale="   90.740">  1  6  2 -1</clus>
<clus scale="   90.740">  1  3  2 -1</clus>
</clustering>
</event>
<event>
 6    0  0.1463946E+003  0.9279789E+02  0.7546771E-02  0.1296214E+00
         21   -1    0    0  504  501  0.00000000000E+00  0.00000000000E+00  0.24402197460E+03  0.24402197460E+03  0.00000000000E+00 0.  1.
         21   -1    0    0  506  502 -0.00000000000E+00 -0.00000000000E+00 -0.39210238534E+03  0.39210238534E+03  0.00000000000E+00 0.  1.
         21    1    1    2  503  505  0.16199363688E+02 -0.65671029210E+02  0.17266772206E+01  0.67661546507E+02  0.00000000000E+00 0.  1.
         21    1    1    2  504  502 -0.21946446504E+02  0.90690728062E+02 -0.13805429367E+03  0.16662965724E+03  0.00000000000E+00 0.  1.
         21    1    1    2  505  501 -0.92132054529E+01 -0.55949384403E+02  0.18943161276E+03  0.19773606824E+03  0.00000000000E+00 0.  1.
         21    1    1    2  506  503  0.14960288269E+02  0.30929685551E+02 -0.20118440704E+03  0.20409708795E+03  0.00000000000E+00 0.  1.
<scales pt_clust_3="14000.00000" pt_clust_4="92.79789" pt_clust_5="55.98117" pt_clust_6="34.35776"></scales>
<clustering>
<clus scale="   34.358">  2  6  1 -1</clus>
<clus scale="   55.981">  1  5  2 -1</clus>
<clus scale="   92.798">  2  4  1 -1</clus>
<clus scale="   55.981">  1  3  2 -1</clus>
</clustering>
</event>
<event>
 6    0  0.1463946E+003  0.1322412E+03  0.7546771E-02  0.1224168E+00
         21   -1    0    0  504  501  0.00000000000E+00  0.00000000000E+00  0.30326938692E+03  0.30326938692E+03  0.00000000000E+00 0. -1.
         21   -1    0    0  506  502 -0.00000000000E+00 -0.00000000000E+00 -0.23073482816E+03  0.23073482816E+03  0.00000000000E+00 0. -1.
         21    1    1    2  503  502 -0.23600730947E+02  0.20414052192E+02 -0.12558162691E+02  0.33636817304E+02  0.00000000000E+00 0. -1.
         21    1    1    2  504  505 -0.41337253224E+02 -0.38254024366E+02  0.14085602002E+03  0.15169890329E+03  0.00000000000E+00 0. -1.
         21    1    1    2  505  503  0.19006107345E-01 -0.74172028681E+02  0.11932212756E+03  0.14049647798E+03  0.00000000000E+00 0. -1.
         21    1    1    2  506  501  0.64918978064E+02  0.92012000855E+02 -0.17508542613E+03  0.20817201651E+03  0.00000000000E+00 0. -1.
<scales pt_clust_3="31.20462" pt_clust_4="50.74747" pt_clust_5="50.74747" pt_clust_6="118.94987"></scales>
<clustering>
<clus scale="   31.205">  2  3  1 -1</clus>
<clus scale="   50.747">  4  5 -1 -1</clus>
<clus scale="  118.950">  2  6  1 -1</clus>
<clus scale="  132.241">  1  3  2 -1</clus>
</clustering>
</event>
<event>
 6    0  0.1463946E+003  0.1706257E+03  0.7546771E-02  0.1177197E+00
         21   -1    0    0  504  501  0.00000000000E+00  0.00000000000E+00  0.64020830758E+03  0.64020830758E+03  0.00000000000E+00 0.  1.
         21   -1    0    0  505  502 -0.00000000000E+00 -0.00000000000E+00 -0.12239817644E+03  0.12239817644E+03  0.00000000000E+00 0.  1.
         21    1    1    2  503  502 -0.13842244523E+03 -0.34062216111E+02  0.18840921195E+03  0.23626053216E+03  0.00000000000E+00 0.  1.
         21    1    1    2  504  503 -0.28682817235E+02  0.13697765414E+02  0.17619054420E+03  0.17903474704E+03  0.00000000000E+00 0.  1.
         21    1    1    2  505  506 -0.27709286305E+02 -0.55743530028E+02 -0.30146157534E+02  0.69166006835E+02  0.00000000000E+00 0.  1.
         21    1    1    2  506  501  0.19481454877E+03  0.76107980726E+02  0.18335653252E+03  0.27814519798E+03  0.00000000000E+00 0.  1.
<scales pt_clust_3="170.62574" pt_clust_4="31.78573" pt_clust_5="62.28624" pt_clust_6="14000.00000"></scales>
<clustering>
<clus scale="   31.786">  1  4  2 -1</clus>
<clus scale="   62.286">  2  5  1 -1</clus>
<clus scale="  170.626">  1  3  2 -1</clus>
<clus scale="   31.786">  1  3  2 -1</clus>
</clustering>
</event>
<event>
 6    0  0.1463946E+003  0.2183874E+03  0.7546771E-02  0.1135091E+00
         21   -1    0    0  503  501  0.00000000000E+00  0.00000000000E+00  0.11703823693E+03  0.11703823693E+03  0.00000000000E+00 0.  1.
         21   -1    0    0  506  502 -0.00000000000E+00 -0.00000000000E+00 -0.24628309434E+04  0.24628309434E+04  0.00000000000E+00 0. -1.
         21    1    1    2  503  505 -0.23275866247E+02  0.42270305704E+02 -0.33455059645E+02  0.58717848306E+02  0.00000000000E+00 0.  1.
         21    1    1    2  504  502 -0.29081973440E+02 -0.46050966006E+02 -0.16505486133E+04  0.16514469951E+04  0.00000000000E+00 0. -1.
         21    1    1    2  505  504 -0.16008186808E+03 -0.85169758869E+02 -0.60625735190E+03  0.63279385984E+03  0.00000000000E+00 0. -1.
         21    1    1    2  506  501  0.21243970776E+03  0.88950419172E+02 -0.55531681632E+02  0.23691047712E+03  0.00000000000E+00 0.  1.
<scales pt_clust_3="48.25500" pt_clust_4="54.36516" pt_clust_5="218.38744" pt_clust_6="14000.00000"></scales>
<clustering>
<clus scale="   48.255">  1  3  2 -1</clus>
<clus scale="   54.365">  2  4  1 -1</clus>
<clus scale="  218.387">  2  5  1 -1</clus>
<clus scale="   48.255">  1  3  2 -1</clus>
</clustering>
</event>
<event>
 6    0  0.1463946E+003  0.1007797E+03  0.7546771E-02  0.1278665E+00
         21   -1    0    0  504  501  0.00000000000E+00  0.00000000000E+00  0.28273210475E+04  0.28273210475E+04  0.00000000000E+00 0.  1.
         21   -1    0    0  503  502 -0.00000000000E+00 -0.00000000000E+00 -0.26032810308E+03  0.26032810308E+03  0.00000000000E+00 0. -1.
         21    1    1    2  503  505  0.33167263716E+02 -0.93452897057E+01 -0.24527654411E+03  0.24768525372E+03  0.00000000000E+00 0. -1.
         21    1    1    2  504  502  0.96424013867E+02  0.40185649305E+02  0.33187978847E+03  0.34793199171E+03  0.00000000000E+00 0. -1.
         21    1    1    2  505  506 -0.29069877652E+02 -0.22383302561E+02  0.65811058172E+02  0.75346966746E+02  0.00000000000E+00 0.  1.
         21    1    1    2  506  501 -0.10052139993E+03 -0.84570570381E+01  0.24145786419E+04  0.24166849384E+04  0.00000000000E+00 0.  1.
<scales pt_clust_3="34.45870" pt_clust_4="100.77968" pt_clust_5="31.09539" pt_clust_6="14000.00000"></scales>
<clustering>
<clus scale="   34.459">  2  3  1 -1</clus>
<clus scale="   31.095">  2  5  1 -1</clus>
<clus scale="  100.780">  2  4  1 -1</clus>
<clus scale="  100.780">  1  3  2 -1</clus>
</clustering>
</event>
<event>
 6    0  0.1463946E+003  0.1681505E+03  0.7546771E-02  0.1179790E+00
         21   -1    0    0  502  501  0.00000000000E+00  0.00000000000E+00  0.34940910726E+03  0.34940910726E+03  0.00000000000E+00 0. -1.
         21   -1    0    0  505  502 -0.00000000000E+00 -0.00000000000E+00 -0.21439284921E+04  0.21439284921E+04  0.00000000000E+00 0. -1.
         21    1    1    2  503  504 -0.12205885960E+03 -0.17889192007E+02  0.75180542284E+02  0.14446626712E+03  0.00000000000E+00 0. -1.
         21    1    1    2  504  501 -0.50190544162E+02 -0.15882816369E+02  0.19407778893E+03  0.20109088178E+03  0.00000000000E+00 0. -1.
         21    1    1    2  505  506 -0.59755796985E+02  0.11841272471E+03 -0.17166490479E+04  0.17217654551E+04  0.00000000000E+00 0. -1.
         21    1    1    2  506  503  0.23200520074E+03 -0.84640716331E+02 -0.34712866811E+03  0.42601499534E+03  0.00000000000E+00 0. -1.
<scales pt_clust_3="168.15051" pt_clust_4="52.64366" pt_clust_5="132.78105" pt_clust_6="14000.00000"></scales>
<clustering>
<clus scale="   52.644">  1  4  2 -1</clus>
<clus scale="  132.781">  2  5  1 -1</clus>
<clus scale="  168.151">  1  3  2 -1</clus>
<clus scale="   52.644">  1  3  2 -1</clus>
</clustering>
</event>
<event>
 6    0  0.1463946E+003  0.8068666E+02  0.7546771E-02  0.1327114E+00
         21   -1    0    0  506  501  0.00000000000E+00  0.00000000000E+00  0.81137633964E+03  0.81137633964E+03  0.00000000000E+00 0. -1.
         21   -1    0    0  503  502 -0.00000000000E+00 -0.00000000000E+00 -0.28440549619E+03  0.28440549619E+03  0.00000000000E+00 0. -1.
         21    1    1    2  503  505 -0.45035074182E+02 -0.49890200351E+02 -0.20483460000E+03  0.21557922756E+03  0.00000000000E+00 0. -1.
         21    1    1    2  504  502 -0.35695035789E+02  0.68814875691E+02 -0.40533227516E+02  0.87478941633E+02  0.00000000000E+00 0. -1.
         21    1    1    2  505  501  0.85634084654E+02 -0.78258141575E+02  0.57562061035E+03  0.58719385235E+03  0.00000000000E+00 0. -1.
         21    1    1    2  506  504 -0.49039746827E+01  0.59333466234E+02  0.19671806063E+03  0.20552981429E+03  0.00000000000E+00 0.  1.
<scales pt_clust_3="66.85233" pt_clust_4="14000.00000" pt_clust_5="80.68666" pt_clust_6="59.53578"></scales>
<clustering>
<clus scale="   59.536">  1  6  2 -1</clus>
<clus scale="   66.852">  2  3  1 -1</clus>
<clus scale="   80.687">  1  5  2 -1</clus>
<clus scale="   59.536">  1  3  2 -1</clus>
</clustering>
</event>
<event>
 6    0  0.1463946E+003  0.8470077E+02  0.7546771E-02  0.1316217E+00
         21   -1    0    0  504  501  0.00000000000E+00  0.00000000000E+00  0.18565697862E+04  0.18565697862E+04  0.00000000000E+00 0.  1.
         21   -1    0    0  503  502 -0.00000000000E+00 -0.00000000000E+00 -0.86247330784E+02  0.86247330784E+02  0.00000000000E+00 0. -1.
         21    1    1    2  503  501  0.37052829935E+02  0.50933818692E+02  0.77376368989E+03  0.77632300873E+03  0.00000000000E+00 0.  1.
         21    1    1    2  504  505 -0.10697120826E+03 -0.11067166085E+03  0.97011836348E+03  0.98225286717E+03  0.00000000000E+00 0.  1.
         21    1    1    2  505  506  0.55643413886E+02  0.66558634966E+01  0.86346594157E+02  0.10293796360E+03  0.00000000000E+00 0.  1.
         21    1    1    2  506  502  0.14274964440E+02  0.53081978664E+02 -0.59906192134E+02  0.81303277453E+02  0.00000000000E+00 0. -1.
<scales pt_clust_3="67.20326" pt_clust_4="14000.00000" pt_clust_5="84.70077" pt_clust_6="54.96791"></scales>
<clustering>
<clus scale="   54.968">  2  6  1 -1</clus>
<clus scale="   67.203">  1  3  2 -1</clus>
<clus scale="   84.701">  2  5  1 -1</clus>
<clus scale="   67.203">  1  3  2 -1</clus>
</clustering>
</event>
<event>
 6    0  0.1463946E+003  0.1367334E+03  0.7546771E-02  0.1217793E+00
         21   -1    0    0  503  501  0.00000000000E+00  0.00000000000E+00  0.15879910986E+04  0.15879910986E+04  0.00000000000E+00 0. -1.
         21   -1    0    0  504  502 -0.00000000000E+00 -0.00000000000E+00 -0.14450783520E+03  0.14450783520E+03  0.00000000000E+00 0.  1.
         21    1    1    2  503  505  0.40468692477E+02  0.93800712945E+02  0.11459486370E+04  0.11504931845E+04  0.00000000000E+00 0. -1.
         21    1    1    2  504  506 -0.20088552042E+02 -0.33601290835E+02  0.15258171828E+02  0.42016764231E+02  0.00000000000E+00 0.  1.
         21    1    1    2  505  502  0.61026906551E+02 -0.10221801332E+03 -0.94649392099E+02  0.15208981884E+03  0.00000000000E+00 0.  1.
         21    1    1    2  506  501 -0.81407046986E+02  0.42018591207E+02  0.37692584663E+03  0.38789916623E+03  0.00000000000E+00 0.  1.
<scales pt_clust_3="14000.00000" pt_clust_4="39.14839" pt_clust_5="136.73341" pt_clust_6="91.72815"></scales>
<clustering>
<clus scale="   39.148">  2  4  1 -1</clus>
<clus scale="   91.728">  1  6  2 -1</clus>
<clus scale="  136.733">  2  5  1 -1</clus>
<clus scale="   91.728">  1  3  2 -1</clus>
</clustering>
</event>
<event>
 6    0  0.2442010E+003  0.7945402E+02  0.7546771E-02  0.1330608E+00
         21   -1    0    0  502  501  0.00000000000E+00  0.00000000000E+00  0.59513855093E+03  0.59513855093E+03  0.00000000000E+00 0. -1.
         21   -1    0    0  505  502 -0.00000000000E+00 -0.00000000000E+00 -0.98003030888E+03  0.98003030888E+03  0.00000000000E+00 0. -1.
         21    1    1    2  503  504  0.52906124632E+02 -0.47764779979E+02 -0.27842997464E+02  0.76522968694E+02  0.00000000000E+00 0. -1.
         21    1    1    2  504  506 -0.35691177403E+02  0.68159677229E+02  0.17782693278E+03  0.19375763151E+03  0.00000000000E+00 0. -1.
         21    1    1    2  505  503  0.39462376161E+02  0.39141956425E+02 -0.91464113528E+03  0.91632842269E+03  0.00000000000E+00 0. -1.
         21    1    1    2  506  501 -0.56677323390E+02 -0.59536853675E+02  0.37976544200E+03  0.38855983693E+03  0.00000000000E+00 0. -1.
<scales pt_clust_3="79.45402" pt_clust_4="14000.00000" pt_clust_5="55.58212" pt_clust_6="78.41578"></scales>
<clustering>
<clus scale="   55.582">  2  5  1 -1</clus>
<clus scale="   78.416">  1  6  2 -1</clus>
<clus scale="   79.454">  2  3  1 -1</clus>
<clus scale="   78.416">  1  3  2 -1</clus>
</clustering>
</event>
<event>
 6    0  0.1463946E+003  0.1023423E+03  0.7546771E-02  0.1275446E+00
         21   -1    0    0  506  501  0.00000000000E+00  0.00000000000E+00  0.24202630003E+03  0.24202630003E+03  0.00000000000E+00 0.  1.
         21   -1    0    0  505  502 -0.00000000000E+00 -0.00000000000E+00 -0.62095278696E+03  0.62095278696E+03  0.00000000000E+00 0. -1.
         21    1    1    2  503  501  0.37558905591E+02 -0.21111606255E+01 -0.11570408863E+02  0.39357372240E+02  0.00000000000E+00 0. -1.
         21    1    1    2  504  502  0.40483143138E+01  0.12117195400E+03 -0.44685741811E+03  0.46301250891E+03  0.00000000000E+00 0. -1.
         21    1    1    2  505  503 -0.16698937885E+02 -0.75799271801E+02 -0.12662714621E+03  0.14852211381E+03  0.00000000000E+00 0.  1.
         21    1    1    2  506  504 -0.24908282020E+02 -0.43261521573E+02  0.20612848626E+03  0.21208709204E+03  0.00000000000E+00 0.  1.
<scales pt_clust_3="37.61819" pt_clust_4="14000.00000" pt_clust_5="102.34226" pt_clust_6="46.18804"></scales>
<clustering>
<clus scale="   37.618">  1  3  2 -1</clus>
<clus scale="   46.188">  1  6  2 -1</clus>
<clus scale="  102.342">  1  5  2 -1</clus>
<clus scale="   37.618">  1  3  2 -1</clus>
</clustering>
</event>
<event>
 6    0  0.1572897E+003  0.1101204E+03  0.7546771E-02  0.1260347E+00
         21   -1    0    0  504  501  0.00000000000E+00  0.00000000000E+00  0.14176931090E+04  0.14176931090E+04  0.00000000000E+00 0.  1.
         21   -1    0    0  506  502 -0.00000000000E+00 -0.00000000000E+00 -0.54664315629E+03  0.54664315629E+03  0.00000000000E+00 0. -1.
         21    1    1    2  503  502 -0.39949307242E+02  0.24813377894E+02  0.83583181979E+02  0.95905157220E+02  0.00000000000E+00 0.  1.
         21    1    1    2  504  503 -0.20732010906E+02  0.76872647043E+02  0.21189109551E+03  0.22635603923E+03  0.00000000000E+00 0.  1.
         21    1    1    2  505  501 -0.14707058568E+02 -0.39402514037E+02  0.11039383778E+04  0.11047392442E+04  0.00000000000E+00 0.  1.
         21    1    1    2  506  505  0.75388376716E+02 -0.62283510900E+02 -0.52836270253E+03  0.53733582469E+03  0.00000000000E+00 0. -1.
<scales pt_clust_3="38.61868" pt_clust_4="38.61868" pt_clust_5="42.05777" pt_clust_6="97.98741"></scales>
<clustering>
<clus scale="   38.619">  3  4 -1 -1</clus>
<clus scale="   42.058">  1  5  2 -1</clus>
<clus scale="   97.987">  2  6  1 -1</clus>
<clus scale="   42.058">  1  3  2 -1</clus>
</clustering>
</event>
<event>
 6    0  0.1463946E+003  0.1398186E+03  0.7546771E-02  0.1213573E+00
         21   -1    0    0  506  501  0.00000000000E+00  0.00000000000E+00  0.54321414201E+03  0.54321414201E+03  0.00000000000E+00 0.  1.
         21   -1    0    0  503  502 -0.00000000000E+00 -0.00000000000E+00 -0.74847905999E+03  0.74847905999E+03  0.00000000000E+00 0.  1.
         21    1    1    2  503  504 -0.10368139304E+03 -0.70712577859E+02 -0.69931233816E+03  0.71048423362E+03  0.00000000000E+00 0.  1.
         21    1    1    2  504  501  0.66866858209E+02  0.32476721245E+02  0.41554334294E+03  0.42214000522E+03  0.00000000000E+00 0.  1.
         21    1    1    2  505  502 -0.36659103314E+02  0.90144101702E+01 -0.11308716169E+02  0.39408584190E+02  0.00000000000E+00 0.  1.
         21    1    1    2  506  505  0.73473638147E+02  0.29221446444E+02  0.89812793406E+02  0.11966037897E+03  0.00000000000E+00 0.  1.
<scales pt_clust_3="14000.00000" pt_clust_4="74.20413" pt_clust_5="37.75115" pt_clust_6="139.81861"></scales>
<clustering>
<clus scale="   37.751">  2  5  1 -1</clus>
<clus scale="   74.204">  1  4  2 -1</clus>
<clus scale="  139.819">  1  6  2 -1</clus>
<clus scale="   74.204">  1  3  2 -1</clus>
</clustering>
</event>
<event>
 6    0  0.1463946E+003  0.1699699E+03  0.7546771E-02  0.1177879E+00
         21   -1    0    0  505  501  0.00000000000E+00  0.00000000000E+00  0.13963742067E+03  0.13963742067E+03  0.00000000000E+00 0.  1.
         21   -1    0    0  506  502 -0.00000000000E+00 -0.00000000000E+00 -0.19311728655E+04  0.19311728655E+04  0.00000000000E+00 0.  1.
         21    1    1    2  503  502 -0.70414899585E+02 -0.87618326999E+02 -0.15465818031E+04  0.15506613115E+04  0.00000000000E+00 0.  1.
         21    1    1    2  504  501 -0.41120216508E+02  0.54879585694E+02  0.17003724563E+02  0.70652443558E+02  0.00000000000E+00 0.  1.
         21    1    1    2  505  503  0.92186993443E+02  0.11627233225E+03  0.24579187079E+02  0.15040556321E+03  0.00000000000E+00 0.  1.
         21    1    1    2  506  504  0.19348122650E+02 -0.83533590943E+02 -0.28653655335E+03  0.29909096788E+03  0.00000000000E+00 0.  1.
<scales pt_clust_3="169.96994" pt_clust_4="68.57581" pt_clust_5="14000.00000" pt_clust_6="81.65440"></scales>
<clustering>
<clus scale="   68.576">  1  4  2 -1</clus>
<clus scale="   81.654">  2  6  1 -1</clus>
<clus scale="  169.970">  2  3  1 -1</clus>
<clus scale="   68.576">  1  3  2 -1</clus>
</clustering>
</event>
<event>
 6    0  0.1463946E+003  0.1657128E+03  0.7546771E-02  0.1182394E+00
         21   -1    0    0  503  501  0.00000000000E+00  0.00000000000E+00  0.34364458574E+03  0.34364458574E+03  0.00000000000E+00 0.  1.
         21   -1    0    0  505  502 -0.00000000000E+00 -0.00000000000E+00 -0.19475599167E+03  0.19475599167E+03  0.00000000000E+00 0.  1.
         21    1    1    2  503  506  0.37597591153E+02 -0.26564358027E+01  0.26929043933E+02  0.46322876842E+02  0.00000000000E+00 0.  1.
         21    1    1    2  504  501 -0.17676184821E+02 -0.37815150156E+02  0.14496147761E+03  0.15085179178E+03  0.00000000000E+00 0.  1.
         21    1    1    2  505  504 -0.25626255079E+02 -0.14109604668E+03  0.40126042677E+02  0.14891238578E+03  0.00000000000E+00 0.  1.
         21    1    1    2  506  502  0.57048487460E+01  0.18156763264E+03 -0.63127970146E+02  0.19231352302E+03  0.00000000000E+00 0.  1.
<scales pt_clust_3="37.69132" pt_clust_4="39.09733" pt_clust_5="14000.00000" pt_clust_6="165.71282"></scales>
<clustering>
<clus scale="   37.691">  1  3  2 -1</clus>
<clus scale="   39.097">  1  4  2 -1</clus>
<clus scale="  165.713">  2  6  1 -1</clus>
<clus scale="   37.691">  1  3  2 -1</clus>
</clustering>
</event>
<event>
 6    0  0.1463946E+003  0.1602289E+03  0.7546771E-02  0.1188439E+00
         21   -1    0    0  505  501  0.00000000000E+00  0.00000000000E+00  0.77184226982E+03  0.77184226982E+03  0.00000000000E+00 0. -1.
         21   -1    0    0  506  502 -0.00000000000E+00 -0.00000000000E+00 -0.87968646197E+02  0.87968646197E+02  0.00000000000E+00 0. -1.
         21    1    1    2  503  502  0.50175137485E+02 -0.13866105912E+03  0.91267432115E+01  0.14774211038E+03  0.00000000000E+00 0. -1.
         21    1    1    2  504  501 -0.44213616831E+02  0.53977773626E+02  0.32257912985E+03  0.33003899615E+03  0.00000000000E+00 0. -1.
         21    1    1    2  505  503  0.34447097194E+02 -0.16016561832E+02  0.68676219937E+02  0.78482838524E+02  0.00000000000E+00 0. -1.
         21    1    1    2  506  504 -0.40408617848E+02  0.10069984733E+03  0.28349153062E+03  0.30354697097E+03  0.00000000000E+00 0.  1.
<scales pt_clust_3="150.49873" pt_clust_4="41.05147" pt_clust_5="37.98859" pt_clust_6="41.05147"></scales>
<clustering>
<clus scale="   37.989">  1  5  2 -1</clus>
<clus scale="   41.051">  4  6 -1 -1</clus>
<clus scale="  150.499">  2  3  1 -1</clus>
<clus scale="   37.989">  1  3  2 -1</clus>
</clustering>
</event>
<event>
 6    0  0.1463946E+003  0.1050791E+03  0.7546771E-02  0.1269964E+00
         21   -1    0    0  503  501  0.00000000000E+00  0.00000000000E+00  0.32208332459E+03  0.32208332459E+03  0.00000000000E+00 0.  1.
         21   -1    0    0  506  502 -0.00000000000E+00 -0.00000000000E+00 -0.66157334380E+03  0.66157334380E+03  0.00000000000E+00 0. -1.
         21    1    1    2  503  504  0.61353958878E+02  0.81896505192E+02  0.20957746754E+03  0.23322534325E+03  0.00000000000E+00 0.  1.
         21    1    1    2  504  505 -0.72659304970E+02 -0.59307829728E+02  0.55815827262E+02  0.10914302469E+03  0.00000000000E+00 0.  1.
         21    1    1    2  505  502 -0.12073898165E+02 -0.58808232057E+02 -0.59373228433E+03  0.59675976123E+03  0.00000000000E+00 0. -1.
         21    1    1    2  506  501  0.23379244256E+02  0.36219556594E+02 -0.11151029677E+02  0.44528539216E+02  0.00000000000E+00 0. -1.
<scales pt_clust_3="105.07914" pt_clust_4="14000.00000" pt_clust_5="59.83577" pt_clust_6="43.10969"></scales>
<clustering>
<clus scale="   43.110">  1  6  2 -1</clus>
<clus scale="   59.836">  2  5  1 -1</clus>
<clus scale="  105.079">  1  3  2 -1</clus>
<clus scale="   43.110">  1  3  2 -1</clus>
</clustering>
</event>
<event>
 6    0  0.1463946E+003  0.1239574E+03  0.7546771E-02  0.1236708E+00
         21   -1    0    0  503  501  0.00000000000E+00  0.00000000000E+00  0.41749587847E+03  0.41749587847E+03  0.00000000000E+00 0.  1.
         21   -1    0    0  506  502 -0.00000000000E+00 -0.00000000000E+00 -0.16815968507E+03  0.16815968507E+03  0.00000000000E+00 0.  1.
         21    1    1    2  503  504  0.55949754062E+02  0.14074003093E+03  0.26740305846E+03  0.30731502885E+03  0.00000000000E+00 0.  1.
         21    1    1    2  504  505 -0.11429745358E+03 -0.56819086261E+02 -0.17300218394E+02  0.12880843922E+03  0.00000000000E+00 0.  1.
         21    1    1    2  505  502  0.31330347423E+02 -0.30768240972E+02 -0.54000305044E+02  0.69601065128E+02  0.00000000000E+00 0.  1.
         21    1    1    2  506  501  0.27017352095E+02 -0.53152703702E+02  0.53233658384E+02  0.79931030332E+02  0.00000000000E+00 0.  1.
<scales pt_clust_3="14000.00000" pt_clust_4="123.95745" pt_clust_5="43.91213" pt_clust_6="64.87297"></scales>
<clustering>
<clus scale="   43.912">  2  5  1 -1</clus>
<clus scale="   64.873">  1  6  2 -1</clus>
<clus scale="  123.957">  2  4  1 -1</clus>
<clus scale="   64.873">  1  3  2 -1</clus>
</clustering>
</event>
<event>
 6    0  0.1463946E+003  0.7920113E+02  0.7546771E-02  0.1331334E+00
         21   -1    0    0  504  501  0.00000000000E+00  0.00000000000E+00  0.94108256883E+02  0.94108256883E+02  0.00000000000E+00 0.  1.
         21   -1    0    0  503  502 -0.00000000000E+00 -0.00000000000E+00 -0.10057820384E+04  0.10057820384E+04  0.00000000000E+00 0.  1.
         21    1    1    2  503  505 -0.76412815965E+02 -0.10410033234E+03 -0.24406354936E+03  0.27612101290E+03  0.00000000000E+00 0.  1.
         21    1    1    2  504  506  0.22062329072E+01  0.44732822538E+02 -0.28976114015E+02  0.53343303791E+02  0.00000000000E+00 0.  1.
         21    1    1    2  505  501  0.69473831071E+02 -0.15457944367E+02  0.44007598955E+02  0.83679328472E+02  0.00000000000E+00 0.  1.
         21    1    1    2  506  502  0.47327519868E+01  0.74825454173E+02 -0.68264171712E+03  0.68674665015E+03  0.00000000000E+00 0.  1.
<scales pt_clust_3="14000.00000" pt_clust_4="44.78720" pt_clust_5="73.78960" pt_clust_6="79.20113"></scales>
<clustering>
<clus scale="   44.787">  1  4  2 -1</clus>
<clus scale="   73.790">  1  5  2 -1</clus>
<clus scale="   79.201">  2  6  1 -1</clus>
<clus scale="   44.787">  1  3  2 -1</clus>
</clustering>
</event>
<event>
 6    0  0.1463946E+003  0.1396217E+03  0.7546771E-02  0.1213839E+00
         21   -1    0    0  506  501  0.00000000000E+00  0.00000000000E+00  0.39778143754E+03  0.39778143754E+03  0.00000000000E+00 0. -1.
         21   -1    0    0  501  502 -0.00000000000E+00 -0.00000000000E+00 -0.78716476605E+02  0.78716476605E+02  0.00000000000E+00 0. -1.
         21    1    1    2  503  504 -0.10919912444E+02 -0.45442322415E+02  0.32494830718E+02  0.56922431234E+02  0.00000000000E+00 0. -1.
         21    1    1    2  504  505  0.44684321794E+02 -0.70716857673E+02  0.50625452351E+02  0.97777804225E+02  0.00000000000E+00 0. -1.
         21    1    1    2  505  502  0.36415159561E+02 -0.14682218623E+01 -0.12138803421E+02  0.38413149699E+02  0.00000000000E+00 0.  1.
         21    1    1    2  506  503 -0.70179568910E+02  0.11762740195E+03  0.24808348128E+03  0.28338452898E+03  0.00000000000E+00 0. -1.
<scales pt_clust_3="34.19616" pt_clust_4="34.19616" pt_clust_5="36.44475" pt_clust_6="130.78242"></scales>
<clustering>
<clus scale="   36.445">  2  5  1 -1</clus>
<clus scale="   34.196">  3  4 -1 -1</clus>
<clus scale="  130.782">  1  6  2 -1</clus>
<clus scale="  130.782">  1  3  2 -1</clus>
</clustering>
</event>
<event>
 6    0  0.1463946E+003  0.2321080E+03  0.7546771E-02  0.1125165E+00
         21   -1    0    0  504  501  0.00000000000E+00  0.00000000000E+00  0.56776706816E+03  0.56776706816E+03  0.00000000000E+00 0.  1.
         21   -1    0    0  505  502 -0.00000000000E+00 -0.00000000000E+00 -0.56420298658E+03  0.56420298658E+03  0.00000000000E+00 0.  1.
         21    1    1    2  503  501  0.22657933424E+03 -0.68122962505E+02  0.25057522957E+03  0.34462570768E+03  0.00000000000E+00 0.  1.
         21    1    1    2  504  506 -0.10490572349E+03  0.45222904838E+02  0.18639870328E+03  0.21862021528E+03  0.00000000000E+00 0.  1.
         21    1    1    2  505  503 -0.43272444690E+02  0.46021845168E+02 -0.47349107943E+03  0.47768642120E+03  0.00000000000E+00 0.  1.
         21    1    1    2  506  502 -0.78401166057E+02 -0.23121787501E+02  0.40081228164E+02  0.91037710579E+02  0.00000000000E+00 0.  1.
<scales pt_clust_3="208.25252" pt_clust_4="87.68260" pt_clust_5="63.17052" pt_clust_6="87.68260"></scales>
<clustering>
<clus scale="   63.171">  2  5  1 -1</clus>
<clus scale="   87.683">  4  6 -1 -1</clus>
<clus scale="  208.253">  2  3  1 -1</clus>
<clus scale="  232.108">  1  3  2 -1</clus>
</clustering>
</event>
<event>
 6    0  0.1463946E+003  0.1967806E+03  0.7546771E-02  0.1152484E+00
         21   -1    0    0  504  501  0.00000000000E+00  0.00000000000E+00  0.87047903340E+03  0.87047903340E+03  0.00000000000E+00 0. -1.
         21   -1    0    0  506  502 -0.00000000000E+00 -0.00000000000E+00 -0.13637619110E+03  0.13637619110E+03  0.00000000000E+00 0. -1.
         21    1    1    2  503  501 -0.16568624028E+03  0.61320611257E+02  0.28358502466E+02  0.17893113827E+03  0.00000000000E+00 0. -1.
         21    1    1    2  504  505  0.23655707001E+02  0.45483363914E+02  0.24000228222E+03  0.24541683793E+03  0.00000000000E+00 0.  1.
         21    1    1    2  505  502  0.15618506969E+03 -0.14023333315E+03  0.49384225923E+03  0.53659979568E+03  0.00000000000E+00 0. -1.
         21    1    1    2  506  503 -0.14154536413E+02  0.33429357981E+02 -0.28100201614E+02  0.45907452628E+02  0.00000000000E+00 0. -1.
<scales pt_clust_3="14000.00000" pt_clust_4="51.90289" pt_clust_5="196.78056" pt_clust_6="36.30252"></scales>
<clustering>
<clus scale="   36.303">  2  6  1 -1</clus>
<clus scale="   51.903">  1  4  2 -1</clus>
<clus scale="  196.781">  1  5  2 -1</clus>
<clus scale="   51.903">  1  3  2 -1</clus>
</clustering>
</event>
<event>
 6    0  0.1463946E+003  0.9887559E+02  0.7546771E-02  0.1282678E+00
         21   -1    0    0  503  501  0.00000000000E+00  0.00000000000E+00  0.68330824334E+03  0.68330824334E+03  0.00000000000E+00 0. -1.
         21   -1    0    0  504  502 -0.00000000000E+00 -0.00000000000E+00 -0.11523574009E+04  0.11523574009E+04  0.00000000000E+00 0. -1.
         21    1    1    2  503  506  0.53839463317E+02 -0.21550332947E+02  0.62949270243E+03  0.63215834019E+03  0.00000000000E+00 0. -1.
         21    1    1    2  504  501  0.42547870326E+02 -0.49087915770E+02 -0.27675104657E+03  0.28427290853E+03  0.00000000000E+00 0. -1.
         21    1    1    2  505  502  0.19638336432E+02 -0.31466900920E+02 -0.74631172876E+03  0.74723291322E+03  0.00000000000E+00 0. -1.
         21    1    1    2  506  505 -0.11602567007E+03  0.10210514964E+03 -0.75479084663E+02  0.17200148232E+03  0.00000000000E+00 0.  1.
<scales pt_clust_3="58.09067" pt_clust_4="14000.00000" pt_clust_5="37.09218" pt_clust_6="98.87559"></scales>
<clustering>
<clus scale="   37.092">  2  5  1 -1</clus>
<clus scale="   58.091">  1  3  2 -1</clus>
<clus scale="   98.876">  1  6  2 -1</clus>
<clus scale="   58.091">  1  3  2 -1</clus>
</clustering>
</event>
<event>
 6    0  0.1463946E+003  0.8355154E+02  0.7546771E-02  0.1319264E+00
         21   -1    0    0  503  501  0.00000000000E+00  0.00000000000E+00  0.79492387143E+02  0.79492387143E+02  0.00000000000E+00 0. -1.
         21   -1    0    0  506  502 -0.00000000000E+00 -0.00000000000E+00 -0.26368601160E+04  0.26368601160E+04  0.00000000000E+00 0.  1.
         21    1    1    2  503  502  0.34988799249E+02 -0.71457408759E+01 -0.13908879482E+03  0.14360003666E+03  0.00000000000E+00 0. -1.
         21    1    1    2  504  501  0.28943188293E+02  0.70210713212E+02  0.43472594873E+02  0.87504965020E+02  0.00000000000E+00 0. -1.
         21    1    1    2  505  504 -0.91061172279E+02 -0.26513555939E+01 -0.17284495796E+03  0.19538307571E+03  0.00000000000E+00 0.  1.
         21    1    1    2  506  505  0.27129184737E+02 -0.60413616742E+02 -0.22889065709E+04  0.22898644257E+04  0.00000000000E+00 0.  1.
<scales pt_clust_3="35.71103" pt_clust_4="76.00242" pt_clust_5="14000.00000" pt_clust_6="83.55154"></scales>
<clustering>
<clus scale="   35.711">  2  3  1 -1</clus>
<clus scale="   76.002">  1  4  2 -1</clus>
<clus scale="   83.552">  2  6  1 -1</clus>
<clus scale="   76.002">  1  3  2 -1</clus>
</clustering>
</event>
<event>
 6    0  0.1463946E+003  0.1416799E+03  0.7546771E-02  0.1211086E+00
         21   -1    0    0  503  501  0.00000000000E+00  0.00000000000E+00  0.39241519318E+03  0.39241519318E+03  0.00000000000E+00 0.  1.
         21   -1    0    0  504  502 -0.00000000000E+00 -0.00000000000E+00 -0.80434567312E+02  0.80434567312E+02  0.00000000000E+00 0.  1.
         21    1    1    2  503  502  0.12948751856E+03 -0.34294205965E+02  0.16952584215E+02  0.13502036934E+03  0.00000000000E+00 0.  1.
         21    1    1    2  504  505 -0.68514647004E+02  0.14605921931E+02  0.71345666860E+02  0.99988969338E+02  0.00000000000E+00 0.  1.
         21    1    1    2  505  506 -0.32305287847E+02  0.35553781787E+02  0.12971918358E+03  0.13832848445E+03  0.00000000000E+00 0.  1.
         21    1    1    2  506  501 -0.28667583707E+02 -0.15865497753E+02  0.93963191213E+02  0.99511937362E+02  0.00000000000E+00 0.  1.
<scales pt_clust_3="128.00671" pt_clust_4="50.43780" pt_clust_5="50.43780" pt_clust_6="32.76499"></scales>
<clustering>
<clus scale="   32.765">  1  6  2 -1</clus>
<clus scale="   50.438">  4  5 -1 -1</clus>
<clus scale="  128.007">  2  3  1 -1</clus>
<clus scale="   32.765">  1  3  2 -1</clus>
</clustering>
</event>
<event>
 6    0  0.1463946E+003  0.8722273E+02  0.7546771E-02  0.1309720E+00
         21   -1    0    0  504  501  0.00000000000E+00  0.00000000000E+00  0.11591893014E+03  0.11591893014E+03  0.00000000000E+00 0. -1.
         21   -1    0    0  505  502 -0.00000000000E+00 -0.00000000000E+00 -0.23839842658E+04  0.23839842658E+04  0.00000000000E+00 0.  1.
         21    1    1    2  503  506  0.10912592593E+03  0.57970011802E+02  0.11139903852E+02  0.12406888182E+03  0.00000000000E+00 0. -1.
         21    1    1    2  504  502 -0.40189914830E+02 -0.49011122353E+02 -0.18751433678E+04  0.18762142653E+04  0.00000000000E+00 0.  1.
         21    1    1    2  505  503 -0.44205830005E+02  0.27532742380E+02 -0.43979904614E+03  0.44287177410E+03  0.00000000000E+00 0.  1.
         21    1    1    2  506  501 -0.24730181091E+02 -0.36491631829E+02  0.35737174444E+02  0.56748274754E+02  0.00000000000E+00 0.  1.
<scales pt_clust_3="14000.00000" pt_clust_4="87.22273" pt_clust_5="52.12538" pt_clust_6="44.08198"></scales>
<clustering>
<clus scale="   44.082">  1  6  2 -1</clus>
<clus scale="   52.125">  2  5  1 -1</clus>
<clus scale="   87.223">  2  4  1 -1</clus>
<clus scale="   44.082">  1  3  2 -1</clus>
</clustering>
</event>
<event>
 6    0  0.1463946E+003  0.7600454E+02  0.7546771E-02  0.1340788E+00
         21   -1    0    0  503  501  0.00000000000E+00  0.00000000000E+00  0.41488535662E+02  0.41488535662E+02  0.00000000000E+00 0.  1.
         21   -1    0    0  505  502 -0.00000000000E+00 -0.00000000000E+00 -0.22597266134E+04  0.22597266134E+04  0.00000000000E+00 0.  1.
         21    1    1    2  503  504  0.89279685259E+02 -0.70856142539E+02 -0.55882952250E+02  0.12694234710E+03  0.00000000000E+00 0.  1.
         21    1    1    2  504  502 -0.39543951861E+02 -0.13691290824E+02 -0.10002177996E+04  0.10010928140E+04  0.00000000000E+00 0.  1.
         21    1    1    2  505  506 -0.26448891967E+02  0.54158005235E+02 -0.10886538347E+04  0.10903209643E+04  0.00000000000E+00 0.  1.
         21    1    1    2  506  501 -0.23286841430E+02  0.30389428128E+02 -0.73483491215E+02  0.82859023690E+02  0.00000000000E+00 0.  1.
<scales pt_clust_3="76.00454" pt_clust_4="41.99268" pt_clust_5="14000.00000" pt_clust_6="38.28569"></scales>
<clustering>
<clus scale="   38.286">  1  6  2 -1</clus>
<clus scale="   41.993">  2  4  1 -1</clus>
<clus scale="   76.005">  1  3  2 -1</clus>
<clus scale="   38.286">  1  3  2 -1</clus>
</clustering>
</event>
<event>
 6    0  0.1463946E+003  0.7246378E+02  0.7546771E-02  0.1351910E+00
         21   -1    0    0  506  501  0.00000000000E+00  0.00000000000E+00  0.56377983428E+03  0.56377983428E+03  0.00000000000E+00 0. -1.
         21   -1    0    0  504  502 -0.00000000000E+00 -0.00000000000E+00 -0.21002345379E+03  0.21002345379E+03  0.00000000000E+00 0.  1.
         21    1    1    2  503  505 -0.56822450118E+02 -0.10378333749E+03 -0.30522057995E+02  0.12219397695E+03  0.00000000000E+00 0.  1.
         21    1    1    2  504  503 -0.87458498411E+01  0.65956178760E+02 -0.10765868880E+03  0.12655868473E+03  0.00000000000E+00 0.  1.
         21    1    1    2  505  501  0.54628026727E+02  0.86389636004E+01  0.31676774393E+02  0.63735947723E+02  0.00000000000E+00 0.  1.
         21    1    1    2  506  502  0.10940273231E+02  0.29188195128E+02  0.46026035289E+03  0.46131467867E+03  0.00000000000E+00 0. -1.
<scales pt_clust_3="72.46378" pt_clust_4="14000.00000" pt_clust_5="63.67564" pt_clust_6="31.17115"></scales>
<clustering>
<clus scale="   31.171">  1  6  2 -1</clus>
<clus scale="   63.676">  1  5  2 -1</clus>
<clus scale="   72.464">  1  3  2 -1</clus>
<clus scale="   31.171">  1  3  2 -1</clus>
</clustering>
</event>
<event>
 6    0  0.1463946E+003  0.2897924E+03  0.7546771E-02  0.1090458E+00
         21   -1    0    0  506  501  0.00000000000E+00  0.00000000000E+00  0.16659983040E+03  0.16659983040E+03  0.00000000000E+00 0. -1.
         21   -1    0    0  504  502 -0.00000000000E+00 -0.00000000000E+00 -0.76482023676E+03  0.76482023676E+03  0.00000000000E+00 0. -1.
         21    1    1    2  503  502 -0.10356974061E+03 -0.22485675013E+03 -0.39791633937E+03  0.46864129394E+03  0.00000000000E+00 0. -1.
         21    1    1    2  504  505  0.35814585243E+01  0.18001636714E+03 -0.15097662163E+03  0.23497374228E+03  0.00000000000E+00 0. -1.
         21    1    1    2  505  501  0.99891812513E+02  0.97186887511E+02 -0.86112379979E+02  0.16382614961E+03  0.00000000000E+00 0. -1.
         21    1    1    2  506  503  0.96469575870E-01 -0.52346504518E+02  0.36784934615E+02  0.63978881330E+02  0.00000000000E+00 0. -1.
<scales pt_clust_3="262.10272" pt_clust_4="110.09360" pt_clust_5="110.09360" pt_clust_6="52.34659"></scales>
<clustering>
<clus scale="   52.347">  1  6  2 -1</clus>
<clus scale="  110.094">  4  5 -1 -1</clus>
<clus scale="  262.103">  2  3  1 -1</clus>
<clus scale="   52.347">  1  3  2 -1</clus>
</clustering>
</event>
<event>
 6    0  0.1463946E+003  0.1626631E+03  0.7546771E-02  0.1185723E+00
         21   -1    0    0  504  501  0.00000000000E+00  0.00000000000E+00  0.68289717475E+03  0.68289717475E+03  0.00000000000E+00 0.  1.
         21   -1    0    0  503  502 -0.00000000000E+00 -0.00000000000E+00 -0.86776463635E+03  0.86776463635E+03  0.00000000000E+00 0. -1.
         21    1    1    2  503  501 -0.21084935581E+02  0.27714155979E+02 -0.13283579120E+02  0.37270664393E+02  0.00000000000E+00 0. -1.
         21    1    1    2  504  505 -0.27942628856E+02  0.14766896741E+03  0.60993287162E+03  0.62817594855E+03  0.00000000000E+00 0.  1.
         21    1    1    2  505  506 -0.10868984110E+03 -0.19995545369E+03 -0.29128715549E+03  0.36965371900E+03  0.00000000000E+00 0. -1.
         21    1    1    2  506  502  0.15771740553E+03  0.24572330307E+02 -0.49022959863E+03  0.51556147916E+03  0.00000000000E+00 0. -1.
<scales pt_clust_3="34.82311" pt_clust_4="150.62680" pt_clust_5="14000.00000" pt_clust_6="162.66309"></scales>
<clustering>
<clus scale="   34.823">  2  3  1 -1</clus>
<clus scale="  150.627">  1  4  2 -1</clus>
<clus scale="  162.663">  2  6  1 -1</clus>
<clus scale="  150.627">  1  3  2 -1</clus>
</clustering>
</event>
<event>
 6    0  0.1463946E+003  0.1273721E+03  0.7546771E-02  0.1231408E+00
         21   -1    0    0  506  501  0.00000000000E+00  0.00000000000E+00  0.10978565212E+04  0.10978565212E+04  0.00000000000E+00 0.  1.
         21   -1    0    0  503  502 -0.00000000000E+00 -0.00000000000E+00 -0.64536330006E+02  0.64536330006E+02  0.00000000000E+00 0.  1.
         21    1    1    2  503  505  0.35425971673E+02 -0.19190096954E+02 -0.26742196994E+02  0.48357051090E+02  0.00000000000E+00 0.  1.
         21    1    1    2  504  502 -0.69515097630E+01  0.12985353860E+03  0.30598281303E+03  0.33246916676E+03  0.00000000000E+00 0.  1.
         21    1    1    2  505  501  0.10417820744E+02 -0.12734867597E+03  0.30755408878E+03  0.33304013840E+03  0.00000000000E+00 0.  1.
         21    1    1    2  506  504 -0.38892282654E+02  0.16685234317E+02  0.44652548633E+03  0.44852649491E+03  0.00000000000E+00 0.  1.
<scales pt_clust_3="40.28969" pt_clust_4="14000.00000" pt_clust_5="127.37211" pt_clust_6="40.83302"></scales>
<clustering>
<clus scale="   40.290">  2  3  1 -1</clus>
<clus scale="   40.833">  1  6  2 -1</clus>
<clus scale="  127.372">  1  5  2 -1</clus>
<clus scale="   40.833">  1  3  2 -1</clus>
</clustering>
</event>
<event>
 6    0  0.1463946E+003  0.6492665E+02  0.7546771E-02  0.1378248E+00
         21   -1    0    0  504  501  0.00000000000E+00  0.00000000000E+00  0.66545113421E+03  0.66545113421E+03  0.00000000000E+00 0.  1.
         21   -1    0    0  505  502 -0.00000000000E+00 -0.00000000000E+00 -0.16296395813E+03  0.16296395813E+03  0.00000000000E+00 0. -1.
         21    1    1    2  503  502 -0.51152292764E+02  0.22876432367E+02  0.28560043618E+01  0.56107441341E+02  0.00000000000E+00 0.  1.
         21    1    1    2  504  503  0.34730778983E+02  0.71877023542E+02  0.52293333713E+03  0.52899131241E+03  0.00000000000E+00 0.  1.
         21    1    1    2  505  506  0.45619688510E+02 -0.86010246008E+02 -0.11266203803E+03  0.14890148828E+03  0.00000000000E+00 0. -1.
         21    1    1    2  506  501 -0.29198174729E+02 -0.87432099008E+01  0.89359872609E+02  0.94414850313E+02  0.00000000000E+00 0. -1.
<scales pt_clust_3="57.23042" pt_clust_4="64.92665" pt_clust_5="14000.00000" pt_clust_6="30.47913"></scales>
<clustering>
<clus scale="   30.479">  1  6  2 -1</clus>
<clus scale="   57.230">  2  3  1 -1</clus>
<clus scale="   64.927">  1  4  2 -1</clus>
<clus scale="   30.479">  1  3  2 -1</clus>
</clustering>
</event>
<event>
 6    0  0.1463946E+003  0.9399929E+02  0.7546771E-02  0.1293446E+00
         21   -1    0    0  505  501  0.00000000000E+00  0.00000000000E+00  0.87994606045E+03  0.87994606045E+03  0.00000000000E+00 0. -1.
         21   -1    0    0  503  502 -0.00000000000E+00 -0.00000000000E+00 -0.49990885500E+02  0.49990885500E+02  0.00000000000E+00 0. -1.
         21    1    1    2  503  504  0.16400935422E+02  0.12286502044E+03  0.37058636680E+03  0.39076726985E+03  0.00000000000E+00 0. -1.
         21    1    1    2  504  501 -0.42983121131E+02  0.15657906770E+01  0.20103918319E+03  0.20558879731E+03  0.00000000000E+00 0. -1.
         21    1    1    2  505  506 -0.23847634012E+02 -0.46129667131E+02  0.23064371043E+03  0.23641737880E+03  0.00000000000E+00 0. -1.
         21    1    1    2  506  502  0.50429819721E+02 -0.78301143989E+02  0.27685914541E+02  0.97163499994E+02  0.00000000000E+00 0. -1.
<scales pt_clust_3="14000.00000" pt_clust_4="43.01163" pt_clust_5="59.78905" pt_clust_6="93.99929"></scales>
<clustering>
<clus scale="   43.012">  1  4  2 -1</clus>
<clus scale="   59.789">  1  5  2 -1</clus>
<clus scale="   93.999">  2  6  1 -1</clus>
<clus scale="   43.012">  1  3  2 -1</clus>
</clustering>
</event>
<event>
 6    0  0.1463946E+003  0.7964391E+02  0.7546771E-02  0.1330065E+00
         21   -1    0    0  503  501  0.00000000000E+00  0.00000000000E+00  0.39385960397E+03  0.39385960397E+03  0.00000000000E+00 0. -1.
         21   -1    0    0  504  502 -0.00000000000E+00 -0.00000000000E+00 -0.39247731493E+03  0.39247731493E+03  0.00000000000E+00 0. -1.
         21    1    1    2  503  506 -0.15667723914E+02 -0.11195553969E+03 -0.86232749245E+02  0.14218160037E+03  0.00000000000E+00 0. -1.
         21    1    1    2  504  501  0.15525389847E+02  0.50290212471E+02  0.34558427590E+03  0.34956921339E+03  0.00000000000E+00 0. -1.
         21    1    1    2  505  502 -0.46199082078E+02  0.11316753321E+02 -0.19788829126E+03  0.20352444548E+03  0.00000000000E+00 0. -1.
         21    1    1    2  506  505  0.46341416145E+02  0.50348573899E+02 -0.60080946352E+02  0.91061659652E+02  0.00000000000E+00 0. -1.
<scales pt_clust_3="14000.00000" pt_clust_4="52.60522" pt_clust_5="47.56495" pt_clust_6="79.64391"></scales>
<clustering>
<clus scale="   47.565">  2  5  1 -1</clus>
<clus scale="   52.605">  1  4  2 -1</clus>
<clus scale="   79.644">  2  6  1 -1</clus>
<clus scale="   52.605">  1  3  2 -1</clus>
</clustering>
</event>
<event>
 6    0  0.1463946E+003  0.8250103E+02  0.7546771E-02  0.1322100E+00
         21   -1    0    0  506  501  0.00000000000E+00  0.00000000000E+00  0.14025013675E+03  0.14025013675E+03  0.00000000000E+00 0. -1.
         21   -1    0    0  505  502 -0.00000000000E+00 -0.00000000000E+00 -0.40980409388E+03  0.40980409388E+03  0.00000000000E+00 0. -1.
         21    1    1    2  503  504  0.48927065046E+02  0.34991701166E+02 -0.47920701271E+02  0.76906894716E+02  0.00000000000E+00 0. -1.
         21    1    1    2  504  501 -0.44263547374E+02 -0.21838946280E+02  0.96916170491E+02  0.10876095487E+03  0.00000000000E+00 0. -1.
         21    1    1    2  505  503  0.73482636571E+02  0.30139505724E+02 -0.20539648347E+03  0.22021762669E+03  0.00000000000E+00 0. -1.
         21    1    1    2  506  502 -0.78146154244E+02 -0.43292260611E+02 -0.11315294288E+03  0.14416875436E+03  0.00000000000E+00 0.  1.
<scales pt_clust_3="41.39871" pt_clust_4="49.35789" pt_clust_5="14000.00000" pt_clust_6="82.50103"></scales>
<clustering>
<clus scale="   49.358">  1  4  2 -1</clus>
<clus scale="   41.399">  1  3  2 -1</clus>
<clus scale="   82.501">  1  6  2 -1</clus>
<clus scale="   49.358">  1  3  2 -1</clus>
</clustering>
</event>
<event>
 6    0  0.1463946E+003  0.1154858E+03  0.7546771E-02  0.1250736E+00
         21   -1    0    0  506  501  0.00000000000E+00  0.00000000000E+00  0.24596247257E+03  0.24596247257E+03  0.00000000000E+00 0. -1.
         21   -1    0    0  503  502 -0.00000000000E+00 -0.00000000000E+00 -0.35723928941E+03  0.35723928941E+03  0.00000000000E+00 0.  1.
         21    1    1    2  503  505  0.14037027197E+02  0.58555002765E+02 -0.21006922147E+03  0.21852872646E+03  0.00000000000E+00 0.  1.
         21    1    1    2  504  502 -0.39456813326E+02  0.73058635509E+02 -0.49836864767E+02  0.96840680657E+02  0.00000000000E+00 0. -1.
         21    1    1    2  505  501 -0.23333107506E+02 -0.15955389428E+03  0.40944095153E+02  0.16636795969E+03  0.00000000000E+00 0.  1.
         21    1    1    2  506  504  0.48752893634E+02  0.27940256002E+02  0.10768517424E+03  0.12146439517E+03  0.00000000000E+00 0. -1.
<scales pt_clust_3="61.46868" pt_clust_4="115.48575" pt_clust_5="14000.00000" pt_clust_6="56.19166"></scales>
<clustering>
<clus scale="   56.192">  1  6  2 -1</clus>
<clus scale="   61.469">  2  3  1 -1</clus>
<clus scale="  115.486">  2  4  1 -1</clus>
<clus scale="   56.192">  1  3  2 -1</clus>
</clustering>
</event>
<event>
 6    0  0.1463946E+003  0.7733904E+02  0.7546771E-02  0.1336777E+00
         21   -1    0    0  506  501  0.00000000000E+00  0.00000000000E+00  0.13578292224E+03  0.13578292224E+03  0.00000000000E+00 0.  1.
         21   -1    0    0  505  502 -0.00000000000E+00 -0.00000000000E+00 -0.52272146234E+03  0.52272146234E+03  0.00000000000E+00 0.  1.
         21    1    1    2  503  502  0.46913472988E+02 -0.21781762510E+02 -0.12417862364E+03  0.13452007172E+03  0.00000000000E+00 0.  1.
         21    1    1    2  504  501 -0.38419909415E+01 -0.78419454413E+02  0.99643687581E+02  0.12685911950E+03  0.00000000000E+00 0.  1.
         21    1    1    2  505  504  0.10369136051E+02  0.32275287617E+02 -0.26394886225E+03  0.26611691990E+03  0.00000000000E+00 0.  1.
         21    1    1    2  506  503 -0.53440618097E+02  0.67925929307E+02 -0.98454741789E+02  0.13100827346E+03  0.00000000000E+00 0.  1.
<scales pt_clust_3="52.41631" pt_clust_4="14000.00000" pt_clust_5="33.90005" pt_clust_6="77.33904"></scales>
<clustering>
<clus scale="   33.900">  2  5  1 -1</clus>
<clus scale="   52.416">  2  3  1 -1</clus>
<clus scale="   77.339">  2  6  1 -1</clus>
<clus scale="   77.339">  1  3  2 -1</clus>
</clustering>
</event>
<event>
 6    0  0.1463946E+003  0.1146089E+03  0.7546771E-02  0.1252265E+00
         21   -1    0    0  506  501  0.00000000000E+00  0.00000000000E+00  0.61762507172E+03  0.61762507172E+03  0.00000000000E+00 0. -1.
         21   -1    0    0  505  502 -0.00000000000E+00 -0.00000000000E+00 -0.10093769750E+03  0.10093769750E+03  0.00000000000E+00 0. -1.
         21    1    1    2  503  504  0.91186892593E+02 -0.46674513197E+02  0.23812366752E+03  0.25922276250E+03  0.00000000000E+00 0. -1.
         21    1    1    2  504  501 -0.50942925401E+01  0.70360848515E+02  0.13393328271E+03  0.15137610458E+03  0.00000000000E+00 0. -1.
         21    1    1    2  505  503 -0.17508941643E+03  0.40091152849E+01  0.11746201481E+03  0.21087840495E+03  0.00000000000E+00 0. -1.
         21    1    1    2  506  502  0.88996816378E+02 -0.27695450602E+02  0.27168409185E+02  0.97085497203E+02  0.00000000000E+00 0. -1.
<scales pt_clust_3="89.06462" pt_clust_4="70.54503" pt_clust_5="114.60887" pt_clust_6="14000.00000"></scales>
<clustering>
<clus scale="   70.545">  1  4  2 -1</clus>
<clus scale="   89.065">  1  3  2 -1</clus>
<clus scale="  114.609">  1  5  2 -1</clus>
<clus scale="   70.545">  1  3  2 -1</clus>
</clustering>
</event>
<event>
 6    0  0.1463946E+003  0.1264131E+03  0.7546771E-02  0.1232877E+00
         21   -1    0    0  506  501  0.00000000000E+00  0.00000000000E+00  0.12615998728E+04  0.12615998728E+04  0.00000000000E+00 0.  1.
         21   -1    0    0  504  502 -0.00000000000E+00 -0.00000000000E+00 -0.75082163580E+03  0.75082163580E+03  0.00000000000E+00 0.  1.
         21    1    1    2  503  505  0.13982230020E+03  0.15335192034E+02  0.32138782330E+03  0.35082128886E+03  0.00000000000E+00 0.  1.
         21    1    1    2  504  503 -0.88909013515E+02 -0.13820886845E+02 -0.69049448667E+03  0.69633215186E+03  0.00000000000E+00 0.  1.
         21    1    1    2  505  501 -0.24282902523E+02 -0.71078625987E+02  0.88724426624E+03  0.89041800206E+03  0.00000000000E+00 0.  1.
         21    1    1    2  506  502 -0.26630384159E+02  0.69564320799E+02 -0.73593658638E+01  0.74850065829E+02  0.00000000000E+00 0. -1.
<scales pt_clust_3="126.41308" pt_clust_4="14000.00000" pt_clust_5="74.98426" pt_clust_6="74.48740"></scales>
<clustering>
<clus scale="   74.487">  2  6  1 -1</clus>
<clus scale="   74.984">  1  5  2 -1</clus>
<clus scale="  126.413">  1  3  2 -1</clus>
<clus scale="   74.984">  1  3  2 -1</clus>
</clustering>
</event>
<event>
 6    0  0.1463946E+003  0.1556286E+03  0.7546771E-02  0.1193722E+00
         21   -1    0    0  504  501  0.00000000000E+00  0.00000000000E+00  0.12431103833E+04  0.12431103833E+04  0.00000000000E+00 0. -1.
         21   -1    0    0  503  502 -0.00000000000E+00 -0.00000000000E+00 -0.21506591409E+03  0.21506591409E+03  0.00000000000E+00 0. -1.
         21    1    1    2  503  505  0.41024187076E+02  0.13746618848E+02 -0.56951726273E+02  0.71522392161E+02  0.00000000000E+00 0. -1.
         21    1    1    2  504  502 -0.22843162348E+02 -0.20897848635E+02 -0.27939373917E+02  0.41702982609E+02  0.00000000000E+00 0. -1.
         21    1    1    2  505  506  0.12658231821E+02  0.15953687723E+03 -0.53083391130E+02  0.16861225472E+03  0.00000000000E+00 0. -1.
         21    1    1    2  506  501 -0.30839256549E+02 -0.15238564744E+03  0.11660189605E+04  0.11763386679E+04  0.00000000000E+00 0. -1.
<scales pt_clust_3="33.48101" pt_clust_4="30.96014" pt_clust_5="155.62861" pt_clust_6="14000.00000"></scales>
<clustering>
<clus scale="   30.960">  2  4  1 -1</clus>
<clus scale="   33.481">  2  3  1 -1</clus>
<clus scale="  155.629">  2  5  1 -1</clus>
<clus scale="  155.629">  1  3  2 -1</clus>
</clustering>
</event>
<event>
 6    0  0.1463946E+003  0.1200748E+03  0.7546771E-02  0.1242974E+00
         21   -1    0    0  506  501  0.00000000000E+00  0.00000000000E+00  0.22033322807E+03  0.22033322807E+03  0.00000000000E+00 0.  1.
         21   -1    0    0  503  502 -0.00000000000E+00 -0.00000000000E+00 -0.30624528342E+03  0.30624528342E+03  0.00000000000E+00 0. -1.
         21    1    1    2  503  505  0.52489879228E+02 -0.10605834052E+03 -0.22606816986E+03  0.25516734987E+03  0.00000000000E+00 0. -1.
         21    1    1    2  504  502 -0.11314726534E+03  0.89792821997E+02  0.54981666805E+02  0.15455755633E+03  0.00000000000E+00 0.  1.
         21    1    1    2  505  501  0.30735198666E+02 -0.55950012002E+01  0.95986850793E+01  0.32681665055E+02  0.00000000000E+00 0. -1.
         21    1    1    2  506  504  0.29922187442E+02  0.21860519722E+02  0.75575762631E+02  0.84171940224E+02  0.00000000000E+00 0.  1.
<scales pt_clust_3="14000.00000" pt_clust_4="120.07485" pt_clust_5="31.24030" pt_clust_6="46.57899"></scales>
<clustering>
<clus scale="   31.240">  1  5  2 -1</clus>
<clus scale="   46.579">  1  6  2 -1</clus>
<clus scale="  120.075">  1  4  2 -1</clus>
<clus scale="   31.240">  1  3  2 -1</clus>
</clustering>
</event>
<event>
 6    0  0.1463946E+003  0.1560391E+03  0.7546771E-02  0.1193243E+00
         21   -1    0    0  503  501  0.00000000000E+00  0.00000000000E+00  0.77208277957E+03  0.77208277957E+03  0.00000000000E+00 0.  1.
         21   -1    0    0  504  502 -0.00000000000E+00 -0.00000000000E+00 -0.10308571905E+03  0.10308571905E+03  0.00000000000E+00 0. -1.
         21    1    1    2  503  505  0.38165443297E+02 -0.16201522774E+03  0.21527992010E+03  0.27212309545E+03  0.00000000000E+00 0.  1.
         21    1    1    2  504  506  0.32078956656E+02 -0.20677361455E+02 -0.39968886067E+02  0.55264134756E+02  0.00000000000E+00 0. -1.
         21    1    1    2  505  502 -0.56192320622E+01  0.44368926145E+02  0.18026493134E+02  0.48219620809E+02  0.00000000000E+00 0. -1.
         21    1    1    2  506  501 -0.64625167891E+02  0.13832366305E+03  0.47565953336E+03  0.49956164761E+03  0.00000000000E+00 0.  1.
<scales pt_clust_3="156.03906" pt_clust_4="38.16560" pt_clust_5="38.86609" pt_clust_6="14000.00000"></scales>
<clustering>
<clus scale="   38.166">  2  4  1 -1</clus>
<clus scale="   38.866">  2  5  1 -1</clus>
<clus scale="  156.039">  2  3  1 -1</clus>
<clus scale="  156.039">  1  3  2 -1</clus>
</clustering>
</event>
<event>
 6    0  0.1463946E+003  0.1318431E+03  0.7546771E-02  0.1224746E+00
         21   -1    0    0  504  501  0.00000000000E+00  0.00000000000E+00  0.60443800401E+02  0.60443800401E+02  0.00000000000E+00 0. -1.
         21   -1    0    0  503  502 -0.00000000000E+00 -0.00000000000E+00 -0.59456007312E+03  0.59456007312E+03  0.00000000000E+00 0.  1.
         21    1    1    2  503  505 -0.60271898598E+02  0.25071194446E+02 -0.15851158395E+02  0.67175336055E+02  0.00000000000E+00 0. -1.
         21    1    1    2  504  506  0.73463966136E+02 -0.11662768657E+03 -0.21619025866E+03  0.25639266669E+03  0.00000000000E+00 0.  1.
         21    1    1    2  505  501 -0.44351345450E+02  0.33371136437E+02 -0.65639370924E+02  0.85960465364E+02  0.00000000000E+00 0.  1.
         21    1    1    2  506  502  0.31159277913E+02  0.58185355686E+02 -0.23643548474E+03  0.24547540541E+03  0.00000000000E+00 0.  1.
<scales pt_clust_3="45.62601" pt_clust_4="122.20580" pt_clust_5="45.62601" pt_clust_6="66.00330"></scales>
<clustering>
<clus scale="   45.626">  3  5 -1 -1</clus>
<clus scale="   66.003">  2  6  1 -1</clus>
<clus scale="  122.206">  2  4  1 -1</clus>
<clus scale="  131.843">  1  3  2 -1</clus>
</clustering>
</event>
<event>
 6    0  0.1463946E+003  0.7985750E+02  0.7546771E-02  0.1329456E+00
         21   -1    0    0  505  501  0.00000000000E+00  0.00000000000E+00  0.40277216714E+03  0.40277216714E+03  0.00000000000E+00 0. -1.
         21   -1    0    0  506  502 -0.00000000000E+00 -0.00000000000E+00 -0.54981179551E+03  0.54981179551E+03  0.00000000000E+00 0. -1.
         21    1    1    2  503  501  0.60551231231E+02 -0.41793537576E+02  0.16204605904E+03  0.17796650426E+03  0.00000000000E+00 0.  1.
         21    1    1    2  504  502  0.52784588124E+02 -0.20547538274E+02 -0.49046138262E+03  0.49372136060E+03  0.00000000000E+00 0. -1.
         21    1    1    2  505  504 -0.10714779328E+03 -0.13061461032E+02  0.17415910213E+03  0.20489666719E+03  0.00000000000E+00 0. -1.
         21    1    1    2  506  503 -0.61880260715E+01  0.75402536882E+02  0.72165930734E+01  0.75999430593E+02  0.00000000000E+00 0.  1.
<scales pt_clust_3="79.85750" pt_clust_4="56.64286" pt_clust_5="14000.00000" pt_clust_6="68.02461"></scales>
<clustering>
<clus scale="   56.643">  2  4  1 -1</clus>
<clus scale="   68.025">  2  6  1 -1</clus>
<clus scale="   79.857">  1  3  2 -1</clus>
<clus scale="   79.857">  1  3  2 -1</clus>
</clustering>
</event>
<event>
 6    0  0.1463946E+003  0.1138558E+03  0.7546771E-02  0.1253592E+00
         21   -1    0    0  504  501  0.00000000000E+00  0.00000000000E+00  0.13032129557E+04  0.13032129557E+04  0.00000000000E+00 0.  1.
         21   -1    0    0  503  502 -0.00000000000E+00 -0.00000000000E+00 -0.15449183059E+04  0.15449183059E+04  0.00000000000E+00 0.  1.
         21    1    1    2  503  505  0.34511631974E+02 -0.10007951286E+02 -0.88361022092E+03  0.88434056468E+03  0.00000000000E+00 0.  1.
         21    1    1    2  504  502 -0.66150802799E+02 -0.62505340935E+02 -0.61085947774E+03  0.61760193320E+03  0.00000000000E+00 0.  1.
         21    1    1    2  505  506  0.74703454575E+02 -0.36332355656E+02 -0.47807056490E+01  0.83207579820E+02  0.00000000000E+00 0.  1.
         21    1    1    2  506  501 -0.43064283751E+02  0.10884564788E+03  0.12575450541E+04  0.12629811839E+04  0.00000000000E+00 0.  1.
<scales pt_clust_3="35.93344" pt_clust_4="79.48225" pt_clust_5="14000.00000" pt_clust_6="113.85580"></scales>
<clustering>
<clus scale="   35.933">  2  3  1 -1</clus>
<clus scale="   79.482">  2  4  1 -1</clus>
<clus scale="  113.856">  1  6  2 -1</clus>
<clus scale="  113.856">  1  3  2 -1</clus>
</clustering>
</event>
<event>
 6    0  0.1463946E+003  0.1147430E+03  0.7546771E-02  0.1252030E+00
         21   -1    0    0  504  501  0.00000000000E+00  0.00000000000E+00  0.24486232673E+04  0.24486232673E+04  0.00000000000E+00 0.  1.
         21   -1    0    0  503  502 -0.00000000000E+00 -0.00000000000E+00 -0.24069862779E+02  0.24069862779E+02  0.00000000000E+00 0.  1.
         21    1    1    2  503  506 -0.98591135303E+02  0.98449927022E+02  0.16177344895E+04  0.16237233380E+04  0.00000000000E+00 0.  1.
         21    1    1    2  504  505  0.39887738143E+02 -0.20573461241E+02  0.21422742456E+03  0.21887825016E+03  0.00000000000E+00 0.  1.
         21    1    1    2  505  502  0.92207669732E+02 -0.64091425280E+02  0.15716285975E+03  0.19315830201E+03  0.00000000000E+00 0.  1.
         21    1    1    2  506  501 -0.33504272571E+02 -0.13785040501E+02  0.43542863075E+03  0.43693323986E+03  0.00000000000E+00 0.  1.
<scales pt_clust_3="14000.00000" pt_clust_4="42.46080" pt_clust_5="114.74301" pt_clust_6="36.22932"></scales>
<clustering>
<clus scale="   36.229">  1  6  2 -1</clus>
<clus scale="   42.461">  1  4  2 -1</clus>
<clus scale="  114.743">  2  5  1 -1</clus>
<clus scale="   36.229">  1  3  2 -1</clus>
</clustering>
</event>
<event>
 6    0  0.1463946E+003  0.7717161E+02  0.7546771E-02  0.1337275E+00
         21   -1    0    0  503  501  0.00000000000E+00  0.00000000000E+00  0.54415752510E+02  0.54415752510E+02  0.00000000000E+00 0. -1.
         21   -1    0    0  504  502 -0.00000000000E+00 -0.00000000000E+00 -0.81239952992E+03  0.81239952992E+03  0.00000000000E+00 0.  1.
         21    1    1    2  503  506 -0.39590488245E+02  0.65554640484E+02 -0.19718498971E+03  0.21153424738E+03  0.00000000000E+00 0.  1.
         21    1    1    2  504  501  0.98990778865E+01 -0.77820750248E+02 -0.72805638282E+01  0.78784944766E+02  0.00000000000E+00 0. -1.
         21    1    1    2  505  502 -0.18048652612E+02  0.39161593672E+02 -0.49290118401E+03  0.49478375224E+03  0.00000000000E+00 0.  1.
         21    1    1    2  506  505  0.47740062971E+02 -0.26895483907E+02 -0.60617039860E+02  0.81712338043E+02  0.00000000000E+00 0. -1.
<scales pt_clust_3="14000.00000" pt_clust_4="77.17161" pt_clust_5="43.12058" pt_clust_6="47.32551"></scales>
<clustering>
<clus scale="   43.121">  2  5  1 -1</clus>
<clus scale="   47.326">  2  6  1 -1</clus>
<clus scale="   77.172">  1  4  2 -1</clus>
<clus scale="   77.172">  1  3  2 -1</clus>
</clustering>
</event>
<event>
 6    0  0.1463946E+003  0.9027284E+02  0.7546771E-02  0.1302192E+00
         21   -1    0    0  505  501  0.00000000000E+00  0.00000000000E+00  0.10374968607E+03  0.10374968607E+03  0.00000000000E+00 0. -1.
         21   -1    0    0  506  502 -0.00000000000E+00 -0.00000000000E+00 -0.48798878609E+03  0.48798878609E+03  0.00000000000E+00 0. -1.
         21    1    1    2  503  502 -0.74604276768E-01  0.48009359178E+02 -0.98991800218E+02  0.11001945576E+03  0.00000000000E+00 0. -1.
         21    1    1    2  504  503 -0.87439055215E+02  0.95646046273E+02 -0.11786357245E+02  0.13012560379E+03  0.00000000000E+00 0. -1.
         21    1    1    2  505  504  0.70337652760E+02 -0.29062639328E+02 -0.29703060135E+02  0.81696353541E+02  0.00000000000E+00 0. -1.
         21    1    1    2  506  501  0.17176006732E+02 -0.11459276612E+03 -0.24375788242E+03  0.26989705907E+03  0.00000000000E+00 0. -1.
<scales pt_clust_3="48.00942" pt_clust_4="90.27284" pt_clust_5="73.71434" pt_clust_6="14000.00000"></scales>
<clustering>
<clus scale="   48.009">  2  3  1 -1</clus>
<clus scale="   73.714">  1  5  2 -1</clus>
<clus scale="   90.273">  1  4  2 -1</clus>
<clus scale="   73.714">  1  3  2 -1</clus>
</clustering>
</event>
<event>
 6    0  0.1463946E+003  0.9309330E+02  0.7546771E-02  0.1295529E+00
         21   -1    0    0  504  501  0.00000000000E+00  0.00000000000E+00  0.13744073510E+03  0.13744073510E+03  0.00000000000E+00 0. -1.
         21   -1    0    0  506  502 -0.00000000000E+00 -0.00000000000E+00 -0.18127634609E+04  0.18127634609E+04  0.00000000000E+00 0.  1.
         21    1    1    2  503  502  0.91949833368E+02 -0.49211695586E+01 -0.15707452561E+04  0.15734419752E+04  0.00000000000E+00 0.  1.
         21    1    1    2  504  505 -0.23470186345E+02 -0.41473255906E+02  0.89003705137E+02  0.10095811077E+03  0.00000000000E+00 0. -1.
         21    1    1    2  505  503  0.49230512685E+02  0.50124678374E+00 -0.11974264597E+03  0.12946889932E+03  0.00000000000E+00 0. -1.
         21    1    1    2  506  501 -0.11771015971E+03  0.45893178681E+02 -0.73838528854E+02  0.14633521070E+03  0.00000000000E+00 0. -1.
<scales pt_clust_3="93.09330" pt_clust_4="47.65376" pt_clust_5="46.73590" pt_clust_6="14000.00000"></scales>
<clustering>
<clus scale="   47.654">  1  4  2 -1</clus>
<clus scale="   46.736">  1  5  2 -1</clus>
<clus scale="   93.093">  2  3  1 -1</clus>
<clus scale="   47.654">  1  3  2 -1</clus>
</clustering>
</event>
<event>
 6    0  0.1463946E+003  0.8466230E+02  0.7546771E-02  0.1316318E+00
         21   -1    0    0  505  501  0.00000000000E+00  0.00000000000E+00  0.79956215959E+03  0.79956215959E+03  0.00000000000E+00 0. -1.
         21   -1    0    0  503  502 -0.00000000000E+00 -0.00000000000E+00 -0.12111312768E+04  0.12111312768E+04  0.00000000000E+00 0.  1.
         21    1    1    2  503  504  0.33769709588E+02  0.57141426304E+02 -0.98458654282E+03  0.98682125848E+03  0.00000000000E+00 0.  1.
         21    1    1    2  504  506 -0.24270583938E+02  0.92676246956E+02 -0.34084004363E+02  0.10168415485E+03  0.00000000000E+00 0.  1.
         21    1    1    2  505  502 -0.10368645136E+02 -0.11539242255E+03 -0.13579001379E+03  0.17849887347E+03  0.00000000000E+00 0.  1.
         21    1    1    2  506  501  0.86951948610E+00 -0.34425250708E+02  0.74289144378E+03  0.74368914958E+03  0.00000000000E+00 0. -1.
<scales pt_clust_3="65.79552" pt_clust_4="84.66230" pt_clust_5="14000.00000" pt_clust_6="34.43623"></scales>
<clustering>
<clus scale="   34.436">  1  6  2 -1</clus>
<clus scale="   65.796">  2  3  1 -1</clus>
<clus scale="   84.662">  1  4  2 -1</clus>
<clus scale="   34.436">  1  3  2 -1</clus>
</clustering>
</event>
<event>
 6    0  0.1463946E+003  0.9609307E+02  0.7546771E-02  0.1288733E+00
         21   -1    0    0  503  501  0.00000000000E+00  0.00000000000E+00  0.63792237167E+03  0.63792237167E+03  0.00000000000E+00 0.  1.
         21   -1    0    0  506  502 -0.00000000000E+00 -0.00000000000E+00 -0.20779582752E+03  0.20779582752E+03  0.00000000000E+00 0.  1.
         21    1    1    2  503  504  0.62473730587E+01  0.70012107896E+02 -0.12702873482E+02  0.71428901132E+02  0.00000000000E+00 0.  1.
         21    1    1    2  504  502  0.29184106475E+02  0.12357011979E+02 -0.45765368150E+01  0.32021125918E+02  0.00000000000E+00 0.  1.
         21    1    1    2  505  501  0.32843540889E+02  0.33815469645E+02  0.56284996075E+03  0.56482055777E+03  0.00000000000E+00 0.  1.
         21    1    1    2  506  505 -0.68275020422E+02 -0.11618458952E+03 -0.11544400630E+03  0.17744761437E+03  0.00000000000E+00 0.  1.
<scales pt_clust_3="96.09307" pt_clust_4="31.69239" pt_clust_5="47.29191" pt_clust_6="14000.00000"></scales>
<clustering>
<clus scale="   31.692">  2  4  1 -1</clus>
<clus scale="   47.292">  1  5  2 -1</clus>
<clus scale="   96.093">  1  3  2 -1</clus>
<clus scale="   47.292">  1  3  2 -1</clus>
</clustering>
</event>
<event>
 6    0  0.1463946E+003  0.8899934E+02  0.7546771E-02  0.1305293E+00
         21   -1    0    0  503  501  0.00000000000E+00  0.00000000000E+00  0.67094046133E+02  0.67094046133E+02  0.00000000000E+00 0.  1.
         21   -1    0    0  506  502 -0.00000000000E+00 -0.00000000000E+00 -0.12622245894E+04  0.12622245894E+04  0.00000000000E+00 0. -1.
         21    1    1    2  503  505  0.40001771927E+02  0.21399512171E+01  0.14090548571E+02  0.42464864389E+02  0.00000000000E+00 0.  1.
         21    1    1    2  504  502  0.24461740877E+02 -0.21008125806E+02 -0.10129307808E+04  0.10134438735E+04  0.00000000000E+00 0. -1.
         21    1    1    2  505  504 -0.68520649329E+02  0.92883379125E+02 -0.10732636961E+03  0.15761139272E+03  0.00000000000E+00 0.  1.
         21    1    1    2  506  501  0.40571365249E+01 -0.74015204536E+02 -0.88963941422E+02  0.11579850488E+03  0.00000000000E+00 0.  1.
<scales pt_clust_3="41.40605" pt_clust_4="32.24466" pt_clust_5="14000.00000" pt_clust_6="88.99934"></scales>
<clustering>
<clus scale="   32.245">  2  4  1 -1</clus>
<clus scale="   41.406">  1  3  2 -1</clus>
<clus scale="   88.999">  2  6  1 -1</clus>
<clus scale="   41.406">  1  3  2 -1</clus>
</clustering>
</event>
<event>
 6    0  0.1463946E+003  0.1072093E+03  0.7546771E-02  0.1265827E+00
         21   -1    0    0  505  501  0.00000000000E+00  0.00000000000E+00  0.21507940042E+03  0.21507940042E+03  0.00000000000E+00 0.  1.
         21   -1    0    0  503  502 -0.00000000000E+00 -0.00000000000E+00 -0.14612525135E+03  0.14612525135E+03  0.00000000000E+00 0.  1.
         21    1    1    2  503  504  0.86619874964E+02 -0.74326472498E+02 -0.63332194836E+02  0.13053119993E+03  0.00000000000E+00 0.  1.
         21    1    1    2  504  501 -0.30083657402E+02 -0.18117785425E+02  0.37685723835E+02  0.51512079869E+02  0.00000000000E+00 0.  1.
         21    1    1    2  505  506 -0.73838558653E+02  0.60922979190E+02  0.10464707968E+03  0.14182649055E+03  0.00000000000E+00 0.  1.
         21    1    1    2  506  502  0.17302341091E+02  0.31521278733E+02 -0.10046459601E+02  0.37334881421E+02  0.00000000000E+00 0.  1.
<scales pt_clust_3="14000.00000" pt_clust_4="35.11809" pt_clust_5="107.20932" pt_clust_6="33.55786"></scales>
<clustering>
<clus scale="   35.118">  1  4  2 -1</clus>
<clus scale="   33.558">  2  6  1 -1</clus>
<clus scale="  107.209">  1  5  2 -1</clus>
<clus scale="   35.118">  1  3  2 -1</clus>
</clustering>
</event>
<event>
 6    0  0.1463946E+003  0.1286965E+03  0.7546771E-02  0.1229403E+00
         21   -1    0    0  506  501  0.00000000000E+00  0.00000000000E+00  0.17392351838E+04  0.17392351838E+04  0.00000000000E+00 0.  1.
         21   -1    0    0  505  502 -0.00000000000E+00 -0.00000000000E+00 -0.33979968072E+02  0.33979968072E+02  0.00000000000E+00 0.  1.
         21    1    1    2  503  501 -0.89844001956E+02 -0.10909439286E+03  0.10284853369E+04  0.10381500948E+04  0.00000000000E+00 0.  1.
         21    1    1    2  504  502 -0.11253571233E+02 -0.29248277501E+02  0.72776452504E+02  0.79237091323E+02  0.00000000000E+00 0.  1.
         21    1    1    2  505  503  0.65398509007E+02  0.26034867162E+02  0.42769691798E+02  0.82365197899E+02  0.00000000000E+00 0.  1.
         21    1    1    2  506  504  0.35699064182E+02  0.11230780320E+03  0.56122373455E+03  0.57346276781E+03  0.00000000000E+00 0.  1.
<scales pt_clust_3="14000.00000" pt_clust_4="31.33855" pt_clust_5="58.59753" pt_clust_6="128.69652"></scales>
<clustering>
<clus scale="   31.339">  2  4  1 -1</clus>
<clus scale="   58.598">  2  5  1 -1</clus>
<clus scale="  128.697">  2  6  1 -1</clus>
<clus scale="  128.697">  1  3  2 -1</clus>
</clustering>
</event>
<event>
 6    0  0.1463946E+003  0.1223909E+03  0.7546771E-02  0.1239204E+00
         21   -1    0    0  503  501  0.00000000000E+00  0.00000000000E+00  0.35058912140E+03  0.35058912140E+03  0.00000000000E+00 0. -1.
         21   -1    0    0  506  502 -0.00000000000E+00 -0.00000000000E+00 -0.23467219476E+04  0.23467219476E+04  0.00000000000E+00 0. -1.
         21    1    1    2  503  505  0.31846249717E+02  0.22804378540E+02  0.12778339500E+03  0.13365185872E+03  0.00000000000E+00 0.  1.
         21    1    1    2  504  501 -0.42722265093E+02  0.10732228334E+03  0.91562363905E+02  0.14740057978E+03  0.00000000000E+00 0. -1.
         21    1    1    2  505  502 -0.23857503753E+02 -0.13518090614E+03  0.53266112462E+02  0.14724244159E+03  0.00000000000E+00 0. -1.
         21    1    1    2  506  504  0.34733519129E+02  0.50542442544E+01 -0.22687446976E+04  0.22690161889E+04  0.00000000000E+00 0. -1.
<scales pt_clust_3="40.34916" pt_clust_4="14000.00000" pt_clust_5="122.39085" pt_clust_6="35.09933"></scales>
<clustering>
<clus scale="   35.099">  2  6  1 -1</clus>
<clus scale="   40.349">  1  3  2 -1</clus>
<clus scale="  122.391">  2  5  1 -1</clus>
<clus scale="   40.349">  1  3  2 -1</clus>
</clustering>
</event>
<event>
 6    0  0.1463946E+003  0.5608974E+03  0.7546771E-02  0.9990026E-01
         21   -1    0    0  503  501  0.00000000000E+00  0.00000000000E+00  0.14421145904E+04  0.14421145904E+04  0.00000000000E+00 0.  1.
         21   -1    0    0  506  502 -0.00000000000E+00 -0.00000000000E+00 -0.24272996178E+04  0.24272996178E+04  0.00000000000E+00 0. -1.
         21    1    1    2  503  505  0.42796074957E+03  0.41643994762E+03  0.12906135116E+04  0.14220604310E+04  0.00000000000E+00 0.  1.
         21    1    1    2  504  501 -0.34517152557E+02 -0.21263765042E+02  0.13958573406E+02  0.42876838688E+02  0.00000000000E+00 0.  1.
         21    1    1    2  505  502  0.11262103417E+02  0.42385470200E+02 -0.78140101712E+03  0.78263076391E+03  0.00000000000E+00 0. -1.
         21    1    1    2  506  504 -0.40470570043E+03 -0.43756165278E+03 -0.15083560952E+04  0.16218461746E+04  0.00000000000E+00 0. -1.
<scales pt_clust_3="14000.00000" pt_clust_4="40.54111" pt_clust_5="43.84337" pt_clust_6="560.89743"></scales>
<clustering>
<clus scale="   40.541">  1  4  2 -1</clus>
<clus scale="   43.843">  2  5  1 -1</clus>
<clus scale="  560.897">  2  6  1 -1</clus>
<clus scale="   40.541">  1  3  2 -1</clus>
</clustering>
</event>
<event>
 6    0  0.1463946E+003  0.9644521E+02  0.7546771E-02  0.1287954E+00
         21   -1    0    0  505  501  0.00000000000E+00  0.00000000000E+00  0.39346656444E+03  0.39346656444E+03  0.00000000000E+00 0. -1.
         21   -1    0    0  506  502 -0.00000000000E+00 -0.00000000000E+00 -0.59486192370E+02  0.59486192370E+02  0.00000000000E+00 0. -1.
         21    1    1    2  503  502  0.46598364412E+02 -0.78644770300E+02  0.96531533639E+02  0.13294639690E+03  0.00000000000E+00 0. -1.
         21    1    1    2  504  501  0.32138702737E+02 -0.10792731098E+02  0.95944391912E+02  0.10175807387E+03  0.00000000000E+00 0. -1.
         21    1    1    2  505  503 -0.42320979136E+02 -0.38646321449E+01  0.10214934636E+03  0.11063674624E+03  0.00000000000E+00 0.  1.
         21    1    1    2  506  504 -0.36416088013E+02  0.93302133543E+02  0.39355100154E+02  0.10761153980E+03  0.00000000000E+00 0. -1.
<scales pt_clust_3="96.44521" pt_clust_4="33.90250" pt_clust_5="31.68052" pt_clust_6="14000.00000"></scales>
<clustering>
<clus scale="   33.902">  1  4  2 -1</clus>
<clus scale="   31.681">  1  5  2 -1</clus>
<clus scale="   96.445">  1  3  2 -1</clus>
<clus scale="   33.902">  1  3  2 -1</clus>
</clustering>
</event>
<event>
 6    0  0.1463946E+003  0.8124864E+02  0.7546771E-02  0.1325545E+00
         21   -1    0    0  506  501  0.00000000000E+00  0.00000000000E+00  0.41406603714E+03  0.41406603714E+03  0.00000000000E+00 0.  1.
         21   -1    0    0  505  502 -0.00000000000E+00 -0.00000000000E+00 -0.59590021603E+03  0.59590021603E+03  0.00000000000E+00 0. -1.
         21    1    1    2  503  502 -0.99042279350E+02 -0.55125521460E+02  0.26547110521E+03  0.28865741618E+03  0.00000000000E+00 0.  1.
         21    1    1    2  504  501  0.96133521083E+02 -0.36007764611E+01 -0.96567659406E+02  0.13630822539E+03  0.00000000000E+00 0. -1.
         21    1    1    2  505  504 -0.20776237272E+02  0.23282124280E+02 -0.46344831489E+03  0.46449763177E+03  0.00000000000E+00 0. -1.
         21    1    1    2  506  503  0.23684995539E+02  0.35444173642E+02  0.11271069021E+03  0.12050297983E+03  0.00000000000E+00 0. -1.
<scales pt_clust_3="81.24864" pt_clust_4="14000.00000" pt_clust_5="31.20432" pt_clust_6="42.86950"></scales>
<clustering>
<clus scale="   31.204">  2  5  1 -1</clus>
<clus scale="   42.870">  1  6  2 -1</clus>
<clus scale="   81.249">  1  3  2 -1</clus>
<clus scale="   42.870">  1  3  2 -1</clus>
</clustering>
</event>
<event>
 6    0  0.1463946E+003  0.7606527E+02  0.7546771E-02  0.1340604E+00
         21   -1    0    0  506  501  0.00000000000E+00  0.00000000000E+00  0.21868650642E+04  0.21868650642E+04  0.00000000000E+00 0.  1.
         21   -1    0    0  505  502 -0.00000000000E+00 -0.00000000000E+00 -0.38069945267E+02  0.38069945267E+02  0.00000000000E+00 0.  1.
         21    1    1    2  503  502  0.18251071923E+02  0.10653656669E+03  0.18767693165E+03  0.21657740497E+03  0.00000000000E+00 0.  1.
         21    1    1    2  504  501 -0.40136832785E+02  0.69091826636E+01  0.45354567014E+03  0.45537059309E+03  0.00000000000E+00 0.  1.
         21    1    1    2  505  504 -0.17996035751E+02 -0.35524250073E+02 -0.29487997196E+01  0.39931504678E+02  0.00000000000E+00 0.  1.
         21    1    1    2  506  503  0.39881796613E+02 -0.77921499279E+02  0.15105213169E+04  0.15130555067E+04  0.00000000000E+00 0.  1.
<scales pt_clust_3="76.06527" pt_clust_4="41.42229" pt_clust_5="39.82248" pt_clust_6="14000.00000"></scales>
<clustering>
<clus scale="   39.822">  2  5  1 -1</clus>
<clus scale="   41.422">  1  4  2 -1</clus>
<clus scale="   76.065">  2  3  1 -1</clus>
<clus scale="   41.422">  1  3  2 -1</clus>
</clustering>
</event>
<event>
 6    0  0.1463946E+003  0.1015171E+03  0.7546771E-02  0.1277138E+00
         21   -1    0    0  503  501  0.00000000000E+00  0.00000000000E+00  0.12514984318E+04  0.12514984318E+04  0.00000000000E+00 0.  1.
         21   -1    0    0  506  502 -0.00000000000E+00 -0.00000000000E+00 -0.14112662044E+03  0.14112662044E+03  0.00000000000E+00 0. -1.
         21    1    1    2  503  505  0.12247405284E+02 -0.48438970376E+02  0.96470653181E+02  0.10864124315E+03  0.00000000000E+00 0.  1.
         21    1    1    2  504  501 -0.33502177643E+02 -0.29071903498E+02  0.59048993594E+02  0.73853606035E+02  0.00000000000E+00 0. -1.
         21    1    1    2  505  502  0.12210305432E+03  0.68760229288E+02  0.10570424443E+04  0.10662906987E+04  0.00000000000E+00 0.  1.
         21    1    1    2  506  504 -0.10084828196E+03  0.87506445863E+01 -0.10219027972E+03  0.14383950440E+03  0.00000000000E+00 0. -1.
<scales pt_clust_3="51.80529" pt_clust_4="44.35732" pt_clust_5="101.51707" pt_clust_6="14000.00000"></scales>
<clustering>
<clus scale="   44.357">  1  4  2 -1</clus>
<clus scale="   51.805">  1  3  2 -1</clus>
<clus scale="  101.517">  1  5  2 -1</clus>
<clus scale="   44.357">  1  3  2 -1</clus>
</clustering>
</event>
<event>
 6    0  0.1463946E+003  0.1311706E+03  0.7546771E-02  0.1225729E+00
         21   -1    0    0  504  501  0.00000000000E+00  0.00000000000E+00  0.22188653412E+03  0.22188653412E+03  0.00000000000E+00 0. -1.
         21   -1    0    0  506  502 -0.00000000000E+00 -0.00000000000E+00 -0.94827537064E+03  0.94827537064E+03  0.00000000000E+00 0. -1.
         21    1    1    2  503  501  0.11300778774E+02  0.33496706597E+02  0.15329308804E+03  0.15731658461E+03  0.00000000000E+00 0. -1.
         21    1    1    2  504  502 -0.82548738534E+02 -0.11491694226E+03 -0.76392543666E+03  0.77691844529E+03  0.00000000000E+00 0. -1.
         21    1    1    2  505  503  0.33086163191E+02  0.95173259704E+02  0.12384541913E+02  0.10151857188E+03  0.00000000000E+00 0. -1.
         21    1    1    2  506  505  0.38161796569E+02 -0.13753024041E+02 -0.12814102981E+03  0.13440830297E+03  0.00000000000E+00 0.  1.
<scales pt_clust_3="35.35162" pt_clust_4="14000.00000" pt_clust_5="131.17065" pt_clust_6="40.56436"></scales>
<clustering>
<clus scale="   35.352">  1  3  2 -1</clus>
<clus scale="   40.564">  2  6  1 -1</clus>
<clus scale="  131.171">  1  5  2 -1</clus>
<clus scale="   35.352">  1  3  2 -1</clus>
</clustering>
</event>
<event>
 6    0  0.1463946E+003  0.1087335E+03  0.7546771E-02  0.1262933E+00
         21   -1    0    0  504  501  0.00000000000E+00  0.00000000000E+00  0.27000448068E+03  0.27000448068E+03  0.00000000000E+00 0. -1.
         21   -1    0    0  505  502 -0.00000000000E+00 -0.00000000000E+00 -0.24563616040E+03  0.24563616040E+03  0.00000000000E+00 0.  1.
         21    1    1    2  503  501  0.56517611684E+02  0.58437078557E+02  0.20061053475E+03  0.21645719954E+03  0.00000000000E+00 0. -1.
         21    1    1    2  504  506  0.37859435892E+02  0.24303279952E+02  0.16540748979E+02  0.47933106297E+02  0.00000000000E+00 0. -1.
         21    1    1    2  505  503 -0.16807874270E+02 -0.81646147479E+02 -0.10594848043E+03  0.13480978652E+03  0.00000000000E+00 0.  1.
         21    1    1    2  506  502 -0.77569173306E+02 -0.10942110304E+01 -0.86834483016E+02  0.11644054872E+03  0.00000000000E+00 0.  1.
<scales pt_clust_3="14000.00000" pt_clust_4="44.98874" pt_clust_5="108.73354" pt_clust_6="75.21327"></scales>
<clustering>
<clus scale="   44.989">  1  4  2 -1</clus>
<clus scale="   75.213">  2  6  1 -1</clus>
<clus scale="  108.734">  2  5  1 -1</clus>
<clus scale="   44.989">  1  3  2 -1</clus>
</clustering>
</event>
<event>
 6    0  0.1463946E+003  0.9658266E+02  0.7546771E-02  0.1287651E+00
         21   -1    0    0  504  501  0.00000000000E+00  0.00000000000E+00  0.44833712100E+03  0.44833712100E+03  0.00000000000E+00 0.  1.
         21   -1    0    0  505  502 -0.00000000000E+00 -0.00000000000E+00 -0.54401386183E+03  0.54401386183E+03  0.00000000000E+00 0. -1.
         21    1    1    2  503  502  0.32172749690E+02  0.63131793568E+02 -0.48048411415E+03  0.48568064933E+03  0.00000000000E+00 0. -1.
         21    1    1    2  504  503 -0.16172079498E+02 -0.82417064928E+02  0.22423354785E+03  0.23944684740E+03  0.00000000000E+00 0.  1.
         21    1    1    2  505  506  0.79701395195E+02 -0.83416523866E+01  0.22464964236E+01  0.80168212570E+02  0.00000000000E+00 0.  1.
         21    1    1    2  506  501 -0.95702065387E+02  0.27626923747E+02  0.15832732905E+03  0.18705527354E+03  0.00000000000E+00 0. -1.
<scales pt_clust_3="70.85696" pt_clust_4="75.52043" pt_clust_5="96.58266" pt_clust_6="14000.00000"></scales>
<clustering>
<clus scale="   70.857">  2  3  1 -1</clus>
<clus scale="   75.520">  1  4  2 -1</clus>
<clus scale="   96.583">  2  5  1 -1</clus>
<clus scale="   75.520">  1  3  2 -1</clus>
</clustering>
</event>
<event>
 6    0  0.1463946E+003  0.1190446E+03  0.7546771E-02  0.1244682E+00
         21   -1    0    0  504  501  0.00000000000E+00  0.00000000000E+00  0.70022439802E+03  0.70022439802E+03  0.00000000000E+00 0.  1.
         21   -1    0    0  503  502 -0.00000000000E+00 -0.00000000000E+00 -0.28733059079E+02  0.28733059079E+02  0.00000000000E+00 0.  1.
         21    1    1    2  503  505 -0.11266842851E+02  0.54027999437E+02  0.11243041131E+03  0.12524601335E+03  0.00000000000E+00 0.  1.
         21    1    1    2  504  506  0.82900107016E+02 -0.92285105019E+02  0.41605159170E+03  0.43415192653E+03  0.00000000000E+00 0.  1.
         21    1    1    2  505  501 -0.41164611313E+02  0.29301916083E+02  0.12040893674E+03  0.13058116081E+03  0.00000000000E+00 0.  1.
         21    1    1    2  506  502 -0.30468652853E+02  0.89551894991E+01  0.22600399186E+02  0.38978356417E+02  0.00000000000E+00 0.  1.
<scales pt_clust_3="38.43501" pt_clust_4="112.38843" pt_clust_5="38.43501" pt_clust_6="31.75743"></scales>
<clustering>
<clus scale="   31.757">  2  6  1 -1</clus>
<clus scale="   38.435">  3  5 -1 -1</clus>
<clus scale="  112.388">  1  4  2 -1</clus>
<clus scale="  112.388">  1  3  2 -1</clus>
</clustering>
</event>
<event>
 6    0  0.1463946E+003  0.7935582E+02  0.7546771E-02  0.1330890E+00
         21   -1    0    0  506  501  0.00000000000E+00  0.00000000000E+00  0.12989349685E+04  0.12989349685E+04  0.00000000000E+00 0. -1.
         21   -1    0    0  503  502 -0.00000000000E+00 -0.00000000000E+00 -0.29534074786E+03  0.29534074786E+03  0.00000000000E+00 0. -1.
         21    1    1    2  503  504 -0.25907648314E+02 -0.18573112069E+02 -0.22568044207E+03  0.22792066309E+03  0.00000000000E+00 0. -1.
         21    1    1    2  504  505 -0.37291615557E+02  0.86892344995E+01  0.63827999599E+02  0.74432391604E+02  0.00000000000E+00 0. -1.
         21    1    1    2  505  501 -0.68211280998E+02  0.38443307513E+02  0.11543336641E+04  0.11569861170E+04  0.00000000000E+00 0. -1.
         21    1    1    2  506  502  0.13141054487E+03 -0.28559429944E+02  0.11112998957E+02  0.13493654467E+03  0.00000000000E+00 0. -1.
<scales pt_clust_3="31.87737" pt_clust_4="39.95945" pt_clust_5="79.35582" pt_clust_6="14000.00000"></scales>
<clustering>
<clus scale="   31.877">  2  3  1 -1</clus>
<clus scale="   39.959">  2  4  1 -1</clus>
<clus scale="   79.356">  1  5  2 -1</clus>
<clus scale="   79.356">  1  3  2 -1</clus>
</clustering>
</event>
<event>
 6    0  0.1463946E+003  0.5877685E+02  0.7546771E-02  0.1403038E+00
         21   -1    0    0  503  501  0.00000000000E+00  0.00000000000E+00  0.15970929482E+03  0.15970929482E+03  0.00000000000E+00 0. -1.
         21   -1    0    0  506  502 -0.00000000000E+00 -0.00000000000E+00 -0.14815816665E+03  0.14815816665E+03  0.00000000000E+00 0. -1.
         21    1    1    2  503  504  0.64785781388E+01  0.88999981402E+02  0.18616306054E+01  0.89254884083E+02  0.00000000000E+00 0. -1.
         21    1    1    2  504  502  0.42347750587E+02  0.17491092439E+02 -0.14154775447E+02  0.47954436317E+02  0.00000000000E+00 0. -1.
         21    1    1    2  505  501 -0.18163257870E+02 -0.50016369997E+02  0.72586540322E+02  0.90001927980E+02  0.00000000000E+00 0. -1.
         21    1    1    2  506  505 -0.30663070856E+02 -0.56474703844E+02 -0.48742267307E+02  0.80656213095E+02  0.00000000000E+00 0. -1.
<scales pt_clust_3="14000.00000" pt_clust_4="45.81779" pt_clust_5="58.77685" pt_clust_6="47.37152"></scales>
<clustering>
<clus scale="   45.818">  2  4  1 -1</clus>
<clus scale="   47.372">  2  6  1 -1</clus>
<clus scale="   58.777">  1  5  2 -1</clus>
<clus scale="   58.777">  1  3  2 -1</clus>
</clustering>
</event>
<event>
 6    0  0.1463946E+003  0.8014774E+02  0.7546771E-02  0.1328633E+00
         21   -1    0    0  506  501  0.00000000000E+00  0.00000000000E+00  0.60954909748E+03  0.60954909748E+03  0.00000000000E+00 0.  1.
         21   -1    0    0  504  502 -0.00000000000E+00 -0.00000000000E+00 -0.68338419261E+02  0.68338419261E+02  0.00000000000E+00 0.  1.
         21    1    1    2  503  502  0.49429690173E+02  0.39219696300E+02  0.98389598346E+02  0.11688452383E+03  0.00000000000E+00 0.  1.
         21    1    1    2  504  505 -0.41950871586E+02 -0.76584212222E+02 -0.15284304446E+02  0.88648898193E+02  0.00000000000E+00 0.  1.
         21    1    1    2  505  501  0.14938735576E+02 -0.28253099127E+02  0.57438004599E+02  0.65730721913E+02  0.00000000000E+00 0. -1.
         21    1    1    2  506  503 -0.22417554162E+02  0.65617615049E+02  0.40066737972E+03  0.40662337281E+03  0.00000000000E+00 0.  1.
<scales pt_clust_3="80.14774" pt_clust_4="14000.00000" pt_clust_5="31.95940" pt_clust_6="46.23643"></scales>
<clustering>
<clus scale="   31.959">  1  5  2 -1</clus>
<clus scale="   46.236">  1  6  2 -1</clus>
<clus scale="   80.148">  1  3  2 -1</clus>
<clus scale="   31.959">  1  3  2 -1</clus>
</clustering>
</event>
<event>
 6    0  0.1463946E+003  0.1089344E+03  0.7546771E-02  0.1262556E+00
         21   -1    0    0  505  501  0.00000000000E+00  0.00000000000E+00  0.34668317778E+03  0.34668317778E+03  0.00000000000E+00 0. -1.
         21   -1    0    0  504  502 -0.00000000000E+00 -0.00000000000E+00 -0.14475196843E+03  0.14475196843E+03  0.00000000000E+00 0. -1.
         21    1    1    2  503  502  0.49176546875E+02  0.77359883375E+02  0.49240287273E+02  0.10405522673E+03  0.00000000000E+00 0. -1.
         21    1    1    2  504  506 -0.31221549687E+02 -0.11290004422E+03 -0.79901876220E+02  0.14179391727E+03  0.00000000000E+00 0. -1.
         21    1    1    2  505  503 -0.35977798929E+02  0.20465118919E+01  0.71546517943E+02  0.80109265734E+02  0.00000000000E+00 0. -1.
         21    1    1    2  506  501  0.18022801741E+02  0.33493648956E+02  0.16104628036E+03  0.16547673649E+03  0.00000000000E+00 0. -1.
<scales pt_clust_3="108.93437" pt_clust_4="14000.00000" pt_clust_5="36.03596" pt_clust_6="34.91989"></scales>
<clustering>
<clus scale="   36.036">  1  5  2 -1</clus>
<clus scale="   34.920">  1  6  2 -1</clus>
<clus scale="  108.934">  1  3  2 -1</clus>
<clus scale="   36.036">  1  3  2 -1</clus>
</clustering>
</event>
<event>
 6    0  0.1463946E+003  0.9982096E+02  0.7546771E-02  0.1280673E+00
         21   -1    0    0  503  501  0.00000000000E+00  0.00000000000E+00  0.81221439383E+02  0.81221439383E+02  0.00000000000E+00 0. -1.
         21   -1    0    0  504  502 -0.00000000000E+00 -0.00000000000E+00 -0.22111019780E+04  0.22111019780E+04  0.00000000000E+00 0.  1.
         21    1    1    2  503  505 -0.95480882953E+02 -0.63994181334E+02 -0.11947235171E+02  0.11556206420E+03  0.00000000000E+00 0. -1.
         21    1    1    2  504  506 -0.27455164959E+02  0.20021147510E+02 -0.23641889322E+03  0.23884833159E+03  0.00000000000E+00 0. -1.
         21    1    1    2  505  502  0.27907088543E+02  0.59289831789E+02 -0.18252371432E+04  0.18264130745E+04  0.00000000000E+00 0.  1.
         21    1    1    2  506  501  0.95028959369E+02 -0.15316797965E+02 -0.56277267005E+02  0.11149994709E+03  0.00000000000E+00 0. -1.
<scales pt_clust_3="99.82096" pt_clust_4="33.97988" pt_clust_5="77.85346" pt_clust_6="14000.00000"></scales>
<clustering>
<clus scale="   33.980">  2  4  1 -1</clus>
<clus scale="   77.853">  2  5  1 -1</clus>
<clus scale="   99.821">  1  3  2 -1</clus>
<clus scale="   99.821">  1  3  2 -1</clus>
</clustering>
</event>
<event>
 6    0  0.1463946E+003  0.2210494E+03  0.7546771E-02  0.1133103E+00
         21   -1    0    0  505  501  0.00000000000E+00  0.00000000000E+00  0.18480282450E+03  0.18480282450E+03  0.00000000000E+00 0. -1.
         21   -1    0    0  504  502 -0.00000000000E+00 -0.00000000000E+00 -0.19312374037E+04  0.19312374037E+04  0.00000000000E+00 0. -1.
         21    1    1    2  503  501  0.10437299275E+03 -0.23999701071E+03 -0.20848927801E+03  0.33460434219E+03  0.00000000000E+00 0. -1.
         21    1    1    2  504  503 -0.19646730162E+02  0.83699265852E+02 -0.14277988299E+04  0.14303849341E+04  0.00000000000E+00 0. -1.
         21    1    1    2  505  506 -0.80683716053E+02  0.19109727664E+03  0.27290140168E+02  0.20921946116E+03  0.00000000000E+00 0. -1.
         21    1    1    2  506  502 -0.40425465321E+01 -0.34799531780E+02 -0.13743661141E+03  0.14183149069E+03  0.00000000000E+00 0. -1.
<scales pt_clust_3="221.04935" pt_clust_4="60.43589" pt_clust_5="14000.00000" pt_clust_6="35.03355"></scales>
<clustering>
<clus scale="   35.034">  2  6  1 -1</clus>
<clus scale="   60.436">  2  4  1 -1</clus>
<clus scale="  221.049">  2  3  1 -1</clus>
<clus scale="  221.049">  1  3  2 -1</clus>
</clustering>
</event>
<event>
 6    0  0.1463946E+003  0.7947722E+02  0.7546771E-02  0.1330542E+00
         21   -1    0    0  506  501  0.00000000000E+00  0.00000000000E+00  0.23544921326E+04  0.23544921326E+04  0.00000000000E+00 0. -1.
         21   -1    0    0  505  502 -0.00000000000E+00 -0.00000000000E+00 -0.88981044941E+02  0.88981044941E+02  0.00000000000E+00 0.  1.
         21    1    1    2  503  501 -0.76141320405E+02 -0.10473719946E+02  0.12333488163E+04  0.12357412764E+04  0.00000000000E+00 0. -1.
         21    1    1    2  504  502  0.78239954600E+02 -0.31702898367E+02  0.12953520419E+03  0.15461543709E+03  0.00000000000E+00 0.  1.
         21    1    1    2  505  503 -0.19319524060E+02 -0.27397357882E+02 -0.70125627888E+02  0.77726848100E+02  0.00000000000E+00 0.  1.
         21    1    1    2  506  504  0.17220889865E+02  0.69573976195E+02  0.97275269505E+03  0.97538961597E+03  0.00000000000E+00 0. -1.
<scales pt_clust_3="79.47722" pt_clust_4="14000.00000" pt_clust_5="33.52401" pt_clust_6="68.94616"></scales>
<clustering>
<clus scale="   33.524">  2  5  1 -1</clus>
<clus scale="   68.946">  1  6  2 -1</clus>
<clus scale="   79.477">  1  3  2 -1</clus>
<clus scale="   68.946">  1  3  2 -1</clus>
</clustering>
</event>
<event>
 6    0  0.1463946E+003  0.1325586E+03  0.7546771E-02  0.1223708E+00
         21   -1    0    0  503  501  0.00000000000E+00  0.00000000000E+00  0.39354616851E+02  0.39354616851E+02  0.00000000000E+00 0.  1.
         21   -1    0    0  504  502 -0.00000000000E+00 -0.00000000000E+00 -0.16258540058E+04  0.16258540058E+04  0.00000000000E+00 0. -1.
         21    1    1    2  503  506 -0.14704601901E+02 -0.65157223769E+02 -0.13115348381E+03  0.14718330558E+03  0.00000000000E+00 0. -1.
         21    1    1    2  504  501  0.15318494418E+03 -0.67053291891E+02 -0.90440543223E+03  0.91973417732E+03  0.00000000000E+00 0. -1.
         21    1    1    2  505  502 -0.31766075348E+02  0.54437451897E+02 -0.36400382540E+03  0.36942022767E+03  0.00000000000E+00 0. -1.
         21    1    1    2  506  505 -0.10671426693E+03  0.77773063763E+02 -0.18693664752E+03  0.22887091209E+03  0.00000000000E+00 0.  1.
<scales pt_clust_3="61.88215" pt_clust_4="14000.00000" pt_clust_5="63.02793" pt_clust_6="132.55862"></scales>
<clustering>
<clus scale="   63.028">  2  5  1 -1</clus>
<clus scale="   61.882">  1  3  2 -1</clus>
<clus scale="  132.559">  1  6  2 -1</clus>
<clus scale="   61.882">  1  3  2 -1</clus>
</clustering>
</event>
<event>
 6    0  0.1463946E+003  0.9433507E+02  0.7546771E-02  0.1292681E+00
         21   -1    0    0  504  501  0.00000000000E+00  0.00000000000E+00  0.15417207218E+03  0.15417207218E+03  0.00000000000E+00 0.  1.
         21   -1    0    0  506  502 -0.00000000000E+00 -0.00000000000E+00 -0.20528685276E+03  0.20528685276E+03  0.00000000000E+00 0.  1.
         21    1    1    2  503  502  0.10356216522E+03  0.12964175004E+02 -0.13612126093E+01  0.10437933128E+03  0.00000000000E+00 0.  1.
         21    1    1    2  504  503 -0.83177206054E+02  0.48649887745E+02  0.43103978752E+02  0.10556141420E+03  0.00000000000E+00 0.  1.
         21    1    1    2  505  501  0.15251341884E+02 -0.40202807882E+02  0.49105207161E+01  0.43277966734E+02  0.00000000000E+00 0. -1.
         21    1    1    2  506  505 -0.35636301051E+02 -0.21411254867E+02 -0.97768067437E+02  0.10624021272E+03  0.00000000000E+00 0.  1.
<scales pt_clust_3="14000.00000" pt_clust_4="94.33507" pt_clust_5="45.01516" pt_clust_6="41.57388"></scales>
<clustering>
<clus scale="   41.574">  2  6  1 -1</clus>
<clus scale="   45.015">  2  5  1 -1</clus>
<clus scale="   94.335">  1  4  2 -1</clus>
<clus scale="   94.335">  1  3  2 -1</clus>
</clustering>
</event>
<event>
 6    0  0.1463946E+003  0.1885684E+03  0.7546771E-02  0.1159759E+00
         21   -1    0    0  503  501  0.00000000000E+00  0.00000000000E+00  0.54256243176E+03  0.54256243176E+03  0.00000000000E+00 0. -1.
         21   -1    0    0  506  502 -0.00000000000E+00 -0.00000000000E+00 -0.35955347391E+03  0.35955347391E+03  0.00000000000E+00 0. -1.
         21    1    1    2  503  502  0.80014483340E-02 -0.36954404555E+02  0.40217089305E+03  0.40386514494E+03  0.00000000000E+00 0. -1.
         21    1    1    2  504  505  0.11264514836E+03  0.16790542842E+03 -0.19185741702E+03  0.27873003212E+03  0.00000000000E+00 0. -1.
         21    1    1    2  505  501 -0.83665840495E+02 -0.14367304001E+03  0.14718141515E+02  0.16690877442E+03  0.00000000000E+00 0. -1.
         21    1    1    2  506  504 -0.28987309314E+02  0.12722016139E+02 -0.42022659693E+02  0.52611954189E+02  0.00000000000E+00 0. -1.
<scales pt_clust_3="36.91996" pt_clust_4="188.56838" pt_clust_5="14000.00000" pt_clust_6="31.65618"></scales>
<clustering>
<clus scale="   31.656">  2  6  1 -1</clus>
<clus scale="   36.920">  1  3  2 -1</clus>
<clus scale="  188.568">  2  4  1 -1</clus>
<clus scale="   36.920">  1  3  2 -1</clus>
</clustering>
</event>
<event>
 6    0  0.1463946E+003  0.9883513E+02  0.7546771E-02  0.1282765E+00
         21   -1    0    0  505  501  0.00000000000E+00  0.00000000000E+00  0.10544688729E+03  0.10544688729E+03  0.00000000000E+00 0. -1.
         21   -1    0    0  503  502 -0.00000000000E+00 -0.00000000000E+00 -0.15417818252E+04  0.15417818252E+04  0.00000000000E+00 0. -1.
         21    1    1    2  503  506 -0.31048402702E+02 -0.15992536568E+02 -0.49308818300E+03  0.49432349807E+03  0.00000000000E+00 0. -1.
         21    1    1    2  504  501  0.11409947236E+03 -0.41328564962E+02  0.51671317593E+02  0.13189641745E+03  0.00000000000E+00 0. -1.
         21    1    1    2  505  502 -0.25461756673E+02  0.30887807831E+02 -0.21324213608E+02  0.45355041743E+02  0.00000000000E+00 0. -1.
         21    1    1    2  506  504 -0.57589312989E+02  0.26433293699E+02 -0.97359385888E+03  0.97565375520E+03  0.00000000000E+00 0. -1.
<scales pt_clust_3="30.71134" pt_clust_4="89.76148" pt_clust_5="40.02946" pt_clust_6="30.71134"></scales>
<clustering>
<clus scale="   30.711">  3  6 -1 -1</clus>
<clus scale="   40.029">  1  5  2 -1</clus>
<clus scale="   89.761">  1  4  2 -1</clus>
<clus scale="   40.029">  1  3  2 -1</clus>
</clustering>
</event>
<event>
 6    0  0.1463946E+003  0.1372172E+03  0.7546771E-02  0.1217123E+00
         21   -1    0    0  505  501  0.00000000000E+00  0.00000000000E+00  0.22894877061E+03  0.22894877061E+03  0.00000000000E+00 0. -1.
         21   -1    0    0  503  502 -0.00000000000E+00 -0.00000000000E+00 -0.59425009203E+03  0.59425009203E+03  0.00000000000E+00 0.  1.
         21    1    1    2  503  501  0.37954756018E+02  0.69390893361E+01 -0.48705154952E+02  0.62136193833E+02  0.00000000000E+00 0.  1.
         21    1    1    2  504  502  0.63792208946E+02  0.74306009081E+02 -0.51214382234E+03  0.52142317139E+03  0.00000000000E+00 0.  1.
         21    1    1    2  505  506 -0.62251896347E+02 -0.30616666170E+02  0.69606859809E+02  0.98274074804E+02  0.00000000000E+00 0. -1.
         21    1    1    2  506  504 -0.39495068617E+02 -0.50628432247E+02  0.12594079606E+03  0.14136542261E+03  0.00000000000E+00 0. -1.
<scales pt_clust_3="38.58386" pt_clust_4="128.81601" pt_clust_5="45.66282" pt_clust_6="45.66282"></scales>
<clustering>
<clus scale="   38.584">  2  3  1 -1</clus>
<clus scale="   45.663">  5  6 -1 -1</clus>
<clus scale="  128.816">  2  4  1 -1</clus>
<clus scale="  137.217">  1  3  2 -1</clus>
</clustering>
</event>
<event>
 6    0  0.1463946E+003  0.1437716E+03  0.7546771E-02  0.1208342E+00
         21   -1    0    0  503  501  0.00000000000E+00  0.00000000000E+00  0.59143034487E+03  0.59143034487E+03  0.00000000000E+00 0. -1.
         21   -1    0    0  506  502 -0.00000000000E+00 -0.00000000000E+00 -0.61477251415E+02  0.61477251415E+02  0.00000000000E+00 0.  1.
         21    1    1    2  503  504  0.32456071850E+02  0.24186325153E+02  0.14573454447E+03  0.15125122273E+03  0.00000000000E+00 0. -1.
         21    1    1    2  504  505  0.86196771265E+02 -0.57956334629E+01  0.23375679763E+03  0.24921017872E+03  0.00000000000E+00 0. -1.
         21    1    1    2  505  502 -0.12686939271E+03 -0.67139607388E+02  0.74254833548E+02  0.16160863217E+03  0.00000000000E+00 0.  1.
         21    1    1    2  506  501  0.82165495919E+01  0.48748915697E+02  0.76206917809E+02  0.90837562665E+02  0.00000000000E+00 0.  1.
<scales pt_clust_3="30.14049" pt_clust_4="30.14049" pt_clust_5="136.86245" pt_clust_6="49.43651"></scales>
<clustering>
<clus scale="   30.140">  3  4 -1 -1</clus>
<clus scale="   49.437">  1  6  2 -1</clus>
<clus scale="  136.862">  2  5  1 -1</clus>
<clus scale="   49.437">  1  3  2 -1</clus>
</clustering>
</event>
<event>
 6    0  0.1463946E+003  0.1753570E+03  0.7546771E-02  0.1172374E+00
         21   -1    0    0  503  501  0.00000000000E+00  0.00000000000E+00  0.84302392130E+03  0.84302392130E+03  0.00000000000E+00 0.  1.
         21   -1    0    0  505  502 -0.00000000000E+00 -0.00000000000E+00 -0.18879465599E+03  0.18879465599E+03  0.00000000000E+00 0.  1.
         21    1    1    2  503  504  0.18319993604E+03 -0.56846765265E+02  0.42675776378E+03  0.46788455866E+03  0.00000000000E+00 0.  1.
         21    1    1    2  504  502  0.24814615173E+02 -0.43992382694E+02 -0.10810553917E+03  0.11932268209E+03  0.00000000000E+00 0.  1.
         21    1    1    2  505  506 -0.55617930016E+02  0.49923941287E+02  0.24718928520E+01  0.74778769094E+02  0.00000000000E+00 0.  1.
         21    1    1    2  506  501 -0.15239662120E+03  0.50915206672E+02  0.33310514785E+03  0.36983256745E+03  0.00000000000E+00 0.  1.
<scales pt_clust_3="14000.00000" pt_clust_4="50.50836" pt_clust_5="52.27798" pt_clust_6="175.35699"></scales>
<clustering>
<clus scale="   50.508">  2  4  1 -1</clus>
<clus scale="   52.278">  2  5  1 -1</clus>
<clus scale="  175.357">  1  6  2 -1</clus>
<clus scale="  175.357">  1  3  2 -1</clus>
</clustering>
</event>
<event>
 6    0  0.1463946E+003  0.1199128E+03  0.7546771E-02  0.1243241E+00
         21   -1    0    0  506  501  0.00000000000E+00  0.00000000000E+00  0.20373093401E+04  0.20373093401E+04  0.00000000000E+00 0. -1.
         21   -1    0    0  505  502 -0.00000000000E+00 -0.00000000000E+00 -0.13127701917E+03  0.13127701917E+03  0.00000000000E+00 0.  1.
         21    1    1    2  503  504  0.90361607804E+02 -0.68372394166E+02 -0.10930913230E+01  0.11331901560E+03  0.00000000000E+00 0.  1.
         21    1    1    2  504  501 -0.86163650375E+02  0.83746741799E+02  0.19196682223E+04  0.19234250115E+04  0.00000000000E+00 0. -1.
         21    1    1    2  505  503 -0.23081053685E+02 -0.57337621089E+02 -0.44201456515E+02  0.75987542331E+02  0.00000000000E+00 0.  1.
         21    1    1    2  506  502  0.18883096257E+02  0.41963273457E+02  0.31658646455E+02  0.55854789757E+02  0.00000000000E+00 0.  1.
<scales pt_clust_3="119.91280" pt_clust_4="14000.00000" pt_clust_5="38.63572" pt_clust_6="46.01617"></scales>
<clustering>
<clus scale="   46.016">  2  6  1 -1</clus>
<clus scale="   38.636">  2  5  1 -1</clus>
<clus scale="  119.913">  2  3  1 -1</clus>
<clus scale="  119.913">  1  3  2 -1</clus>
</clustering>
</event>
<event>
 6    0  0.1463946E+003  0.9026489E+02  0.7546771E-02  0.1302211E+00
         21   -1    0    0  505  501  0.00000000000E+00  0.00000000000E+00  0.61844545971E+03  0.61844545971E+03  0.00000000000E+00 0.  1.
         21   -1    0    0  504  502 -0.00000000000E+00 -0.00000000000E+00 -0.18889042329E+03  0.18889042329E+03  0.00000000000E+00 0.  1.
         21    1    1    2  503  501  0.32214962560E+02  0.52458586025E+01  0.26243404378E+03  0.26445595130E+03  0.00000000000E+00 0.  1.
         21    1    1    2  504  503 -0.82082047970E+02  0.18696403831E+01 -0.12059067611E+03  0.14588718010E+03  0.00000000000E+00 0.  1.
         21    1    1    2  505  506  0.26912348052E+02  0.74856520394E+02  0.30055525969E+03  0.31090390356E+03  0.00000000000E+00 0.  1.
         21    1    1    2  506  502  0.22954737358E+02 -0.81972019379E+02 -0.12843590940E+02  0.86088848038E+02  0.00000000000E+00 0. -1.
<scales pt_clust_3="32.63928" pt_clust_4="80.96039" pt_clust_5="14000.00000" pt_clust_6="90.26489"></scales>
<clustering>
<clus scale="   32.639">  1  3  2 -1</clus>
<clus scale="   80.960">  2  4  1 -1</clus>
<clus scale="   90.265">  2  6  1 -1</clus>
<clus scale="   32.639">  1  3  2 -1</clus>
</clustering>
</event>
<event>
 6    0  0.1463946E+003  0.1697995E+03  0.7546771E-02  0.1178057E+00
         21   -1    0    0  504  501  0.00000000000E+00  0.00000000000E+00  0.27298447886E+03  0.27298447886E+03  0.00000000000E+00 0.  1.
         21   -1    0    0  501  502 -0.00000000000E+00 -0.00000000000E+00 -0.50676219361E+03  0.50676219361E+03  0.00000000000E+00 0.  1.
         21    1    1    2  503  502 -0.11440964408E+03  0.89148337857E+02 -0.13355749996E+03  0.19716642360E+03  0.00000000000E+00 0.  1.
         21    1    1    2  504  506 -0.26770371067E+02  0.61205697379E+02  0.10443740973E+03  0.12397565370E+03  0.00000000000E+00 0.  1.
         21    1    1    2  505  503 -0.72842902124E+02 -0.14873631063E+03 -0.17765598874E+03  0.24287904155E+03  0.00000000000E+00 0.  1.
         21    1    1    2  506  505  0.21402291727E+03 -0.16177246055E+01 -0.27001635783E+02  0.21572555362E+03  0.00000000000E+00 0.  1.
<scales pt_clust_3="156.93619" pt_clust_4="66.80412" pt_clust_5="14000.00000" pt_clust_6="169.79952"></scales>
<clustering>
<clus scale="   66.804">  1  4  2 -1</clus>
<clus scale="  156.936">  2  3  1 -1</clus>
<clus scale="  169.800">  1  6  2 -1</clus>
<clus scale="   66.804">  1  3  2 -1</clus>
</clustering>
</event>
<event>
 6    0  0.1463946E+003  0.1048926E+03  0.7546771E-02  0.1270331E+00
         21   -1    0    0  505  501  0.00000000000E+00  0.00000000000E+00  0.66009040167E+03  0.66009040167E+03  0.00000000000E+00 0.  1.
         21   -1    0    0  504  502 -0.00000000000E+00 -0.00000000000E+00 -0.13899254307E+04  0.13899254307E+04  0.00000000000E+00 0. -1.
         21    1    1    2  503  502  0.34860746767E+02 -0.16760876152E+02 -0.68793233487E+03  0.68901893733E+03  0.00000000000E+00 0. -1.
         21    1    1    2  504  506 -0.13067354916E+02  0.56077247645E+02 -0.65787248811E+03  0.66038748025E+03  0.00000000000E+00 0. -1.
         21    1    1    2  505  503 -0.65626791177E+02  0.59261407254E+02  0.14577996339E+02  0.89617565729E+02  0.00000000000E+00 0. -1.
         21    1    1    2  506  501  0.43833399326E+02 -0.98577778747E+02  0.60139179762E+03  0.61099184905E+03  0.00000000000E+00 0.  1.
<scales pt_clust_3="38.68073" pt_clust_4="44.87780" pt_clust_5="14000.00000" pt_clust_6="104.89258"></scales>
<clustering>
<clus scale="   38.681">  2  3  1 -1</clus>
<clus scale="   44.878">  2  4  1 -1</clus>
<clus scale="  104.893">  1  6  2 -1</clus>
<clus scale="  104.893">  1  3  2 -1</clus>
</clustering>
</event>
<event>
 6    0  0.1463946E+003  0.8730458E+02  0.7546771E-02  0.1309513E+00
         21   -1    0    0  505  501  0.00000000000E+00  0.00000000000E+00  0.11617048637E+04  0.11617048637E+04  0.00000000000E+00 0.  1.
         21   -1    0    0  506  502 -0.00000000000E+00 -0.00000000000E+00 -0.49866618623E+02  0.49866618623E+02  0.00000000000E+00 0.  1.
         21    1    1    2  503  501 -0.69467811666E+02 -0.36815627856E+02  0.13064441256E+03  0.15247665345E+03  0.00000000000E+00 0. -1.
         21    1    1    2  504  502  0.84961015150E+02  0.18305480730E+02  0.31598314044E+03  0.32771757621E+03  0.00000000000E+00 0.  1.
         21    1    1    2  505  504  0.34444610257E+02  0.68379716045E+01  0.67768816551E+03  0.67859740546E+03  0.00000000000E+00 0.  1.
         21    1    1    2  506  503 -0.49937813742E+02  0.11672175521E+02 -0.12477473466E+02  0.52779847165E+02  0.00000000000E+00 0.  1.
<scales pt_clust_3="87.30458" pt_clust_4="14000.00000" pt_clust_5="35.11679" pt_clust_6="49.95456"></scales>
<clustering>
<clus scale="   35.117">  1  5  2 -1</clus>
<clus scale="   49.955">  2  6  1 -1</clus>
<clus scale="   87.305">  1  3  2 -1</clus>
<clus scale="   35.117">  1  3  2 -1</clus>
</clustering>
</event>
<event>
 6    0  0.1463946E+003  0.7329048E+02  0.7546771E-02  0.1349248E+00
         21   -1    0    0  503  501  0.00000000000E+00  0.00000000000E+00  0.23579522589E+03  0.23579522589E+03  0.00000000000E+00 0. -1.
         21   -1    0    0  506  502 -0.00000000000E+00 -0.00000000000E+00 -0.22326086733E+04  0.22326086733E+04  0.00000000000E+00 0.  1.
         21    1    1    2  503  504  0.69278032832E+02  0.23983916875E+02  0.22057958644E+03  0.23244360188E+03  0.00000000000E+00 0. -1.
         21    1    1    2  504  502 -0.83079946062E+02  0.36512739176E+02 -0.18152719288E+04  0.18175388945E+04  0.00000000000E+00 0.  1.
         21    1    1    2  505  501 -0.23862159717E+02 -0.45749938479E+02 -0.34256025225E+03  0.34642457470E+03  0.00000000000E+00 0.  1.
         21    1    1    2  506  505  0.37664072947E+02 -0.14746717572E+02 -0.59560852792E+02  0.71996828093E+02  0.00000000000E+00 0. -1.
<scales pt_clust_3="14000.00000" pt_clust_4="73.29048" pt_clust_5="51.30848" pt_clust_6="40.44809"></scales>
<clustering>
<clus scale="   40.448">  2  6  1 -1</clus>
<clus scale="   51.308">  2  5  1 -1</clus>
<clus scale="   73.290">  2  4  1 -1</clus>
<clus scale="   73.290">  1  3  2 -1</clus>
</clustering>
</event>
<event>
 6    0  0.1463946E+003  0.8374394E+02  0.7546771E-02  0.1318750E+00
         21   -1    0    0  504  501  0.00000000000E+00  0.00000000000E+00  0.67952384642E+03  0.67952384642E+03  0.00000000000E+00 0.  1.
         21   -1    0    0  503  502 -0.00000000000E+00 -0.00000000000E+00 -0.10486638771E+03  0.10486638771E+03  0.00000000000E+00 0.  1.
         21    1    1    2  503  506 -0.45092886461E+02 -0.12943841513E+02 -0.10183331025E+02  0.48006371173E+02  0.00000000000E+00 0.  1.
         21    1    1    2  504  505  0.11241500362E+03  0.86372734856E+02  0.22375453695E+03  0.26488388998E+03  0.00000000000E+00 0.  1.
         21    1    1    2  505  502 -0.46440901133E+01 -0.33481084228E+02 -0.46335294116E+02  0.57354250539E+02  0.00000000000E+00 0.  1.
         21    1    1    2  506  501 -0.62678027046E+02 -0.39947809115E+02  0.40742154690E+03  0.41414572243E+03  0.00000000000E+00 0.  1.
<scales pt_clust_3="57.01218" pt_clust_4="83.74394" pt_clust_5="33.80164" pt_clust_6="14000.00000"></scales>
<clustering>
<clus scale="   33.802">  2  5  1 -1</clus>
<clus scale="   57.012">  2  3  1 -1</clus>
<clus scale="   83.744">  2  4  1 -1</clus>
<clus scale="   83.744">  1  3  2 -1</clus>
</clustering>
</event>
<event>
 6    0  0.1463946E+003  0.7276803E+02  0.7546771E-02  0.1350925E+00
         21   -1    0    0  506  501  0.00000000000E+00  0.00000000000E+00  0.23387075997E+04  0.23387075997E+04  0.00000000000E+00 0. -1.
         21   -1    0    0  504  502 -0.00000000000E+00 -0.00000000000E+00 -0.41603660430E+02  0.41603660430E+02  0.00000000000E+00 0.  1.
         21    1    1    2  503  502  0.21230279475E+02 -0.63571992083E+02  0.28671730992E+02  0.72898498627E+02  0.00000000000E+00 0.  1.
         21    1    1    2  504  501 -0.65951497922E+02  0.67297320898E+02  0.11767551679E+03  0.15075163923E+03  0.00000000000E+00 0.  1.
         21    1    1    2  505  503  0.23096148998E+02 -0.41983933276E+02  0.20962106566E+03  0.21502807705E+03  0.00000000000E+00 0.  1.
         21    1    1    2  506  505  0.21625069449E+02  0.38258604461E+02  0.19411356259E+04  0.19416330453E+04  0.00000000000E+00 0. -1.
<scales pt_clust_3="72.76803" pt_clust_4="14000.00000" pt_clust_5="40.80088" pt_clust_6="43.94729"></scales>
<clustering>
<clus scale="   43.947">  1  6  2 -1</clus>
<clus scale="   40.801">  1  5  2 -1</clus>
<clus scale="   72.768">  2  3  1 -1</clus>
<clus scale="   43.947">  1  3  2 -1</clus>
</clustering>
</event>
<event>
 6    0  0.1463946E+003  0.7661294E+02  0.7546771E-02  0.1338948E+00
         21   -1    0    0  504  501  0.00000000000E+00  0.00000000000E+00  0.13391097306E+03  0.13391097306E+03  0.00000000000E+00 0.  1.
         21   -1    0    0  506  502 -0.00000000000E+00 -0.00000000000E+00 -0.52820880868E+03  0.52820880868E+03  0.00000000000E+00 0.  1.
         21    1    1    2  503  502  0.33665212365E+02  0.47997590957E+02 -0.33425924132E+03  0.33936168857E+03  0.00000000000E+00 0.  1.
         21    1    1    2  504  505  0.11547801218E+02  0.54651154769E+02  0.69428499378E+02  0.89109017257E+02  0.00000000000E+00 0.  1.
         21    1    1    2  505  503 -0.65567066556E+02  0.14280708160E+02 -0.15007592197E+02  0.68761956530E+02  0.00000000000E+00 0.  1.
         21    1    1    2  506  501  0.20354052974E+02 -0.11692945389E+03 -0.11445950148E+03  0.16488711938E+03  0.00000000000E+00 0.  1.
<scales pt_clust_3="61.03412" pt_clust_4="55.85786" pt_clust_5="76.61294" pt_clust_6="14000.00000"></scales>
<clustering>
<clus scale="   55.858">  1  4  2 -1</clus>
<clus scale="   61.034">  2  3  1 -1</clus>
<clus scale="   76.613">  1  5  2 -1</clus>
<clus scale="   55.858">  1  3  2 -1</clus>
</clustering>
</event>
<event>
 6    0  0.1463946E+003  0.9625548E+02  0.7546771E-02  0.1288373E+00
         21   -1    0    0  503  501  0.00000000000E+00  0.00000000000E+00  0.35696365249E+03  0.35696365249E+03  0.00000000000E+00 0.  1.
         21   -1    0    0  504  502 -0.00000000000E+00 -0.00000000000E+00 -0.48998116459E+03  0.48998116459E+03  0.00000000000E+00 0.  1.
         21    1    1    2  503  506 -0.70900259428E+02 -0.41242966372E+02  0.28443400497E+03  0.29602454670E+03  0.00000000000E+00 0.  1.
         21    1    1    2  504  505  0.10103771312E+03  0.92752075639E+02 -0.35280660123E+03  0.37852881644E+03  0.00000000000E+00 0.  1.
         21    1    1    2  505  501  0.68355811579E+01 -0.29968668256E+02  0.45111722648E+02  0.54588586418E+02  0.00000000000E+00 0.  1.
         21    1    1    2  506  502 -0.36973034847E+02 -0.21540441010E+02 -0.10975663849E+03  0.11780286752E+03  0.00000000000E+00 0. -1.
<scales pt_clust_3="14000.00000" pt_clust_4="96.25548" pt_clust_5="30.73835" pt_clust_6="42.91211"></scales>
<clustering>
<clus scale="   30.738">  1  5  2 -1</clus>
<clus scale="   42.912">  2  6  1 -1</clus>
<clus scale="   96.255">  2  4  1 -1</clus>
<clus scale="   30.738">  1  3  2 -1</clus>
</clustering>
</event>
<event>
 6    0  0.1463946E+003  0.8724293E+02  0.7546771E-02  0.1309669E+00
         21   -1    0    0  506  501  0.00000000000E+00  0.00000000000E+00  0.71944274375E+02  0.71944274375E+02  0.00000000000E+00 0. -1.
         21   -1    0    0  504  502 -0.00000000000E+00 -0.00000000000E+00 -0.30725745682E+03  0.30725745682E+03  0.00000000000E+00 0.  1.
         21    1    1    2  503  502 -0.18319031648E+02 -0.72708668504E+02 -0.11660466225E+03  0.13863183132E+03  0.00000000000E+00 0.  1.
         21    1    1    2  504  505  0.17546677585E+02  0.11758096844E+03 -0.97649984617E+02  0.15384631789E+03  0.00000000000E+00 0. -1.
         21    1    1    2  505  501  0.31069498318E+02 -0.14539227749E+02 -0.26716788009E+02  0.43479761163E+02  0.00000000000E+00 0. -1.
         21    1    1    2  506  503 -0.30297144255E+02 -0.30333072185E+02  0.56582524359E+01  0.43243820817E+02  0.00000000000E+00 0. -1.
<scales pt_clust_3="87.24293" pt_clust_4="14000.00000" pt_clust_5="34.30310" pt_clust_6="40.33895"></scales>
<clustering>
<clus scale="   34.303">  1  5  2 -1</clus>
<clus scale="   40.339">  1  6  2 -1</clus>
<clus scale="   87.243">  2  3  1 -1</clus>
<clus scale="   34.303">  1  3  2 -1</clus>
</clustering>
</event>
<event>
 6    0  0.1463946E+003  0.1525027E+03  0.7546771E-02  0.1197431E+00
         21   -1    0    0  506  501  0.00000000000E+00  0.00000000000E+00  0.13024875072E+04  0.13024875072E+04  0.00000000000E+00 0. -1.
         21   -1    0    0  505  502 -0.00000000000E+00 -0.00000000000E+00 -0.78902426548E+02  0.78902426548E+02  0.00000000000E+00 0. -1.
         21    1    1    2  503  504 -0.11133870363E+02  0.11103073645E+03  0.26461011706E+03  0.28717642933E+03  0.00000000000E+00 0. -1.
         21    1    1    2  504  502 -0.30123303436E+02  0.59083265992E+02 -0.11322278661E+02  0.67278820771E+02  0.00000000000E+00 0. -1.
         21    1    1    2  505  501  0.52363629069E+02 -0.20811982460E+03  0.38884141710E+03  0.44413225361E+03  0.00000000000E+00 0. -1.
         21    1    1    2  506  503 -0.11106455269E+02  0.38005822158E+02  0.58145582513E+03  0.58280243003E+03  0.00000000000E+00 0. -1.
<scales pt_clust_3="152.50266" pt_clust_4="67.83087" pt_clust_5="14000.00000" pt_clust_6="39.59540"></scales>
<clustering>
<clus scale="   39.595">  1  6  2 -1</clus>
<clus scale="   67.831">  2  4  1 -1</clus>
<clus scale="  152.503">  1  3  2 -1</clus>
<clus scale="   39.595">  1  3  2 -1</clus>
</clustering>
</event>
<event>
 6    0  0.1463946E+003  0.1091121E+03  0.7546771E-02  0.1262223E+00
         21   -1    0    0  505  501  0.00000000000E+00  0.00000000000E+00  0.65275496335E+03  0.65275496335E+03  0.00000000000E+00 0.  1.
         21   -1    0    0  504  502 -0.00000000000E+00 -0.00000000000E+00 -0.19910291476E+03  0.19910291476E+03  0.00000000000E+00 0.  1.
         21    1    1    2  503  502  0.35868796229E+02 -0.41639817931E+02 -0.28293899835E+02  0.61814154917E+02  0.00000000000E+00 0.  1.
         21    1    1    2  504  506  0.28586246901E+02 -0.57144205976E+02 -0.12982614577E+03  0.14469782968E+03  0.00000000000E+00 0.  1.
         21    1    1    2  505  503  0.49265061087E+02  0.64919163224E+02  0.32353899433E+03  0.33364505818E+03  0.00000000000E+00 0.  1.
         21    1    1    2  506  501 -0.11372010422E+03  0.33864860683E+02  0.28823309987E+03  0.31170083534E+03  0.00000000000E+00 0.  1.
<scales pt_clust_3="54.95858" pt_clust_4="14000.00000" pt_clust_5="81.13803" pt_clust_6="109.11214"></scales>
<clustering>
<clus scale="   54.959">  2  3  1 -1</clus>
<clus scale="   81.138">  1  5  2 -1</clus>
<clus scale="  109.112">  1  6  2 -1</clus>
<clus scale="   81.138">  1  3  2 -1</clus>
</clustering>
</event>
<event>
 6    0  0.1463946E+003  0.1006407E+03  0.7546771E-02  0.1278954E+00
         21   -1    0    0  505  501  0.00000000000E+00  0.00000000000E+00  0.21241815154E+02  0.21241815154E+02  0.00000000000E+00 0.  1.
         21   -1    0    0  503  502 -0.00000000000E+00 -0.00000000000E+00 -0.15127288072E+04  0.15127288072E+04  0.00000000000E+00 0.  1.
         21    1    1    2  503  504 -0.49279272918E+02  0.76857689935E+01 -0.53298937323E+03  0.53531783995E+03  0.00000000000E+00 0.  1.
         21    1    1    2  504  501 -0.24849932631E+02 -0.11269406402E+03 -0.24368954875E+03  0.26963320899E+03  0.00000000000E+00 0.  1.
         21    1    1    2  505  506  0.33889931673E+02  0.14760710099E+02 -0.10636597073E+03  0.11260606450E+03  0.00000000000E+00 0.  1.
         21    1    1    2  506  502  0.40239273877E+02  0.90247584932E+02 -0.60844209928E+03  0.61641350887E+03  0.00000000000E+00 0.  1.
<scales pt_clust_3="47.88681" pt_clust_4="100.64072" pt_clust_5="36.96493" pt_clust_6="14000.00000"></scales>
<clustering>
<clus scale="   36.965">  1  5  2 -1</clus>
<clus scale="   47.887">  2  3  1 -1</clus>
<clus scale="  100.641">  1  4  2 -1</clus>
<clus scale="   36.965">  1  3  2 -1</clus>
</clustering>
</event>
<event>
 6    0  0.1463946E+003  0.1365271E+03  0.7546771E-02  0.1218080E+00
         21   -1    0    0  506  501  0.00000000000E+00  0.00000000000E+00  0.10058232396E+03  0.10058232396E+03  0.00000000000E+00 0. -1.
         21   -1    0    0  505  502 -0.00000000000E+00 -0.00000000000E+00 -0.15784651092E+04  0.15784651092E+04  0.00000000000E+00 0. -1.
         21    1    1    2  503  502 -0.14052538129E+03 -0.11891798003E+03 -0.29758725811E+03  0.34992434175E+03  0.00000000000E+00 0. -1.
         21    1    1    2  504  501  0.11100610883E+03  0.11238201945E+03 -0.56178815072E+03  0.58357347505E+03  0.00000000000E+00 0. -1.
         21    1    1    2  505  504 -0.42622292818E+02 -0.45488423926E+02 -0.64864913452E+03  0.65163759581E+03  0.00000000000E+00 0.  1.
         21    1    1    2  506  503  0.72141565281E+02  0.52024384511E+02  0.30141758103E+02  0.93912020564E+02  0.00000000000E+00 0. -1.
<scales pt_clust_3="14000.00000" pt_clust_4="136.52712" pt_clust_5="62.33664" pt_clust_6="86.84318"></scales>
<clustering>
<clus scale="   62.337">  2  5  1 -1</clus>
<clus scale="   86.843">  1  6  2 -1</clus>
<clus scale="  136.527">  2  4  1 -1</clus>
<clus scale="   86.843">  1  3  2 -1</clus>
</clustering>
</event>
<event>
 6    0  0.1463946E+003  0.1558738E+03  0.7546771E-02  0.1193435E+00
         21   -1    0    0  503  501  0.00000000000E+00  0.00000000000E+00  0.25678386947E+03  0.25678386947E+03  0.00000000000E+00 0.  1.
         21   -1    0    0  506  502 -0.00000000000E+00 -0.00000000000E+00 -0.41923037079E+03  0.41923037079E+03  0.00000000000E+00 0. -1.
         21    1    1    2  503  504 -0.10527412254E+03  0.22283337100E+02 -0.78206436701E+02  0.13302418852E+03  0.00000000000E+00 0. -1.
         21    1    1    2  504  502 -0.66855950377E+02 -0.61362658730E+02 -0.21652322595E+03  0.23477095511E+03  0.00000000000E+00 0. -1.
         21    1    1    2  505  501  0.17244549465E+03  0.60920008476E+01  0.18055662422E+03  0.24975038668E+03  0.00000000000E+00 0.  1.
         21    1    1    2  506  505 -0.31542172849E+00  0.32987320782E+02 -0.48273462889E+02  0.58468709944E+02  0.00000000000E+00 0. -1.
<scales pt_clust_3="14000.00000" pt_clust_4="78.60151" pt_clust_5="155.87384" pt_clust_6="32.98883"></scales>
<clustering>
<clus scale="   32.989">  2  6  1 -1</clus>
<clus scale="   78.602">  2  4  1 -1</clus>
<clus scale="  155.874">  1  5  2 -1</clus>
<clus scale="  155.874">  1  3  2 -1</clus>
</clustering>
</event>
<event>
 6    0  0.1463946E+003  0.1118739E+03  0.7546771E-02  0.1257139E+00
         21   -1    0    0  506  501  0.00000000000E+00  0.00000000000E+00  0.64640781931E+03  0.64640781931E+03  0.00000000000E+00 0. -1.
         21   -1    0    0  504  502 -0.00000000000E+00 -0.00000000000E+00 -0.18901413731E+03  0.18901413731E+03  0.00000000000E+00 0.  1.
         21    1    1    2  503  501  0.97890605191E+02  0.11461007128E+03  0.25213121451E+03  0.29374851209E+03  0.00000000000E+00 0. -1.
         21    1    1    2  504  503 -0.11326810099E+02 -0.61593014176E+02 -0.59992628075E+02  0.86724341714E+02  0.00000000000E+00 0.  1.
         21    1    1    2  505  502 -0.21640765003E+02  0.21801882700E+02 -0.85302016446E+02  0.90664650272E+02  0.00000000000E+00 0.  1.
         21    1    1    2  506  505 -0.64923030089E+02 -0.74818939806E+02  0.35055711201E+03  0.36428445255E+03  0.00000000000E+00 0. -1.
<scales pt_clust_3="111.87388" pt_clust_4="53.15442" pt_clust_5="30.71880" pt_clust_6="14000.00000"></scales>
<clustering>
<clus scale="   30.719">  2  5  1 -1</clus>
<clus scale="   53.154">  2  4  1 -1</clus>
<clus scale="  111.874">  2  3  1 -1</clus>
<clus scale="  111.874">  1  3  2 -1</clus>
</clustering>
</event>
<event>
 6    0  0.1463946E+003  0.1853819E+03  0.7546771E-02  0.1162694E+00
         21   -1    0    0  503  501  0.00000000000E+00  0.00000000000E+00  0.37793587905E+02  0.37793587905E+02  0.00000000000E+00 0. -1.
         21   -1    0    0  504  502 -0.00000000000E+00 -0.00000000000E+00 -0.21968901887E+04  0.21968901887E+04  0.00000000000E+00 0. -1.
         21    1    1    2  503  502 -0.17071187432E+03  0.15096793307E+02 -0.44793398855E+03  0.47959911937E+03  0.00000000000E+00 0. -1.
         21    1    1    2  504  506  0.92209356514E+02  0.45528405036E+02 -0.11131703998E+04  0.11179104348E+04  0.00000000000E+00 0. -1.
         21    1    1    2  505  501 -0.32068226994E+01 -0.62024892856E+02 -0.41461442467E+02  0.74675446146E+02  0.00000000000E+00 0. -1.
         21    1    1    2  506  505  0.81709340503E+02  0.13996945136E+01 -0.55653076997E+03  0.56249877635E+03  0.00000000000E+00 0.  1.
<scales pt_clust_3="175.90706" pt_clust_4="52.15634" pt_clust_5="62.10774" pt_clust_6="52.15634"></scales>
<clustering>
<clus scale="   52.156">  4  6 -1 -1</clus>
<clus scale="   62.108">  1  5  2 -1</clus>
<clus scale="  175.907">  1  3  2 -1</clus>
<clus scale="   62.108">  1  3  2 -1</clus>
</clustering>
</event>
<event>
 6    0  0.1463946E+003  0.1503491E+03  0.7546771E-02  0.1200045E+00
         21   -1    0    0  504  501  0.00000000000E+00  0.00000000000E+00  0.40476256216E+02  0.40476256216E+02  0.00000000000E+00 0. -1.
         21   -1    0    0  503  502 -0.00000000000E+00 -0.00000000000E+00 -0.13574440285E+04  0.13574440285E+04  0.00000000000E+00 0. -1.
         21    1    1    2  503  506  0.31120788847E+02  0.50028228943E+01 -0.14472262211E+03  0.14811539112E+03  0.00000000000E+00 0.  1.
         21    1    1    2  504  502 -0.16321759089E+03  0.48405296276E+02 -0.87911761151E+03  0.89545007094E+03  0.00000000000E+00 0. -1.
         21    1    1    2  505  501  0.10474727698E+02  0.32873227741E+02 -0.12737098414E+02  0.36777747327E+02  0.00000000000E+00 0. -1.
         21    1    1    2  506  505  0.12162207435E+03 -0.86281346911E+02 -0.28039044029E+03  0.31757707537E+03  0.00000000000E+00 0. -1.
<scales pt_clust_3="31.52034" pt_clust_4="150.34910" pt_clust_5="34.79708" pt_clust_6="14000.00000"></scales>
<clustering>
<clus scale="   31.520">  2  3  1 -1</clus>
<clus scale="   34.797">  1  5  2 -1</clus>
<clus scale="  150.349">  2  4  1 -1</clus>
<clus scale="   34.797">  1  3  2 -1</clus>
</clustering>
</event>
<event>
 6    0  0.1463946E+003  0.1298863E+03  0.7546771E-02  0.1227624E+00
         21   -1    0    0  504  501  0.00000000000E+00  0.00000000000E+00  0.96991761914E+03  0.96991761914E+03  0.00000000000E+00 0.  1.
         21   -1    0    0  506  502 -0.00000000000E+00 -0.00000000000E+00 -0.34130411741E+02  0.34130411741E+02  0.00000000000E+00 0.  1.
         21    1    1    2  503  502 -0.29979952454E+02 -0.23612212524E+02  0.31029282986E+02  0.49184860801E+02  0.00000000000E+00 0.  1.
         21    1    1    2  504  505 -0.52841920485E+02  0.56375401941E+02  0.23682023864E+03  0.24910696484E+03  0.00000000000E+00 0.  1.
         21    1    1    2  505  503 -0.53841193551E+01 -0.96158308544E+02  0.16351064686E+03  0.18976601561E+03  0.00000000000E+00 0.  1.
         21    1    1    2  506  501  0.88205992294E+02  0.63395119128E+02  0.50442703892E+03  0.51599018963E+03  0.00000000000E+00 0.  1.
<scales pt_clust_3="38.06217" pt_clust_4="77.26872" pt_clust_5="38.06217" pt_clust_6="114.95356"></scales>
<clustering>
<clus scale="   38.062">  3  5 -1 -1</clus>
<clus scale="   77.269">  1  4  2 -1</clus>
<clus scale="  114.954">  1  6  2 -1</clus>
<clus scale="   77.269">  1  3  2 -1</clus>
</clustering>
</event>
<event>
 6    0  0.1463946E+003  0.2346272E+03  0.7546771E-02  0.1123425E+00
         21   -1    0    0  506  501  0.00000000000E+00  0.00000000000E+00  0.16062450576E+03  0.16062450576E+03  0.00000000000E+00 0. -1.
         21   -1    0    0  505  502 -0.00000000000E+00 -0.00000000000E+00 -0.81515128687E+03  0.81515128687E+03  0.00000000000E+00 0. -1.
         21    1    1    2  503  501  0.27942254929E+01  0.16597378685E+03 -0.48742948961E+03  0.51492000637E+03  0.00000000000E+00 0. -1.
         21    1    1    2  504  503 -0.22748657297E+02  0.52501997411E+02 -0.82258956313E+02  0.10020228059E+03  0.00000000000E+00 0.  1.
         21    1    1    2  505  504 -0.53864244309E+02 -0.75219198605E+01 -0.12247719816E+03  0.13400970175E+03  0.00000000000E+00 0. -1.
         21    1    1    2  506  502  0.73818676113E+02 -0.21095386440E+03  0.37638862977E+02  0.22664380392E+03  0.00000000000E+00 0. -1.
<scales pt_clust_3="44.32821" pt_clust_4="44.32821" pt_clust_5="54.38691" pt_clust_6="222.14694"></scales>
<clustering>
<clus scale="   44.328">  3  4 -1 -1</clus>
<clus scale="   54.387">  2  5  1 -1</clus>
<clus scale="  222.147">  1  6  2 -1</clus>
<clus scale="  222.147">  1  3  2 -1</clus>
</clustering>
</event>
<event>
 6    0  0.1463946E+003  0.9485525E+02  0.7546771E-02  0.1291502E+00
         21   -1    0    0  503  501  0.00000000000E+00  0.00000000000E+00  0.74809761400E+03  0.74809761400E+03  0.00000000000E+00 0.  1.
         21   -1    0    0  506  502 -0.00000000000E+00 -0.00000000000E+00 -0.11138026862E+03  0.11138026862E+03  0.00000000000E+00 0. -1.
         21    1    1    2  503  504  0.83165691283E+02  0.45441199448E+02  0.54466349587E+03  0.55284695762E+03  0.00000000000E+00 0.  1.
         21    1    1    2  504  505 -0.96945152912E+01  0.75957887886E+02  0.48436517899E+02  0.90607287924E+02  0.00000000000E+00 0. -1.
         21    1    1    2  505  502 -0.42558209387E+02  0.10670280209E+02 -0.37724989366E+02  0.57863899701E+02  0.00000000000E+00 0. -1.
         21    1    1    2  506  501 -0.30912966604E+02 -0.13206936754E+03  0.81342320977E+02  0.15815973738E+03  0.00000000000E+00 0. -1.
<scales pt_clust_3="94.85525" pt_clust_4="82.98447" pt_clust_5="43.87546" pt_clust_6="14000.00000"></scales>
<clustering>
<clus scale="   43.875">  2  5  1 -1</clus>
<clus scale="   82.984">  2  4  1 -1</clus>
<clus scale="   94.855">  1  3  2 -1</clus>
<clus scale="   94.855">  1  3  2 -1</clus>
</clustering>
</event>
<event>
 6    0  0.1463946E+003  0.9851218E+02  0.7546771E-02  0.1283456E+00
         21   -1    0    0  504  501  0.00000000000E+00  0.00000000000E+00  0.77976969885E+02  0.77976969885E+02  0.00000000000E+00 0.  1.
         21   -1    0    0  503  502 -0.00000000000E+00 -0.00000000000E+00 -0.42806152950E+03  0.42806152950E+03  0.00000000000E+00 0.  1.
         21    1    1    2  503  505  0.15533632282E+02  0.59403654521E+02 -0.75041367824E+02  0.96960274274E+02  0.00000000000E+00 0.  1.
         21    1    1    2  504  506  0.24727013231E+02 -0.27166127498E+02 -0.18521117714E+02  0.41139463632E+02  0.00000000000E+00 0. -1.
         21    1    1    2  505  501 -0.10787227859E+03  0.50670220545E+02 -0.38772900958E+02  0.12532851865E+03  0.00000000000E+00 0.  1.
         21    1    1    2  506  502  0.67611633072E+02 -0.82907747568E+02 -0.21774917312E+03  0.24261024283E+03  0.00000000000E+00 0.  1.
<scales pt_clust_3="58.32895" pt_clust_4="36.73450" pt_clust_5="98.51218" pt_clust_6="14000.00000"></scales>
<clustering>
<clus scale="   36.735">  1  4  2 -1</clus>
<clus scale="   58.329">  2  3  1 -1</clus>
<clus scale="   98.512">  1  5  2 -1</clus>
<clus scale="   36.735">  1  3  2 -1</clus>
</clustering>
</event>
<event>
 6    0  0.1463946E+003  0.1263859E+03  0.7546771E-02  0.1232919E+00
         21   -1    0    0  504  501  0.00000000000E+00  0.00000000000E+00  0.81677495089E+03  0.81677495089E+03  0.00000000000E+00 0. -1.
         21   -1    0    0  505  502 -0.00000000000E+00 -0.00000000000E+00 -0.57886059879E+03  0.57886059879E+03  0.00000000000E+00 0. -1.
         21    1    1    2  503  501 -0.52952825093E+02  0.61376324234E+01  0.21461295126E+03  0.22113432810E+03  0.00000000000E+00 0.  1.
         21    1    1    2  504  506  0.63427172434E+02 -0.13322376919E+03  0.57498517393E+03  0.59361564090E+03  0.00000000000E+00 0. -1.
         21    1    1    2  505  503 -0.11870409577E+02  0.60784175295E+02 -0.65287916993E+02  0.89989636598E+02  0.00000000000E+00 0.  1.
         21    1    1    2  506  502  0.13960622356E+01  0.66301961474E+02 -0.48639585610E+03  0.49089594408E+03  0.00000000000E+00 0. -1.
<scales pt_clust_3="53.30734" pt_clust_4="126.38588" pt_clust_5="62.27475" pt_clust_6="14000.00000"></scales>
<clustering>
<clus scale="   53.307">  1  3  2 -1</clus>
<clus scale="   62.275">  2  5  1 -1</clus>
<clus scale="  126.386">  1  4  2 -1</clus>
<clus scale="   53.307">  1  3  2 -1</clus>
</clustering>
</event>
<event>
 6    0  0.1463946E+003  0.9183541E+02  0.7546771E-02  0.1298467E+00
         21   -1    0    0  506  501  0.00000000000E+00  0.00000000000E+00  0.96442471798E+02  0.96442471798E+02  0.00000000000E+00 0. -1.
         21   -1    0    0  504  502 -0.00000000000E+00 -0.00000000000E+00 -0.95661654774E+03  0.95661654774E+03  0.00000000000E+00 0.  1.
         21    1    1    2  503  501 -0.18847839026E+02  0.58421539286E+02 -0.14197238770E+02  0.63006974829E+02  0.00000000000E+00 0.  1.
         21    1    1    2  504  503 -0.61720728472E+02 -0.57968185422E+02 -0.35495420772E+03  0.36491402881E+03  0.00000000000E+00 0.  1.
         21    1    1    2  505  502  0.99201024553E+02  0.30067435567E+02 -0.54808280805E+03  0.55779894087E+03  0.00000000000E+00 0.  1.
         21    1    1    2  506  505 -0.18632457055E+02 -0.30520789430E+02  0.57060178602E+02  0.67339075027E+02  0.00000000000E+00 0. -1.
<scales pt_clust_3="48.75243" pt_clust_4="91.83541" pt_clust_5="14000.00000" pt_clust_6="35.75873"></scales>
<clustering>
<clus scale="   35.759">  1  6  2 -1</clus>
<clus scale="   48.752">  1  3  2 -1</clus>
<clus scale="   91.835">  1  4  2 -1</clus>
<clus scale="   35.759">  1  3  2 -1</clus>
</clustering>
</event>
<event>
 6    0  0.1463946E+003  0.1068958E+03  0.7546771E-02  0.1266429E+00
         21   -1    0    0  506  501  0.00000000000E+00  0.00000000000E+00  0.69676909182E+03  0.69676909182E+03  0.00000000000E+00 0. -1.
         21   -1    0    0  503  502 -0.00000000000E+00 -0.00000000000E+00 -0.67865496567E+03  0.67865496567E+03  0.00000000000E+00 0.  1.
         21    1    1    2  503  504  0.65128493987E+02  0.74047917773E+01  0.12125621286E+03  0.13783911211E+03  0.00000000000E+00 0. -1.
         21    1    1    2  504  501 -0.24839061424E+02  0.98802746771E+02  0.10774548967E+03  0.14828368854E+03  0.00000000000E+00 0. -1.
         21    1    1    2  505  502 -0.39509834280E+02  0.32117767197E+01 -0.64265900486E+03  0.64388037634E+03  0.00000000000E+00 0.  1.
         21    1    1    2  506  505 -0.77959828300E+00 -0.10941931527E+03  0.43177142848E+03  0.44542088049E+03  0.00000000000E+00 0. -1.
<scales pt_clust_3="56.46295" pt_clust_4="106.89575" pt_clust_5="39.64016" pt_clust_6="14000.00000"></scales>
<clustering>
<clus scale="   39.640">  2  5  1 -1</clus>
<clus scale="   56.463">  2  3  1 -1</clus>
<clus scale="  106.896">  2  4  1 -1</clus>
<clus scale="  106.896">  1  3  2 -1</clus>
</clustering>
</event>
<event>
 6    0  0.1463946E+003  0.7041632E+02  0.7546771E-02  0.1358683E+00
         21   -1    0    0  504  501  0.00000000000E+00  0.00000000000E+00  0.54208150248E+03  0.54208150248E+03  0.00000000000E+00 0.  1.
         21   -1    0    0  506  502 -0.00000000000E+00 -0.00000000000E+00 -0.15047480110E+03  0.15047480110E+03  0.00000000000E+00 0.  1.
         21    1    1    2  503  505  0.99327242982E+02 -0.26478359609E+02 -0.47186200387E+02  0.11310854182E+03  0.00000000000E+00 0.  1.
         21    1    1    2  504  503 -0.98147949434E+02  0.49409114347E+02  0.41379350698E+03  0.42813472994E+03  0.00000000000E+00 0.  1.
         21    1    1    2  505  502 -0.46032400257E+02 -0.50550924172E+01 -0.46116437757E+02  0.65354890132E+02  0.00000000000E+00 0.  1.
         21    1    1    2  506  501  0.44853106708E+02 -0.17875662322E+02  0.71115832540E+02  0.85958141689E+02  0.00000000000E+00 0.  1.
<scales pt_clust_3="70.41632" pt_clust_4="14000.00000" pt_clust_5="46.30913" pt_clust_6="45.11308"></scales>
<clustering>
<clus scale="   46.309">  2  5  1 -1</clus>
<clus scale="   45.113">  1  6  2 -1</clus>
<clus scale="   70.416">  2  3  1 -1</clus>
<clus scale="   45.113">  1  3  2 -1</clus>
</clustering>
</event>
<event>
 6    0  0.1463946E+003  0.1322953E+03  0.7546771E-02  0.1224089E+00
         21   -1    0    0  505  501  0.00000000000E+00  0.00000000000E+00  0.12586960206E+04  0.12586960206E+04  0.00000000000E+00 0.  1.
         21   -1    0    0  503  502 -0.00000000000E+00 -0.00000000000E+00 -0.53866498160E+02  0.53866498160E+02  0.00000000000E+00 0. -1.
         21    1    1    2  503  506  0.19426062399E+02 -0.46751420548E+02 -0.20196564424E+01  0.50667013290E+02  0.00000000000E+00 0.  1.
         21    1    1    2  504  501  0.42913971778E+02  0.52979802338E+02  0.84530848122E+03  0.84805359314E+03  0.00000000000E+00 0.  1.
         21    1    1    2  505  502 -0.81621634051E+02  0.69023524589E+02  0.28667369256E+03  0.30595448043E+03  0.00000000000E+00 0. -1.
         21    1    1    2  506  504  0.19281599874E+02 -0.75251906379E+02  0.74867005125E+02  0.10788743191E+03  0.00000000000E+00 0. -1.
<scales pt_clust_3="47.41512" pt_clust_4="68.17968" pt_clust_5="118.54262" pt_clust_6="47.41512"></scales>
<clustering>
<clus scale="   47.415">  3  6 -1 -1</clus>
<clus scale="   68.180">  1  4  2 -1</clus>
<clus scale="  118.543">  1  5  2 -1</clus>
<clus scale="   68.180">  1  3  2 -1</clus>
</clustering>
</event>
<event>
 6    0  0.1463946E+003  0.2245993E+03  0.7546771E-02  0.1130500E+00
         21   -1    0    0  504  501  0.00000000000E+00  0.00000000000E+00  0.25775015650E+03  0.25775015650E+03  0.00000000000E+00 0.  1.
         21   -1    0    0  505  502 -0.00000000000E+00 -0.00000000000E+00 -0.62568579102E+03  0.62568579102E+03  0.00000000000E+00 0.  1.
         21    1    1    2  503  506  0.57471387777E+01 -0.84684224602E+02 -0.22077026529E+03  0.23652475037E+03  0.00000000000E+00 0. -1.
         21    1    1    2  504  503 -0.26968702416E+02  0.15177259957E+03 -0.99566654071E+02  0.18350954060E+03  0.00000000000E+00 0.  1.
         21    1    1    2  505  501 -0.24575185831E+02  0.10051537973E+03  0.16133274991E+03  0.19166517032E+03  0.00000000000E+00 0.  1.
         21    1    1    2  506  502  0.45796749470E+02 -0.16760375469E+03 -0.20893146508E+03  0.27173648623E+03  0.00000000000E+00 0.  1.
<scales pt_clust_3="60.04348" pt_clust_4="207.52091" pt_clust_5="103.47599" pt_clust_6="60.04348"></scales>
<clustering>
<clus scale="   60.043">  3  6 -1 -1</clus>
<clus scale="  103.476">  1  5  2 -1</clus>
<clus scale="  207.521">  1  4  2 -1</clus>
<clus scale="  103.476">  1  3  2 -1</clus>
</clustering>
</event>
<event>
 6    0  0.1463946E+003  0.9664814E+02  0.7546771E-02  0.1287507E+00
         21   -1    0    0  504  501  0.00000000000E+00  0.00000000000E+00  0.51239717283E+03  0.51239717283E+03  0.00000000000E+00 0. -1.
         21   -1    0    0  505  502 -0.00000000000E+00 -0.00000000000E+00 -0.73681087079E+03  0.73681087079E+03  0.00000000000E+00 0. -1.
         21    1    1    2  503  501 -0.32328717921E+02  0.67092959015E+02 -0.89868577069E+02  0.11671748925E+03  0.00000000000E+00 0. -1.
         21    1    1    2  504  506  0.79921528454E+02 -0.56904969110E+02  0.49065505799E+03  0.50036787681E+03  0.00000000000E+00 0. -1.
         21    1    1    2  505  503 -0.13029572046E+02 -0.41550507680E+02 -0.38293246588E+03  0.38540042535E+03  0.00000000000E+00 0. -1.
         21    1    1    2  506  502 -0.34563238488E+02  0.31362517775E+02 -0.24226771299E+03  0.24672225221E+03  0.00000000000E+00 0. -1.
<scales pt_clust_3="96.64814" pt_clust_4="14000.00000" pt_clust_5="43.54554" pt_clust_6="43.67168"></scales>
<clustering>
<clus scale="   43.546">  2  5  1 -1</clus>
<clus scale="   43.672">  2  6  1 -1</clus>
<clus scale="   96.648">  2  3  1 -1</clus>
<clus scale="   96.648">  1  3  2 -1</clus>
</clustering>
</event>
<event>
 6    0  0.1463946E+003  0.1170407E+03  0.7546771E-02  0.1248060E+00
         21   -1    0    0  505  501  0.00000000000E+00  0.00000000000E+00  0.35126421092E+03  0.35126421092E+03  0.00000000000E+00 0.  1.
         21   -1    0    0  504  502 -0.00000000000E+00 -0.00000000000E+00 -0.10054469086E+03  0.10054469086E+03  0.00000000000E+00 0.  1.
         21    1    1    2  503  506 -0.11262826182E+02  0.95139159861E+02  0.95335202790E+02  0.13515587995E+03  0.00000000000E+00 0.  1.
         21    1    1    2  504  501 -0.59745424578E+02 -0.13972331397E+03  0.61572308695E+02  0.16396118267E+03  0.00000000000E+00 0.  1.
         21    1    1    2  505  503  0.32650346784E+02  0.25027768453E+02  0.10098475673E+03  0.10904290637E+03  0.00000000000E+00 0.  1.
         21    1    1    2  506  502  0.38357903976E+02  0.19556385656E+02 -0.71727481519E+01  0.43648932786E+02  0.00000000000E+00 0. -1.
<scales pt_clust_3="14000.00000" pt_clust_4="117.04070" pt_clust_5="41.13921" pt_clust_6="46.05517"></scales>
<clustering>
<clus scale="   41.139">  1  5  2 -1</clus>
<clus scale="   46.055">  2  6  1 -1</clus>
<clus scale="  117.041">  2  4  1 -1</clus>
<clus scale="   41.139">  1  3  2 -1</clus>
</clustering>
</event>
<event>
 6    0  0.1463946E+003  0.8385361E+02  0.7546771E-02  0.1318458E+00
         21   -1    0    0  506  501  0.00000000000E+00  0.00000000000E+00  0.42638127768E+03  0.42638127768E+03  0.00000000000E+00 0.  1.
         21   -1    0    0  504  502 -0.00000000000E+00 -0.00000000000E+00 -0.93040250022E+03  0.93040250022E+03  0.00000000000E+00 0.  1.
         21    1    1    2  503  501 -0.23424822990E+02 -0.28263440155E+02  0.21351084333E+02  0.42466612576E+02  0.00000000000E+00 0. -1.
         21    1    1    2  504  503  0.82086265962E+01 -0.78384812167E+02 -0.14971023140E+03  0.16918839711E+03  0.00000000000E+00 0. -1.
         21    1    1    2  505  502  0.42615241587E+02  0.10210844095E+02 -0.75321668882E+03  0.75449035811E+03  0.00000000000E+00 0.  1.
         21    1    1    2  506  505 -0.27399045193E+02  0.96437408228E+02  0.37755461336E+03  0.39063841011E+03  0.00000000000E+00 0.  1.
<scales pt_clust_3="36.70891" pt_clust_4="14000.00000" pt_clust_5="43.77406" pt_clust_6="83.85361"></scales>
<clustering>
<clus scale="   36.709">  1  3  2 -1</clus>
<clus scale="   43.774">  2  5  1 -1</clus>
<clus scale="   83.854">  1  6  2 -1</clus>
<clus scale="   36.709">  1  3  2 -1</clus>
</clustering>
</event>
<event>
 6    0  0.1463946E+003  0.1150867E+03  0.7546771E-02  0.1251430E+00
         21   -1    0    0  506  501  0.00000000000E+00  0.00000000000E+00  0.10423578412E+03  0.10423578412E+03  0.00000000000E+00 0.  1.
         21   -1    0    0  505  502 -0.00000000000E+00 -0.00000000000E+00 -0.86713241292E+03  0.86713241292E+03  0.00000000000E+00 0.  1.
         21    1    1    2  503  501  0.31768266017E+02  0.40475434111E+02  0.30780767702E+02  0.59957811439E+02  0.00000000000E+00 0.  1.
         21    1    1    2  504  502  0.90504016903E+02  0.25315004164E+02 -0.24632571592E+03  0.26364404950E+03  0.00000000000E+00 0. -1.
         21    1    1    2  505  503 -0.13195900336E+03 -0.23266211866E+02 -0.57872900481E+03  0.59403851406E+03  0.00000000000E+00 0.  1.
         21    1    1    2  506  504  0.96867204374E+01 -0.42524226410E+02  0.31377324230E+02  0.53727822033E+02  0.00000000000E+00 0.  1.
<scales pt_clust_3="39.96589" pt_clust_4="115.08669" pt_clust_5="14000.00000" pt_clust_6="43.61356"></scales>
<clustering>
<clus scale="   43.614">  1  6  2 -1</clus>
<clus scale="   39.966">  1  3  2 -1</clus>
<clus scale="  115.087">  1  4  2 -1</clus>
<clus scale="   43.614">  1  3  2 -1</clus>
</clustering>
</event>
<event>
 6    0  0.1463946E+003  0.6867676E+02  0.7546771E-02  0.1364651E+00
         21   -1    0    0  503  501  0.00000000000E+00  0.00000000000E+00  0.10340756996E+03  0.10340756996E+03  0.00000000000E+00 0. -1.
         21   -1    0    0  506  502 -0.00000000000E+00 -0.00000000000E+00 -0.10536687767E+04  0.10536687767E+04  0.00000000000E+00 0. -1.
         21    1    1    2  503  502 -0.90309483430E+02 -0.12487250430E+03 -0.71795939334E+03  0.73431235562E+03  0.00000000000E+00 0. -1.
         21    1    1    2  504  501  0.34570458915E+02  0.57567829581E+02  0.73284606360E+02  0.99397209023E+02  0.00000000000E+00 0. -1.
         21    1    1    2  505  504  0.34736736309E+02  0.34825513852E+02 -0.75888425637E+02  0.90435117129E+02  0.00000000000E+00 0.  1.
         21    1    1    2  506  505  0.21002288206E+02  0.32479160872E+02 -0.22969799415E+03  0.23293166491E+03  0.00000000000E+00 0. -1.
<scales pt_clust_3="68.67676" pt_clust_4="14000.00000" pt_clust_5="53.01961" pt_clust_6="38.67806"></scales>
<clustering>
<clus scale="   38.678">  2  6  1 -1</clus>
<clus scale="   53.020">  2  5  1 -1</clus>
<clus scale="   68.677">  2  3  1 -1</clus>
<clus scale="   68.677">  1  3  2 -1</clus>
</clustering>
</event>
<event>
 6    0  0.1463946E+003  0.1545651E+03  0.7546771E-02  0.1194973E+00
         21   -1    0    0  506  501  0.00000000000E+00  0.00000000000E+00  0.28434306370E+03  0.28434306370E+03  0.00000000000E+00 0. -1.
         21   -1    0    0  505  502 -0.00000000000E+00 -0.00000000000E+00 -0.53438067078E+03  0.53438067078E+03  0.00000000000E+00 0. -1.
         21    1    1    2  503  501 -0.44396032776E+02 -0.30302190529E+02  0.14198173870E+03  0.15181582461E+03  0.00000000000E+00 0. -1.
         21    1    1    2  504  503  0.69354067179E+02 -0.15275599324E+03 -0.25040344463E+03  0.30140714190E+03  0.00000000000E+00 0. -1.
         21    1    1    2  505  504 -0.34962717485E+02  0.90431597473E+01 -0.18285442160E+03  0.18638645297E+03  0.00000000000E+00 0. -1.
         21    1    1    2  506  502  0.10004683082E+02  0.17401502402E+03  0.41238520463E+02  0.17911431500E+03  0.00000000000E+00 0. -1.
<scales pt_clust_3="54.08721" pt_clust_4="154.56508" pt_clust_5="36.11330" pt_clust_6="14000.00000"></scales>
<clustering>
<clus scale="   36.113">  2  5  1 -1</clus>
<clus scale="   54.087">  1  3  2 -1</clus>
<clus scale="  154.565">  2  4  1 -1</clus>
<clus scale="   54.087">  1  3  2 -1</clus>
</clustering>
</event>
<event>
 6    0  0.1463946E+003  0.1211235E+03  0.7546771E-02  0.1241255E+00
         21   -1    0    0  503  501  0.00000000000E+00  0.00000000000E+00  0.78535327225E+03  0.78535327225E+03  0.00000000000E+00 0. -1.
         21   -1    0    0  501  502 -0.00000000000E+00 -0.00000000000E+00 -0.72117640642E+02  0.72117640642E+02  0.00000000000E+00 0.  1.
         21    1    1    2  503  506 -0.78151731579E+01 -0.34743686967E+02  0.31551158860E+03  0.31751498115E+03  0.00000000000E+00 0. -1.
         21    1    1    2  504  505  0.77427981724E+02 -0.80989857895E+02  0.29203863699E+03  0.31279548419E+03  0.00000000000E+00 0. -1.
         21    1    1    2  505  502 -0.89701493894E+02  0.84361205846E+02  0.89079441989E+01  0.12346061124E+03  0.00000000000E+00 0.  1.
         21    1    1    2  506  504  0.20088685328E+02  0.31372339016E+02  0.96777461823E+02  0.10369983631E+03  0.00000000000E+00 0.  1.
<scales pt_clust_3="35.61181" pt_clust_4="121.12347" pt_clust_5="14000.00000" pt_clust_6="30.20818"></scales>
<clustering>
<clus scale="   35.612">  1  3  2 -1</clus>
<clus scale="   30.208">  1  6  2 -1</clus>
<clus scale="  121.123">  1  4  2 -1</clus>
<clus scale="   35.612">  1  3  2 -1</clus>
</clustering>
</event>
<event>
 6    0  0.1463946E+003  0.1594415E+03  0.7546771E-02  0.1189329E+00
         21   -1    0    0  504  501  0.00000000000E+00  0.00000000000E+00  0.36804327350E+03  0.36804327350E+03  0.00000000000E+00 0. -1.
         21   -1    0    0  505  502 -0.00000000000E+00 -0.00000000000E+00 -0.25740218822E+03  0.25740218822E+03  0.00000000000E+00 0. -1.
         21    1    1    2  503  502  0.18174792577E+03  0.13425536025E+03 -0.84034986927E+02  0.24107818090E+03  0.00000000000E+00 0. -1.
         21    1    1    2  504  506 -0.52403021411E+02 -0.58540326668E+02  0.16380311908E+03  0.18167142957E+03  0.00000000000E+00 0.  1.
         21    1    1    2  505  501 -0.19770056339E+02 -0.58927779275E+02 -0.37366036217E+02  0.72522816827E+02  0.00000000000E+00 0. -1.
         21    1    1    2  506  503 -0.10957484802E+03 -0.16787254304E+02  0.68238989337E+02  0.13017303443E+03  0.00000000000E+00 0. -1.
<scales pt_clust_3="159.44152" pt_clust_4="81.09538" pt_clust_5="62.15576" pt_clust_6="14000.00000"></scales>
<clustering>
<clus scale="   62.156">  2  5  1 -1</clus>
<clus scale="   81.095">  1  4  2 -1</clus>
<clus scale="  159.442">  2  3  1 -1</clus>
<clus scale="   81.095">  1  3  2 -1</clus>
</clustering>
</event>
<event>
 6    0  0.1463946E+003  0.7770892E+02  0.7546771E-02  0.1335682E+00
         21   -1    0    0  504  501  0.00000000000E+00  0.00000000000E+00  0.66014265060E+03  0.66014265060E+03  0.00000000000E+00 0.  1.
         21   -1    0    0  506  502 -0.00000000000E+00 -0.00000000000E+00 -0.12777986786E+03  0.12777986786E+03  0.00000000000E+00 0.  1.
         21    1    1    2  503  505 -0.40473380640E+02  0.20255207908E+02  0.13041546663E+02  0.47100423853E+02  0.00000000000E+00 0. -1.
         21    1    1    2  504  502  0.12567439262E+03 -0.43810876648E+01 -0.32645271752E+02  0.12991905425E+03  0.00000000000E+00 0.  1.
         21    1    1    2  505  501 -0.74411663446E+02  0.16720810118E+02  0.56793785927E+03  0.57303585676E+03  0.00000000000E+00 0.  1.
         21    1    1    2  506  503 -0.10789348532E+02 -0.32594930361E+02 -0.15971351441E+02  0.37867183601E+02  0.00000000000E+00 0.  1.
<scales pt_clust_3="44.79386" pt_clust_4="14000.00000" pt_clust_5="77.70892" pt_clust_6="34.33423"></scales>
<clustering>
<clus scale="   34.334">  2  6  1 -1</clus>
<clus scale="   44.794">  2  3  1 -1</clus>
<clus scale="   77.709">  1  5  2 -1</clus>
<clus scale="   77.709">  1  3  2 -1</clus>
</clustering>
</event>
<event>
 6    0  0.1463946E+003  0.1833937E+03  0.7546771E-02  0.1164558E+00
         21   -1    0    0  506  501  0.00000000000E+00  0.00000000000E+00  0.15244406894E+03  0.15244406894E+03  0.00000000000E+00 0.  1.
         21   -1    0    0  504  502 -0.00000000000E+00 -0.00000000000E+00 -0.26147864432E+03  0.26147864432E+03  0.00000000000E+00 0.  1.
         21    1    1    2  503  505  0.39901406859E+02 -0.14254488768E+01 -0.22139782811E+02  0.45654399096E+02  0.00000000000E+00 0.  1.
         21    1    1    2  504  503  0.70546812768E+02 -0.12134416978E+03 -0.67058645913E+02  0.15555745666E+03  0.00000000000E+00 0.  1.
         21    1    1    2  505  501  0.28633522299E+02  0.17396458084E+02  0.11510764624E+02  0.35426163430E+02  0.00000000000E+00 0. -1.
         21    1    1    2  506  502 -0.13908174193E+03  0.10537316057E+03 -0.31346911283E+02  0.17728469407E+03  0.00000000000E+00 0.  1.
<scales pt_clust_3="39.87365" pt_clust_4="39.87365" pt_clust_5="33.50396" pt_clust_6="168.44758"></scales>
<clustering>
<clus scale="   33.504">  1  5  2 -1</clus>
<clus scale="   39.874">  3  4 -1 -1</clus>
<clus scale="  168.448">  1  6  2 -1</clus>
<clus scale="   33.504">  1  3  2 -1</clus>
</clustering>
</event>
<event>
 6    0  0.1463946E+003  0.8921689E+02  0.7546771E-02  0.1304759E+00
         21   -1    0    0  503  501  0.00000000000E+00  0.00000000000E+00  0.71362190645E+02  0.71362190645E+02  0.00000000000E+00 0. -1.
         21   -1    0    0  504  502 -0.00000000000E+00 -0.00000000000E+00 -0.47118481728E+03  0.47118481728E+03  0.00000000000E+00 0. -1.
         21    1    1    2  503  506 -0.88872581623E+01  0.48396901180E+02  0.16340378492E+02  0.51848349740E+02  0.00000000000E+00 0. -1.
         21    1    1    2  504  505  0.97486156723E+02 -0.14796918898E+02 -0.25546602010E+03  0.27383459787E+03  0.00000000000E+00 0. -1.
         21    1    1    2  505  501 -0.65695387576E+02  0.29042756343E+02 -0.49623485689E+02  0.87303241501E+02  0.00000000000E+00 0. -1.
         21    1    1    2  506  502 -0.22903510985E+02 -0.62642738625E+02 -0.11107349933E+03  0.12956081881E+03  0.00000000000E+00 0. -1.
<scales pt_clust_3="49.20613" pt_clust_4="89.21689" pt_clust_5="14000.00000" pt_clust_6="56.52152"></scales>
<clustering>
<clus scale="   49.206">  1  3  2 -1</clus>
<clus scale="   56.522">  1  6  2 -1</clus>
<clus scale="   89.217">  2  4  1 -1</clus>
<clus scale="   49.206">  1  3  2 -1</clus>
</clustering>
</event>
<event>
 6    0  0.1463946E+003  0.1323341E+03  0.7546771E-02  0.1224033E+00
         21   -1    0    0  506  501  0.00000000000E+00  0.00000000000E+00  0.19989634589E+03  0.19989634589E+03  0.00000000000E+00 0. -1.
         21   -1    0    0  503  502 -0.00000000000E+00 -0.00000000000E+00 -0.32002057565E+03  0.32002057565E+03  0.00000000000E+00 0. -1.
         21    1    1    2  503  505  0.39018893364E+02  0.13300594310E+02 -0.13100875884E+03  0.13734145311E+03  0.00000000000E+00 0. -1.
         21    1    1    2  504  501 -0.14029332392E+02 -0.29367470967E+02  0.96309970501E+02  0.10166061645E+03  0.00000000000E+00 0. -1.
         21    1    1    2  505  504  0.16993576862E+02  0.13726719142E+03 -0.56614263206E+02  0.14945313075E+03  0.00000000000E+00 0. -1.
         21    1    1    2  506  502 -0.41983137835E+02 -0.12120031476E+03 -0.28811178220E+02  0.13146172124E+03  0.00000000000E+00 0. -1.
<scales pt_clust_3="40.51614" pt_clust_4="32.54644" pt_clust_5="132.33412" pt_clust_6="14000.00000"></scales>
<clustering>
<clus scale="   32.546">  1  4  2 -1</clus>
<clus scale="   40.516">  2  3  1 -1</clus>
<clus scale="  132.334">  1  5  2 -1</clus>
<clus scale="   32.546">  1  3  2 -1</clus>
</clustering>
</event>
<event>
 6    0  0.1463946E+003  0.9372430E+02  0.7546771E-02  0.1294075E+00
         21   -1    0    0  506  501  0.00000000000E+00  0.00000000000E+00  0.36913778950E+02  0.36913778950E+02  0.00000000000E+00 0. -1.
         21   -1    0    0  505  502 -0.00000000000E+00 -0.00000000000E+00 -0.57409718785E+03  0.57409718785E+03  0.00000000000E+00 0. -1.
         21    1    1    2  503  502 -0.33967966904E+01  0.31908280811E+02 -0.15671635510E+03  0.15996778603E+03  0.00000000000E+00 0. -1.
         21    1    1    2  504  503  0.50356916225E+02 -0.10580862984E+03 -0.23713970484E+03  0.26451186130E+03  0.00000000000E+00 0. -1.
         21    1    1    2  505  501 -0.10606319709E+02  0.79054209229E+02 -0.11592981240E+03  0.14071880975E+03  0.00000000000E+00 0. -1.
         21    1    1    2  506  504 -0.36353799825E+02 -0.51538601984E+01 -0.27397536570E+02  0.45812509719E+02  0.00000000000E+00 0. -1.
<scales pt_clust_3="32.08857" pt_clust_4="93.72430" pt_clust_5="14000.00000" pt_clust_6="36.72778"></scales>
<clustering>
<clus scale="   32.089">  2  3  1 -1</clus>
<clus scale="   36.728">  1  6  2 -1</clus>
<clus scale="   93.724">  2  4  1 -1</clus>
<clus scale="   36.728">  1  3  2 -1</clus>
</clustering>
</event>
<event>
 6    0  0.1463946E+003  0.1172021E+03  0.7546771E-02  0.1247785E+00
         21   -1    0    0  506  501  0.00000000000E+00  0.00000000000E+00  0.44638389817E+03  0.44638389817E+03  0.00000000000E+00 0. -1.
         21   -1    0    0  505  502 -0.00000000000E+00 -0.00000000000E+00 -0.57884845766E+03  0.57884845766E+03  0.00000000000E+00 0.  1.
         21    1    1    2  503  501  0.26586196635E+01  0.60712952008E+02  0.12088341064E+02  0.61961752636E+02  0.00000000000E+00 0. -1.
         21    1    1    2  504  502  0.68479624588E+01 -0.91044854100E+02  0.12493012878E+02  0.92152783022E+02  0.00000000000E+00 0.  1.
         21    1    1    2  505  503 -0.17429797433E+02 -0.64209352861E+02 -0.50556111476E+03  0.50992026787E+03  0.00000000000E+00 0.  1.
         21    1    1    2  506  504  0.79232153106E+01  0.94541254952E+02  0.34851520132E+03  0.36119755229E+03  0.00000000000E+00 0. -1.
<scales pt_clust_3="60.77113" pt_clust_4="117.20206" pt_clust_5="66.21735" pt_clust_6="14000.00000"></scales>
<clustering>
<clus scale="   60.771">  1  3  2 -1</clus>
<clus scale="   66.217">  2  5  1 -1</clus>
<clus scale="  117.202">  2  4  1 -1</clus>
<clus scale="   60.771">  1  3  2 -1</clus>
</clustering>
</event>
<event>
 6    0  0.1463946E+003  0.1005527E+03  0.7546771E-02  0.1279138E+00
         21   -1    0    0  503  501  0.00000000000E+00  0.00000000000E+00  0.36476762306E+03  0.36476762306E+03  0.00000000000E+00 0.  1.
         21   -1    0    0  506  502 -0.00000000000E+00 -0.00000000000E+00 -0.99543489113E+02  0.99543489113E+02  0.00000000000E+00 0.  1.
         21    1    1    2  503  504 -0.57987427007E+01  0.35965141605E+02  0.15459620338E+03  0.15883042192E+03  0.00000000000E+00 0.  1.
         21    1    1    2  504  502  0.78059950565E+02 -0.65178781026E+02 -0.10203626096E+02  0.10220441949E+03  0.00000000000E+00 0.  1.
         21    1    1    2  505  501  0.39822925132E+02  0.21410027133E+02  0.61160897453E+02  0.76058595867E+02  0.00000000000E+00 0.  1.
         21    1    1    2  506  505 -0.11208413300E+03  0.78036122880E+01  0.59670659205E+02  0.12721767489E+03  0.00000000000E+00 0.  1.
<scales pt_clust_3="36.42961" pt_clust_4="14000.00000" pt_clust_5="50.43933" pt_clust_6="100.55268"></scales>
<clustering>
<clus scale="   36.430">  1  3  2 -1</clus>
<clus scale="   50.439">  1  5  2 -1</clus>
<clus scale="  100.553">  1  6  2 -1</clus>
<clus scale="   36.430">  1  3  2 -1</clus>
</clustering>
</event>
<event>
 6    0  0.1463946E+003  0.6499083E+02  0.7546771E-02  0.1378006E+00
         21   -1    0    0  506  501  0.00000000000E+00  0.00000000000E+00  0.25691222230E+02  0.25691222230E+02  0.00000000000E+00 0.  1.
         21   -1    0    0  504  502 -0.00000000000E+00 -0.00000000000E+00 -0.17012412518E+04  0.17012412518E+04  0.00000000000E+00 0.  1.
         21    1    1    2  503  502 -0.58914554992E+02 -0.90456925985E+01 -0.10731129774E+04  0.10747670500E+04  0.00000000000E+00 0.  1.
         21    1    1    2  504  501  0.99040892689E+02  0.67152669222E+02 -0.50816880779E+03  0.52206715720E+03  0.00000000000E+00 0.  1.
         21    1    1    2  505  503 -0.37732878426E+02 -0.27410316600E+02 -0.86612649756E+02  0.98370964559E+02  0.00000000000E+00 0.  1.
         21    1    1    2  506  505 -0.23934592703E+01 -0.30696660024E+02 -0.76555945921E+01  0.31727302319E+02  0.00000000000E+00 0.  1.
<scales pt_clust_3="64.99083" pt_clust_4="14000.00000" pt_clust_5="56.15249" pt_clust_6="30.78983"></scales>
<clustering>
<clus scale="   30.790">  1  6  2 -1</clus>
<clus scale="   56.152">  1  5  2 -1</clus>
<clus scale="   64.991">  2  3  1 -1</clus>
<clus scale="   30.790">  1  3  2 -1</clus>
</clustering>
</event>
<event>
 6    0  0.1463946E+003  0.1896865E+03  0.7546771E-02  0.1158744E+00
         21   -1    0    0  504  501  0.00000000000E+00  0.00000000000E+00  0.92787062201E+03  0.92787062201E+03  0.00000000000E+00 0.  1.
         21   -1    0    0  506  502 -0.00000000000E+00 -0.00000000000E+00 -0.18721506991E+03  0.18721506991E+03  0.00000000000E+00 0.  1.
         21    1    1    2  503  502  0.22556223920E+03 -0.11164110569E+03  0.51670861831E+02  0.25692788520E+03  0.00000000000E+00 0.  1.
         21    1    1    2  504  505 -0.39903241635E+02  0.13702685068E+03  0.62808769164E+03  0.64409842018E+03  0.00000000000E+00 0.  1.
         21    1    1    2  505  503 -0.15574702715E+03 -0.42780312094E+02  0.73208543195E+02  0.17733240642E+03  0.00000000000E+00 0.  1.
         21    1    1    2  506  501 -0.29911970415E+02  0.17394567106E+02 -0.12311544569E+02  0.36726980118E+02  0.00000000000E+00 0.  1.
<scales pt_clust_3="189.68650" pt_clust_4="143.95675" pt_clust_5="14000.00000" pt_clust_6="34.60198"></scales>
<clustering>
<clus scale="   34.602">  2  6  1 -1</clus>
<clus scale="  143.957">  1  4  2 -1</clus>
<clus scale="  189.686">  2  3  1 -1</clus>
<clus scale="  143.957">  1  3  2 -1</clus>
</clustering>
</event>
<event>
 6    0  0.1463946E+003  0.1349449E+03  0.7546771E-02  0.1220297E+00
         21   -1    0    0  506  501  0.00000000000E+00  0.00000000000E+00  0.10055905372E+04  0.10055905372E+04  0.00000000000E+00 0. -1.
         21   -1    0    0  503  502 -0.00000000000E+00 -0.00000000000E+00 -0.42759434670E+02  0.42759434670E+02  0.00000000000E+00 0. -1.
         21    1    1    2  503  504 -0.11083588312E+01 -0.41482303241E+02  0.93341178037E+01  0.42533935823E+02  0.00000000000E+00 0. -1.
         21    1    1    2  504  505 -0.12487344810E+01 -0.85307533210E+02  0.10585309451E+03  0.13595518444E+03  0.00000000000E+00 0. -1.
         21    1    1    2  505  501 -0.50626136127E+02  0.11892211896E+03  0.43623349995E+03  0.45497817806E+03  0.00000000000E+00 0. -1.
         21    1    1    2  506  502  0.52983229440E+02  0.78677174897E+01  0.41141039025E+03  0.41488267352E+03  0.00000000000E+00 0. -1.
<scales pt_clust_3="34.93389" pt_clust_4="34.93389" pt_clust_5="125.30394" pt_clust_6="53.56420"></scales>
<clustering>
<clus scale="   34.934">  3  4 -1 -1</clus>
<clus scale="   53.564">  1  6  2 -1</clus>
<clus scale="  125.304">  1  5  2 -1</clus>
<clus scale="   53.564">  1  3  2 -1</clus>
</clustering>
</event>
<event>
 6    0  0.1463946E+003  0.1202743E+03  0.7546771E-02  0.1242645E+00
         21   -1    0    0  504  501  0.00000000000E+00  0.00000000000E+00  0.46008843842E+02  0.46008843842E+02  0.00000000000E+00 0.  1.
         21   -1    0    0  505  502 -0.00000000000E+00 -0.00000000000E+00 -0.45819982526E+03  0.45819982526E+03  0.00000000000E+00 0.  1.
         21    1    1    2  503  506 -0.34016492827E+02 -0.13385617842E+02 -0.43224595428E+02  0.56609735905E+02  0.00000000000E+00 0. -1.
         21    1    1    2  504  503  0.28024609019E+02 -0.25308721818E+02 -0.42292292527E+02  0.56696985087E+02  0.00000000000E+00 0. -1.
         21    1    1    2  505  501  0.81885554115E+02  0.61404330255E+02 -0.74544312430E+02  0.12661986520E+03  0.00000000000E+00 0.  1.
         21    1    1    2  506  502 -0.75893670307E+02 -0.22709990594E+02 -0.25212978103E+03  0.26428208291E+03  0.00000000000E+00 0.  1.
<scales pt_clust_3="32.95984" pt_clust_4="37.76122" pt_clust_5="110.05316" pt_clust_6="32.95984"></scales>
<clustering>
<clus scale="   32.960">  3  6 -1 -1</clus>
<clus scale="   37.761">  1  4  2 -1</clus>
<clus scale="  110.053">  1  5  2 -1</clus>
<clus scale="   37.761">  1  3  2 -1</clus>
</clustering>
</event>
<event>
 6    0  0.1463946E+003  0.1245892E+03  0.7546771E-02  0.1235713E+00
         21   -1    0    0  503  501  0.00000000000E+00  0.00000000000E+00  0.12838922297E+04  0.12838922297E+04  0.00000000000E+00 0. -1.
         21   -1    0    0  505  502 -0.00000000000E+00 -0.00000000000E+00 -0.30766602163E+02  0.30766602163E+02  0.00000000000E+00 0. -1.
         21    1    1    2  503  506  0.30640796406E+02 -0.32043907093E+02  0.39955373405E+03  0.40200604072E+03  0.00000000000E+00 0.  1.
         21    1    1    2  504  502 -0.37640545503E+02  0.25887087542E+02  0.57645606842E+02  0.73552484359E+02  0.00000000000E+00 0. -1.
         21    1    1    2  505  501 -0.10557191989E+03 -0.63704950696E+02  0.49809846212E+03  0.51313334425E+03  0.00000000000E+00 0. -1.
         21    1    1    2  506  504  0.11257166898E+03  0.69861770247E+02  0.29782782451E+03  0.32596696251E+03  0.00000000000E+00 0. -1.
<scales pt_clust_3="44.33588" pt_clust_4="42.46431" pt_clust_5="124.58919" pt_clust_6="14000.00000"></scales>
<clustering>
<clus scale="   44.336">  1  3  2 -1</clus>
<clus scale="   42.464">  2  4  1 -1</clus>
<clus scale="  124.589">  1  5  2 -1</clus>
<clus scale="   44.336">  1  3  2 -1</clus>
</clustering>
</event>
<event>
 6    0  0.1463946E+003  0.9902047E+02  0.7546771E-02  0.1282369E+00
         21   -1    0    0  506  501  0.00000000000E+00  0.00000000000E+00  0.30163535391E+02  0.30163535391E+02  0.00000000000E+00 0.  1.
         21   -1    0    0  503  502 -0.00000000000E+00 -0.00000000000E+00 -0.72468201013E+03  0.72468201013E+03  0.00000000000E+00 0.  1.
         21    1    1    2  503  504  0.10246942551E+03 -0.44106544928E+02 -0.23478017280E+03  0.25993672309E+03  0.00000000000E+00 0.  1.
         21    1    1    2  504  501  0.22733278813E+01  0.39747656345E+02 -0.43612544093E+02  0.59051657105E+02  0.00000000000E+00 0. -1.
         21    1    1    2  505  502 -0.24204388093E+02 -0.31331242523E+02 -0.16653987043E+03  0.17118127118E+03  0.00000000000E+00 0. -1.
         21    1    1    2  506  505 -0.80538365300E+02  0.35690131107E+02 -0.24958588742E+03  0.26467589415E+03  0.00000000000E+00 0.  1.
<scales pt_clust_3="14000.00000" pt_clust_4="36.85412" pt_clust_5="39.59166" pt_clust_6="99.02047"></scales>
<clustering>
<clus scale="   39.592">  2  5  1 -1</clus>
<clus scale="   36.854">  1  4  2 -1</clus>
<clus scale="   99.020">  2  6  1 -1</clus>
<clus scale="   36.854">  1  3  2 -1</clus>
</clustering>
</event>
<event>
 6    0  0.1463946E+003  0.1012439E+03  0.7546771E-02  0.1277702E+00
         21   -1    0    0  505  501  0.00000000000E+00  0.00000000000E+00  0.33154047656E+03  0.33154047656E+03  0.00000000000E+00 0. -1.
         21   -1    0    0  503  502 -0.00000000000E+00 -0.00000000000E+00 -0.13832906364E+04  0.13832906364E+04  0.00000000000E+00 0.  1.
         21    1    1    2  503  501  0.17144810573E+02 -0.45031800275E+02 -0.11360504944E+04  0.11370719121E+04  0.00000000000E+00 0.  1.
         21    1    1    2  504  502  0.33034671427E+02  0.58611678527E+00 -0.15821286478E+03  0.16162593737E+03  0.00000000000E+00 0.  1.
         21    1    1    2  505  506  0.95069544313E+02  0.18452869957E+02  0.25028949165E+03  0.26837204827E+03  0.00000000000E+00 0. -1.
         21    1    1    2  506  504 -0.14524902631E+03  0.25992813533E+02 -0.77762923571E+01  0.14776121522E+03  0.00000000000E+00 0. -1.
<scales pt_clust_3="65.32487" pt_clust_4="33.03987" pt_clust_5="14000.00000" pt_clust_6="101.24394"></scales>
<clustering>
<clus scale="   33.040">  2  4  1 -1</clus>
<clus scale="   65.325">  2  3  1 -1</clus>
<clus scale="  101.244">  2  6  1 -1</clus>
<clus scale="  101.244">  1  3  2 -1</clus>
</clustering>
</event>
<event>
 6    0  0.3188684E+003  0.1120561E+03  0.7546771E-02  0.1256809E+00
         21   -1    0    0  504  501  0.00000000000E+00  0.00000000000E+00  0.18431664019E+04  0.18431664019E+04  0.00000000000E+00 0. -1.
         21   -1    0    0  503  502 -0.00000000000E+00 -0.00000000000E+00 -0.90224342534E+02  0.90224342534E+02  0.00000000000E+00 0. -1.
         21    1    1    2  503  505 -0.87731448864E+02 -0.78848110411E+02 -0.37326805148E+02  0.12372195447E+03  0.00000000000E+00 0. -1.
         21    1    1    2  504  502  0.56082595560E+02  0.33595562705E+02  0.34695433482E+03  0.35305981053E+03  0.00000000000E+00 0. -1.
         21    1    1    2  505  506 -0.26790847553E+01  0.43764277992E+02  0.68284001737E+02  0.81149210819E+02  0.00000000000E+00 0.  1.
         21    1    1    2  506  501  0.34327938059E+02  0.14882697142E+01  0.13750305280E+04  0.13754597686E+04  0.00000000000E+00 0. -1.
<scales pt_clust_3="14000.00000" pt_clust_4="112.05615" pt_clust_5="44.09107" pt_clust_6="34.36018"></scales>
<clustering>
<clus scale="   34.360">  1  6  2 -1</clus>
<clus scale="   44.091">  1  5  2 -1</clus>
<clus scale="  112.056">  1  4  2 -1</clus>
<clus scale="   34.360">  1  3  2 -1</clus>
</clustering>
</event>
<event>
 6    0  0.1463946E+003  0.1530882E+03  0.7546771E-02  0.1196729E+00
         21   -1    0    0  506  501  0.00000000000E+00  0.00000000000E+00  0.16293299020E+03  0.16293299020E+03  0.00000000000E+00 0.  1.
         21   -1    0    0  503  502 -0.00000000000E+00 -0.00000000000E+00 -0.20583623640E+03  0.20583623640E+03  0.00000000000E+00 0.  1.
         21    1    1    2  503  504  0.21188716247E+00  0.34459153459E+02 -0.48184886488E+01  0.34795056921E+02  0.00000000000E+00 0.  1.
         21    1    1    2  504  501 -0.10280937697E+02  0.10823970683E+03  0.85071793847E+02  0.13805340243E+03  0.00000000000E+00 0.  1.
         21    1    1    2  505  502 -0.87790889031E+01 -0.83868884727E+02 -0.97822546000E+02  0.12915228505E+03  0.00000000000E+00 0.  1.
         21    1    1    2  506  505  0.18848139437E+02 -0.58829975565E+02 -0.25334005401E+02  0.66768482197E+02  0.00000000000E+00 0.  1.
<scales pt_clust_3="30.68927" pt_clust_4="30.68927" pt_clust_5="152.37261" pt_clust_6="44.90891"></scales>
<clustering>
<clus scale="   30.689">  3  4 -1 -1</clus>
<clus scale="   44.909">  5  6 -1 -1</clus>
<clus scale="  152.373">  2  5  1 -1</clus>
<clus scale="  153.088">  1  3  2 -1</clus>
</clustering>
</event>
<event>
 6    0  0.1463946E+003  0.8676723E+02  0.7546771E-02  0.1310875E+00
         21   -1    0    0  503  501  0.00000000000E+00  0.00000000000E+00  0.43380432620E+03  0.43380432620E+03  0.00000000000E+00 0. -1.
         21   -1    0    0  506  502 -0.00000000000E+00 -0.00000000000E+00 -0.18703161688E+03  0.18703161688E+03  0.00000000000E+00 0.  1.
         21    1    1    2  503  505  0.30265456411E+02  0.42589679334E+02  0.92244375952E+02  0.10601369502E+03  0.00000000000E+00 0.  1.
         21    1    1    2  504  502  0.70806652624E+02  0.61240182750E+02 -0.12217073260E+03  0.15391435912E+03  0.00000000000E+00 0.  1.
         21    1    1    2  505  504 -0.41165450236E+02 -0.63796368720E+02  0.27867108961E+03  0.28882892365E+03  0.00000000000E+00 0. -1.
         21    1    1    2  506  501 -0.59906658799E+02 -0.40033493365E+02 -0.19720236501E+01  0.72078965286E+02  0.00000000000E+00 0. -1.
<scales pt_clust_3="52.24824" pt_clust_4="14000.00000" pt_clust_5="31.73325" pt_clust_6="86.76723"></scales>
<clustering>
<clus scale="   52.248">  1  3  2 -1</clus>
<clus scale="   31.733">  1  5  2 -1</clus>
<clus scale="   86.767">  1  6  2 -1</clus>
<clus scale="   52.248">  1  3  2 -1</clus>
</clustering>
</event>
<event>
 6    0  0.1463946E+003  0.1564823E+03  0.7546771E-02  0.1192726E+00
         21   -1    0    0  505  501  0.00000000000E+00  0.00000000000E+00  0.60074825280E+03  0.60074825280E+03  0.00000000000E+00 0.  1.
         21   -1    0    0  503  502 -0.00000000000E+00 -0.00000000000E+00 -0.13729020585E+03  0.13729020585E+03  0.00000000000E+00 0.  1.
         21    1    1    2  503  504  0.49694298936E+02  0.14587530807E+03  0.19800408913E+03  0.25090784795E+03  0.00000000000E+00 0.  1.
         21    1    1    2  504  501 -0.99071602224E+02 -0.12793518473E+03  0.32179625377E+03  0.36018803812E+03  0.00000000000E+00 0.  1.
         21    1    1    2  505  506  0.69847138925E+02  0.10119689682E+02 -0.13612606464E+02  0.71877214679E+02  0.00000000000E+00 0.  1.
         21    1    1    2  506  502 -0.20469835637E+02 -0.28059813022E+02 -0.42729689487E+02  0.55065357908E+02  0.00000000000E+00 0.  1.
<scales pt_clust_3="156.48230" pt_clust_4="14000.00000" pt_clust_5="60.04750" pt_clust_6="34.73280"></scales>
<clustering>
<clus scale="   34.733">  2  6  1 -1</clus>
<clus scale="   60.048">  2  5  1 -1</clus>
<clus scale="  156.482">  2  3  1 -1</clus>
<clus scale="  156.482">  1  3  2 -1</clus>
</clustering>
</event>
<event>
 6    0  0.1463946E+003  0.1210008E+03  0.7546771E-02  0.1241455E+00
         21   -1    0    0  506  501  0.00000000000E+00  0.00000000000E+00  0.45095814570E+03  0.45095814570E+03  0.00000000000E+00 0. -1.
         21   -1    0    0  505  502 -0.00000000000E+00 -0.00000000000E+00 -0.25932113328E+03  0.25932113328E+03  0.00000000000E+00 0.  1.
         21    1    1    2  503  504  0.65760107652E+02  0.20312804500E+02 -0.15442585801E+03  0.16906906106E+03  0.00000000000E+00 0.  1.
         21    1    1    2  504  502  0.61931388727E+02 -0.20678110631E+02 -0.53871401883E+02  0.84647558203E+02  0.00000000000E+00 0.  1.
         21    1    1    2  505  501 -0.14640645706E+03 -0.47810902414E+02  0.35896505743E+03  0.39061060599E+03  0.00000000000E+00 0. -1.
         21    1    1    2  506  503  0.18714960678E+02  0.48176208544E+02  0.40969214883E+02  0.65952053728E+02  0.00000000000E+00 0. -1.
<scales pt_clust_3="121.00081" pt_clust_4="65.41936" pt_clust_5="14000.00000" pt_clust_6="51.68362"></scales>
<clustering>
<clus scale="   51.684">  1  6  2 -1</clus>
<clus scale="   65.419">  2  4  1 -1</clus>
<clus scale="  121.001">  2  3  1 -1</clus>
<clus scale="   51.684">  1  3  2 -1</clus>
</clustering>
</event>
<event>
 6    0  0.1463946E+003  0.1116324E+03  0.7546771E-02  0.1257577E+00
         21   -1    0    0  502  501  0.00000000000E+00  0.00000000000E+00  0.92197144709E+03  0.92197144709E+03  0.00000000000E+00 0. -1.
         21   -1    0    0  504  502 -0.00000000000E+00 -0.00000000000E+00 -0.30098518796E+03  0.30098518796E+03  0.00000000000E+00 0. -1.
         21    1    1    2  503  501 -0.55258076450E+00 -0.36892138181E+02  0.71944432125E+03  0.72038980183E+03  0.00000000000E+00 0. -1.
         21    1    1    2  504  506 -0.11742265258E+02  0.46150252589E+02 -0.23539559083E+03  0.24016413302E+03  0.00000000000E+00 0. -1.
         21    1    1    2  505  503  0.53823841395E+02  0.91667067320E+02  0.32029002245E+02  0.11102123274E+03  0.00000000000E+00 0. -1.
         21    1    1    2  506  505 -0.41528995373E+02 -0.10092518173E+03  0.10490852647E+03  0.15138146746E+03  0.00000000000E+00 0. -1.
<scales pt_clust_3="36.89628" pt_clust_4="47.20051" pt_clust_5="14000.00000" pt_clust_6="111.63237"></scales>
<clustering>
<clus scale="   36.896">  1  3  2 -1</clus>
<clus scale="   47.201">  2  4  1 -1</clus>
<clus scale="  111.632">  2  6  1 -1</clus>
<clus scale="   36.896">  1  3  2 -1</clus>
</clustering>
</event>
<event>
 6    0  0.1463946E+003  0.7595886E+02  0.7546771E-02  0.1340927E+00
         21   -1    0    0  506  501  0.00000000000E+00  0.00000000000E+00  0.20439745832E+04  0.20439745832E+04  0.00000000000E+00 0. -1.
         21   -1    0    0  504  502 -0.00000000000E+00 -0.00000000000E+00 -0.48920829957E+02  0.48920829957E+02  0.00000000000E+00 0.  1.
         21    1    1    2  503  501 -0.98764044711E+01  0.47050538711E+02  0.29813185701E+03  0.30198327888E+03  0.00000000000E+00 0. -1.
         21    1    1    2  504  503 -0.24808458240E+02  0.49458613838E+02  0.12639260251E+03  0.13797356287E+03  0.00000000000E+00 0. -1.
         21    1    1    2  505  502  0.89063234668E+02 -0.11396154098E+02  0.11364369625E+02  0.90505695924E+02  0.00000000000E+00 0.  1.
         21    1    1    2  506  505 -0.54378371957E+02 -0.85112998451E+02  0.15591649241E+04  0.15624328754E+04  0.00000000000E+00 0. -1.
<scales pt_clust_3="48.07595" pt_clust_4="58.86257" pt_clust_5="75.95886" pt_clust_6="14000.00000"></scales>
<clustering>
<clus scale="   48.076">  1  3  2 -1</clus>
<clus scale="   58.863">  2  4  1 -1</clus>
<clus scale="   75.959">  2  5  1 -1</clus>
<clus scale="   48.076">  1  3  2 -1</clus>
</clustering>
</event>
<event>
 6    0  0.1463946E+003  0.2415777E+03  0.7546771E-02  0.1118746E+00
         21   -1    0    0  503  501  0.00000000000E+00  0.00000000000E+00  0.45387316708E+03  0.45387316708E+03  0.00000000000E+00 0.  1.
         21   -1    0    0  506  502 -0.00000000000E+00 -0.00000000000E+00 -0.87810417581E+03  0.87810417581E+03  0.00000000000E+00 0.  1.
         21    1    1    2  503  504 -0.20957776449E+03 -0.88037239848E+02  0.38001505647E+03  0.44281467694E+03  0.00000000000E+00 0.  1.
         21    1    1    2  504  505  0.12387857871E+03  0.86509842465E+02 -0.37448714256E+03  0.40381985470E+03  0.00000000000E+00 0.  1.
         21    1    1    2  505  502  0.28599245102E+02  0.92110564130E+02 -0.31017760643E+03  0.32482675440E+03  0.00000000000E+00 0.  1.
         21    1    1    2  506  501  0.57099940678E+02 -0.90583166747E+02 -0.11958131621E+03  0.16051605686E+03  0.00000000000E+00 0.  1.
<scales pt_clust_3="226.61523" pt_clust_4="66.87067" pt_clust_5="66.87067" pt_clust_6="107.07807"></scales>
<clustering>
<clus scale="   66.871">  4  5 -1 -1</clus>
<clus scale="  107.078">  2  6  1 -1</clus>
<clus scale="  226.615">  1  3  2 -1</clus>
<clus scale="  226.615">  1  3  2 -1</clus>
</clustering>
</event>
<event>
 6    0  0.1463946E+003  0.8747742E+02  0.7546771E-02  0.1309078E+00
         21   -1    0    0  504  501  0.00000000000E+00  0.00000000000E+00  0.17669398626E+03  0.17669398626E+03  0.00000000000E+00 0.  1.
         21   -1    0    0  503  502 -0.00000000000E+00 -0.00000000000E+00 -0.14941835389E+03  0.14941835389E+03  0.00000000000E+00 0.  1.
         21    1    1    2  503  501 -0.25832292563E+02 -0.44736633311E+02  0.10245673046E+02  0.52665429982E+02  0.00000000000E+00 0. -1.
         21    1    1    2  504  506 -0.17582487747E+02 -0.30467294925E+02  0.63068542936E+02  0.72215241075E+02  0.00000000000E+00 0.  1.
         21    1    1    2  505  502  0.85600518970E+02 -0.23312474659E+02 -0.19969315258E+02  0.90937857213E+02  0.00000000000E+00 0.  1.
         21    1    1    2  506  505 -0.42185738660E+02  0.98516402895E+02 -0.26069268357E+02  0.11029381188E+03  0.00000000000E+00 0.  1.
<scales pt_clust_3="61.80576" pt_clust_4="35.17670" pt_clust_5="14000.00000" pt_clust_6="87.47742"></scales>
<clustering>
<clus scale="   35.177">  1  4  2 -1</clus>
<clus scale="   61.806">  1  3  2 -1</clus>
<clus scale="   87.477">  1  6  2 -1</clus>
<clus scale="   35.177">  1  3  2 -1</clus>
</clustering>
</event>
<event>
 6    0  0.1463946E+003  0.8250510E+02  0.7546771E-02  0.1322089E+00
         21   -1    0    0  506  501  0.00000000000E+00  0.00000000000E+00  0.98079048795E+03  0.98079048795E+03  0.00000000000E+00 0. -1.
         21   -1    0    0  504  502 -0.00000000000E+00 -0.00000000000E+00 -0.13885023298E+04  0.13885023298E+04  0.00000000000E+00 0.  1.
         21    1    1    2  503  502 -0.35978290383E+02  0.56831181858E+02 -0.56871023144E+02  0.88082540175E+02  0.00000000000E+00 0.  1.
         21    1    1    2  504  505 -0.46418283633E+02 -0.52996391825E+02 -0.13019647111E+04  0.13038693890E+04  0.00000000000E+00 0.  1.
         21    1    1    2  505  501  0.10192388624E+03 -0.39938188919E+02  0.91825278656E+03  0.92475495000E+03  0.00000000000E+00 0. -1.
         21    1    1    2  506  503 -0.19527312220E+02  0.36103398887E+02  0.32871105851E+02  0.52585938554E+02  0.00000000000E+00 0.  1.
<scales pt_clust_3="67.94359" pt_clust_4="82.50510" pt_clust_5="14000.00000" pt_clust_6="41.04597"></scales>
<clustering>
<clus scale="   41.046">  1  6  2 -1</clus>
<clus scale="   67.944">  2  3  1 -1</clus>
<clus scale="   82.505">  2  4  1 -1</clus>
<clus scale="   41.046">  1  3  2 -1</clus>
</clustering>
</event>
<event>
 6    0  0.1463946E+003  0.1342373E+03  0.7546771E-02  0.1221300E+00
         21   -1    0    0  505  501  0.00000000000E+00  0.00000000000E+00  0.14228706462E+04  0.14228706462E+04  0.00000000000E+00 0. -1.
         21   -1    0    0  506  502 -0.00000000000E+00 -0.00000000000E+00 -0.29306462386E+03  0.29306462386E+03  0.00000000000E+00 0. -1.
         21    1    1    2  503  501 -0.64663195438E+02 -0.84799518285E+02  0.88381302956E+03  0.89022343171E+03  0.00000000000E+00 0. -1.
         21    1    1    2  504  502  0.18341947701E+03  0.76834654209E+02 -0.23015880839E+03  0.30416992901E+03  0.00000000000E+00 0. -1.
         21    1    1    2  505  504 -0.56743193198E+02  0.23747388641E+02  0.44702080152E+03  0.45123311651E+03  0.00000000000E+00 0.  1.
         21    1    1    2  506  503 -0.62013088379E+02 -0.15782524565E+02  0.29130999681E+02  0.70308792866E+02  0.00000000000E+00 0. -1.
<scales pt_clust_3="14000.00000" pt_clust_4="134.23735" pt_clust_5="61.51202" pt_clust_6="66.52554"></scales>
<clustering>
<clus scale="   61.512">  1  5  2 -1</clus>
<clus scale="   66.526">  2  6  1 -1</clus>
<clus scale="  134.237">  2  4  1 -1</clus>
<clus scale="   61.512">  1  3  2 -1</clus>
</clustering>
</event>
<event>
 6    0  0.1463946E+003  0.6474941E+02  0.7546771E-02  0.1378917E+00
         21   -1    0    0  505  501  0.00000000000E+00  0.00000000000E+00  0.14291136298E+04  0.14291136298E+04  0.00000000000E+00 0.  1.
         21   -1    0    0  504  502 -0.00000000000E+00 -0.00000000000E+00 -0.15862801391E+03  0.15862801391E+03  0.00000000000E+00 0. -1.
         21    1    1    2  503  501 -0.83897176969E+02  0.14330582059E+02  0.12060704275E+04  0.12090698813E+04  0.00000000000E+00 0.  1.
         21    1    1    2  504  506  0.14291811569E+02  0.32565184905E+02 -0.77261415057E+02  0.85053356209E+02  0.00000000000E+00 0. -1.
         21    1    1    2  505  502  0.44246911032E+02  0.35322522907E+02  0.18769270805E+03  0.19604597016E+03  0.00000000000E+00 0. -1.
         21    1    1    2  506  503  0.25358454368E+02 -0.82218289871E+02 -0.46016104554E+02  0.97572436043E+02  0.00000000000E+00 0. -1.
<scales pt_clust_3="64.74941" pt_clust_4="35.56328" pt_clust_5="58.32118" pt_clust_6="14000.00000"></scales>
<clustering>
<clus scale="   35.563">  2  4  1 -1</clus>
<clus scale="   58.321">  1  5  2 -1</clus>
<clus scale="   64.749">  1  3  2 -1</clus>
<clus scale="   58.321">  1  3  2 -1</clus>
</clustering>
</event>
<event>
 6    0  0.1463946E+003  0.1345784E+03  0.7546771E-02  0.1220816E+00
         21   -1    0    0  505  501  0.00000000000E+00  0.00000000000E+00  0.14110813340E+03  0.14110813340E+03  0.00000000000E+00 0.  1.
         21   -1    0    0  506  502 -0.00000000000E+00 -0.00000000000E+00 -0.45922571706E+03  0.45922571706E+03  0.00000000000E+00 0.  1.
         21    1    1    2  503  501 -0.12648117671E+03 -0.85201332383E+02 -0.57944534661E+02  0.16313897204E+03  0.00000000000E+00 0.  1.
         21    1    1    2  504  502  0.71638934523E+01 -0.33675757210E+02 -0.44018677257E+02  0.55884004335E+02  0.00000000000E+00 0.  1.
         21    1    1    2  505  504  0.46828207147E+02  0.12637638796E+03  0.18099172036E+02  0.13598328002E+03  0.00000000000E+00 0.  1.
         21    1    1    2  506  503  0.72489076114E+02 -0.74992983618E+01 -0.23425354378E+03  0.24532759406E+03  0.00000000000E+00 0.  1.
<scales pt_clust_3="134.57844" pt_clust_4="34.42932" pt_clust_5="14000.00000" pt_clust_6="81.37720"></scales>
<clustering>
<clus scale="   34.429">  2  4  1 -1</clus>
<clus scale="   81.377">  2  6  1 -1</clus>
<clus scale="  134.578">  2  3  1 -1</clus>
<clus scale="  134.578">  1  3  2 -1</clus>
</clustering>
</event>
<event>
 6    0  0.1463946E+003  0.1532111E+03  0.7546771E-02  0.1196582E+00
         21   -1    0    0  503  501  0.00000000000E+00  0.00000000000E+00  0.82437186356E+03  0.82437186356E+03  0.00000000000E+00 0.  1.
         21   -1    0    0  504  502 -0.00000000000E+00 -0.00000000000E+00 -0.13615910022E+03  0.13615910022E+03  0.00000000000E+00 0.  1.
         21    1    1    2  503  502  0.79258997269E+02  0.82886509405E+02  0.13829198821E+03  0.17965755229E+03  0.00000000000E+00 0.  1.
         21    1    1    2  504  506 -0.29363096814E+02 -0.18062373819E+03 -0.69335128307E+01  0.18312618560E+03  0.00000000000E+00 0.  1.
         21    1    1    2  505  501 -0.18768102172E+01  0.51541057424E+02  0.51810673439E+03  0.52066744784E+03  0.00000000000E+00 0.  1.
         21    1    1    2  506  505 -0.48019090237E+02  0.46196171366E+02  0.38747553571E+02  0.77079778047E+02  0.00000000000E+00 0.  1.
<scales pt_clust_3="153.21114" pt_clust_4="14000.00000" pt_clust_5="51.57522" pt_clust_6="73.98864"></scales>
<clustering>
<clus scale="   51.575">  1  5  2 -1</clus>
<clus scale="   73.989">  1  6  2 -1</clus>
<clus scale="  153.211">  1  3  2 -1</clus>
<clus scale="   51.575">  1  3  2 -1</clus>
</clustering>
</event>
<event>
 6    0  0.1463946E+003  0.6883197E+02  0.7546771E-02  0.1364111E+00
         21   -1    0    0  505  501  0.00000000000E+00  0.00000000000E+00  0.11336906410E+04  0.11336906410E+04  0.00000000000E+00 0.  1.
         21   -1    0    0  506  502 -0.00000000000E+00 -0.00000000000E+00 -0.21044447129E+03  0.21044447129E+03  0.00000000000E+00 0.  1.
         21    1    1    2  503  501 -0.20292557635E+02 -0.47912055053E+02  0.88150856993E+03  0.88304287086E+03  0.00000000000E+00 0.  1.
         21    1    1    2  504  503 -0.80008222211E+02 -0.48672229692E+02  0.18401013792E+03  0.20647041537E+03  0.00000000000E+00 0.  1.
         21    1    1    2  505  502  0.54049856427E+02  0.46604431239E+02  0.23718312452E+02  0.75205839776E+02  0.00000000000E+00 0.  1.
         21    1    1    2  506  504  0.46250923418E+02  0.49979853507E+02 -0.16599085056E+03  0.17941598631E+03  0.00000000000E+00 0.  1.
<scales pt_clust_3="52.03223" pt_clust_4="14000.00000" pt_clust_5="62.35384" pt_clust_6="68.83197"></scales>
<clustering>
<clus scale="   52.032">  1  3  2 -1</clus>
<clus scale="   62.354">  1  5  2 -1</clus>
<clus scale="   68.832">  2  6  1 -1</clus>
<clus scale="   52.032">  1  3  2 -1</clus>
</clustering>
</event>
<event>
 6    0  0.1463946E+003  0.1730465E+03  0.7546771E-02  0.1174708E+00
         21   -1    0    0  506  501  0.00000000000E+00  0.00000000000E+00  0.81782961779E+03  0.81782961779E+03  0.00000000000E+00 0.  1.
         21   -1    0    0  503  502 -0.00000000000E+00 -0.00000000000E+00 -0.58608215791E+03  0.58608215791E+03  0.00000000000E+00 0. -1.
         21    1    1    2  503  501  0.17997839820E+01 -0.39131817308E+02 -0.60812314836E+02  0.72337237879E+02  0.00000000000E+00 0. -1.
         21    1    1    2  504  505 -0.14734646190E+03  0.71526553153E+01  0.52071291914E+03  0.54120613861E+03  0.00000000000E+00 0.  1.
         21    1    1    2  505  502  0.17161708914E+03  0.54368548136E+02 -0.49220297979E+03  0.52409172635E+03  0.00000000000E+00 0. -1.
         21    1    1    2  506  504 -0.26070411222E+02 -0.22389386144E+02  0.26404983537E+03  0.26627667286E+03  0.00000000000E+00 0.  1.
<scales pt_clust_3="39.39491" pt_clust_4="14000.00000" pt_clust_5="173.04654" pt_clust_6="34.36497"></scales>
<clustering>
<clus scale="   34.365">  1  6  2 -1</clus>
<clus scale="   39.395">  2  3  1 -1</clus>
<clus scale="  173.047">  2  5  1 -1</clus>
<clus scale="   34.365">  1  3  2 -1</clus>
</clustering>
</event>
<event>
 6    0  0.1463946E+003  0.1076999E+03  0.7546771E-02  0.1264890E+00
         21   -1    0    0  503  501  0.00000000000E+00  0.00000000000E+00  0.75516710893E+02  0.75516710893E+02  0.00000000000E+00 0. -1.
         21   -1    0    0  505  502 -0.00000000000E+00 -0.00000000000E+00 -0.69576097732E+03  0.69576097732E+03  0.00000000000E+00 0. -1.
         21    1    1    2  503  506  0.11708694254E+03  0.34634545130E+02  0.17549014998E+00  0.12210214833E+03  0.00000000000E+00 0. -1.
         21    1    1    2  504  502 -0.28045254644E+02  0.19800635223E+02 -0.11516741428E+03  0.12017543333E+03  0.00000000000E+00 0. -1.
         21    1    1    2  505  501 -0.32102152406E+02  0.31581897785E+01 -0.36964140150E+03  0.37104620743E+03  0.00000000000E+00 0. -1.
         21    1    1    2  506  504 -0.56939535486E+02 -0.57593370132E+02 -0.13561094080E+03  0.15795389913E+03  0.00000000000E+00 0. -1.
<scales pt_clust_3="107.69988" pt_clust_4="44.84407" pt_clust_5="32.25713" pt_clust_6="14000.00000"></scales>
<clustering>
<clus scale="   32.257">  2  5  1 -1</clus>
<clus scale="   44.844">  2  4  1 -1</clus>
<clus scale="  107.700">  1  3  2 -1</clus>
<clus scale="  107.700">  1  3  2 -1</clus>
</clustering>
</event>
<event>
 6    0  0.1463946E+003  0.9619382E+02  0.7546771E-02  0.1288510E+00
         21   -1    0    0  506  501  0.00000000000E+00  0.00000000000E+00  0.13073727298E+04  0.13073727298E+04  0.00000000000E+00 0.  1.
         21   -1    0    0  503  502 -0.00000000000E+00 -0.00000000000E+00 -0.56511335458E+02  0.56511335458E+02  0.00000000000E+00 0.  1.
         21    1    1    2  503  504  0.52071277215E+01  0.80695011622E+02 -0.57817383637E+00  0.80864908117E+02  0.00000000000E+00 0.  1.
         21    1    1    2  504  505 -0.15766788373E+02 -0.79644680739E+02  0.19435635080E+03  0.21063299334E+03  0.00000000000E+00 0.  1.
         21    1    1    2  505  501  0.44427200502E+02 -0.43760155067E+02  0.95169798608E+03  0.95373884477E+03  0.00000000000E+00 0.  1.
         21    1    1    2  506  502 -0.33867539851E+02  0.42709824184E+02  0.10538523128E+03  0.11864731901E+03  0.00000000000E+00 0.  1.
<scales pt_clust_3="96.19382" pt_clust_4="14000.00000" pt_clust_5="61.25307" pt_clust_6="54.50816"></scales>
<clustering>
<clus scale="   54.508">  2  6  1 -1</clus>
<clus scale="   61.253">  1  5  2 -1</clus>
<clus scale="   96.194">  2  3  1 -1</clus>
<clus scale="   61.253">  1  3  2 -1</clus>
</clustering>
</event>
<event>
 6    0  0.1463946E+003  0.8323640E+02  0.7546771E-02  0.1320110E+00
         21   -1    0    0  503  501  0.00000000000E+00  0.00000000000E+00  0.14068821983E+04  0.14068821983E+04  0.00000000000E+00 0.  1.
         21   -1    0    0  505  502 -0.00000000000E+00 -0.00000000000E+00 -0.56219491728E+03  0.56219491728E+03  0.00000000000E+00 0.  1.
         21    1    1    2  503  504  0.44588430890E+02  0.14351880502E+02  0.27076591440E+03  0.27478770904E+03  0.00000000000E+00 0.  1.
         21    1    1    2  504  502 -0.81322303601E+00 -0.55499574516E+02  0.53637459121E+03  0.53923887675E+03  0.00000000000E+00 0.  1.
         21    1    1    2  505  506 -0.26609902501E+02 -0.78729718482E+02 -0.54944635090E+03  0.55569573330E+03  0.00000000000E+00 0.  1.
         21    1    1    2  506  501 -0.17165305353E+02  0.11987741250E+03  0.58699312626E+03  0.59935479644E+03  0.00000000000E+00 0.  1.
<scales pt_clust_3="46.84127" pt_clust_4="52.76776" pt_clust_5="14000.00000" pt_clust_6="83.23640"></scales>
<clustering>
<clus scale="   46.841">  1  3  2 -1</clus>
<clus scale="   52.768">  1  4  2 -1</clus>
<clus scale="   83.236">  1  6  2 -1</clus>
<clus scale="   46.841">  1  3  2 -1</clus>
</clustering>
</event>
<event>
 6    0  0.1463946E+003  0.9741944E+02  0.7546771E-02  0.1285818E+00
         21   -1    0    0  505  501  0.00000000000E+00  0.00000000000E+00  0.46015558575E+03  0.46015558575E+03  0.00000000000E+00 0. -1.
         21   -1    0    0  504  502 -0.00000000000E+00 -0.00000000000E+00 -0.72108592151E+03  0.72108592151E+03  0.00000000000E+00 0.  1.
         21    1    1    2  503  502  0.12511581276E+03 -0.30119006797E+02 -0.26492244035E+03  0.29452507631E+03  0.00000000000E+00 0.  1.
         21    1    1    2  504  506 -0.39574143849E+02  0.75287607491E+02 -0.42068266861E+03  0.42919487925E+03  0.00000000000E+00 0.  1.
         21    1    1    2  505  503 -0.73512695699E+02 -0.87547623856E+02  0.21748136379E+03  0.24569665539E+03  0.00000000000E+00 0. -1.
         21    1    1    2  506  501 -0.12028973209E+02  0.42379023162E+02  0.20719340940E+03  0.21182489632E+03  0.00000000000E+00 0. -1.
<scales pt_clust_3="97.41944" pt_clust_4="85.78706" pt_clust_5="14000.00000" pt_clust_6="44.05312"></scales>
<clustering>
<clus scale="   44.053">  1  6  2 -1</clus>
<clus scale="   85.787">  2  4  1 -1</clus>
<clus scale="   97.419">  2  3  1 -1</clus>
<clus scale="   44.053">  1  3  2 -1</clus>
</clustering>
</event>
<event>
 6    0  0.1463946E+003  0.1068723E+03  0.7546771E-02  0.1266474E+00
         21   -1    0    0  504  501  0.00000000000E+00  0.00000000000E+00  0.10490685097E+04  0.10490685097E+04  0.00000000000E+00 0. -1.
         21   -1    0    0  506  502 -0.00000000000E+00 -0.00000000000E+00 -0.27515579420E+02  0.27515579420E+02  0.00000000000E+00 0. -1.
         21    1    1    2  503  502 -0.31256046680E+02  0.10040803882E+03  0.28520683476E+03  0.30397640255E+03  0.00000000000E+00 0. -1.
         21    1    1    2  504  503 -0.52730023834E+02  0.64728492595E+01  0.19304863449E+03  0.20022519439E+03  0.00000000000E+00 0. -1.
         21    1    1    2  505  501  0.11236259654E+03 -0.66599392204E+02  0.40753102220E+03  0.42795135962E+03  0.00000000000E+00 0. -1.
         21    1    1    2  506  505 -0.28376526021E+02 -0.40281495880E+02  0.13576643881E+03  0.14443113253E+03  0.00000000000E+00 0. -1.
<scales pt_clust_3="106.87231" pt_clust_4="57.12261" pt_clust_5="14000.00000" pt_clust_6="49.27298"></scales>
<clustering>
<clus scale="   49.273">  2  6  1 -1</clus>
<clus scale="   57.123">  1  4  2 -1</clus>
<clus scale="  106.872">  2  3  1 -1</clus>
<clus scale="   57.123">  1  3  2 -1</clus>
</clustering>
</event>
<event>
 6    0  0.1463946E+003  0.1183041E+03  0.7546771E-02  0.1245921E+00
         21   -1    0    0  505  501  0.00000000000E+00  0.00000000000E+00  0.93964860295E+02  0.93964860295E+02  0.00000000000E+00 0. -1.
         21   -1    0    0  504  502 -0.00000000000E+00 -0.00000000000E+00 -0.86087505630E+03  0.86087505630E+03  0.00000000000E+00 0. -1.
         21    1    1    2  503  501  0.89403883297E+02 -0.27119895310E+02 -0.22550995654E+03  0.24409687333E+03  0.00000000000E+00 0. -1.
         21    1    1    2  504  506 -0.14432150373E+02 -0.27356647269E+02 -0.49350708093E+03  0.49447539073E+03  0.00000000000E+00 0. -1.
         21    1    1    2  505  502 -0.83141812896E+02  0.95090551617E+02  0.28387974758E+02  0.12946293357E+03  0.00000000000E+00 0. -1.
         21    1    1    2  506  503  0.81700799719E+01 -0.40614009038E+02 -0.76281133293E+02  0.86804718958E+02  0.00000000000E+00 0. -1.
<scales pt_clust_3="14000.00000" pt_clust_4="30.93013" pt_clust_5="118.30412" pt_clust_6="46.95720"></scales>
<clustering>
<clus scale="   30.930">  2  4  1 -1</clus>
<clus scale="   46.957">  2  6  1 -1</clus>
<clus scale="  118.304">  1  5  2 -1</clus>
<clus scale="  118.304">  1  3  2 -1</clus>
</clustering>
</event>
<event>
 6    0  0.1463946E+003  0.1347159E+03  0.7546771E-02  0.1220621E+00
         21   -1    0    0  506  501  0.00000000000E+00  0.00000000000E+00  0.21462271383E+03  0.21462271383E+03  0.00000000000E+00 0. -1.
         21   -1    0    0  504  502 -0.00000000000E+00 -0.00000000000E+00 -0.11796529226E+04  0.11796529226E+04  0.00000000000E+00 0. -1.
         21    1    1    2  503  502  0.21967621367E+02  0.25701464794E+02 -0.98534416968E+02  0.10417376353E+03  0.00000000000E+00 0. -1.
         21    1    1    2  504  501  0.12553702799E+03  0.40311155994E+02 -0.98576624355E+03  0.99454493192E+03  0.00000000000E+00 0. -1.
         21    1    1    2  505  503 -0.14168553513E+02 -0.46056503777E+02 -0.56356641191E+02  0.74148637581E+02  0.00000000000E+00 0. -1.
         21    1    1    2  506  505 -0.13333609584E+03 -0.19956117011E+02  0.17562709291E+03  0.22140830342E+03  0.00000000000E+00 0. -1.
<scales pt_clust_3="33.81038" pt_clust_4="14000.00000" pt_clust_5="46.31632" pt_clust_6="134.71587"></scales>
<clustering>
<clus scale="   33.810">  2  3  1 -1</clus>
<clus scale="   46.316">  2  5  1 -1</clus>
<clus scale="  134.716">  1  6  2 -1</clus>
<clus scale="  134.716">  1  3  2 -1</clus>
</clustering>
</event>
<event>
 6    0  0.1463946E+003  0.9990446E+02  0.7546771E-02  0.1280497E+00
         21   -1    0    0  504  501  0.00000000000E+00  0.00000000000E+00  0.18286827743E+03  0.18286827743E+03  0.00000000000E+00 0.  1.
         21   -1    0    0  505  502 -0.00000000000E+00 -0.00000000000E+00 -0.74230079546E+03  0.74230079546E+03  0.00000000000E+00 0.  1.
         21    1    1    2  503  502 -0.96709067826E+02  0.14411858770E+02 -0.49376367794E+03  0.50335168136E+03  0.00000000000E+00 0.  1.
         21    1    1    2  504  506  0.15901969957E+02 -0.34414906094E+02  0.15088843076E+03  0.15557820203E+03  0.00000000000E+00 0.  1.
         21    1    1    2  505  501 -0.55246857145E+01 -0.37580178311E+02 -0.11471569487E+03  0.12084073239E+03  0.00000000000E+00 0. -1.
         21    1    1    2  506  503  0.86331783584E+02  0.57583225635E+02 -0.10184157598E+03  0.14539845711E+03  0.00000000000E+00 0. -1.
<scales pt_clust_3="99.90446" pt_clust_4="37.91119" pt_clust_5="41.31937" pt_clust_6="14000.00000"></scales>
<clustering>
<clus scale="   37.911">  1  4  2 -1</clus>
<clus scale="   41.319">  2  5  1 -1</clus>
<clus scale="   99.904">  2  3  1 -1</clus>
<clus scale="   37.911">  1  3  2 -1</clus>
</clustering>
</event>
<event>
 6    0  0.1463946E+003  0.6559324E+02  0.7546771E-02  0.1375754E+00
         21   -1    0    0  504  501  0.00000000000E+00  0.00000000000E+00  0.25096140983E+02  0.25096140983E+02  0.00000000000E+00 0. -1.
         21   -1    0    0  505  502 -0.00000000000E+00 -0.00000000000E+00 -0.14789021695E+04  0.14789021695E+04  0.00000000000E+00 0. -1.
         21    1    1    2  503  502  0.48349742721E+02  0.34792071670E+01 -0.10270322182E+04  0.10281755588E+04  0.00000000000E+00 0. -1.
         21    1    1    2  504  506 -0.11985563986E+02 -0.43288852925E+02 -0.96271823091E+02  0.10623484576E+03  0.00000000000E+00 0. -1.
         21    1    1    2  505  501  0.49382108876E+02  0.54230030100E+02 -0.10659633528E+03  0.12939191450E+03  0.00000000000E+00 0. -1.
         21    1    1    2  506  503 -0.85746287611E+02 -0.14420384343E+02 -0.22390565194E+03  0.24019599142E+03  0.00000000000E+00 0. -1.
<scales pt_clust_3="48.06175" pt_clust_4="44.91746" pt_clust_5="65.59324" pt_clust_6="14000.00000"></scales>
<clustering>
<clus scale="   44.917">  1  4  2 -1</clus>
<clus scale="   48.062">  2  3  1 -1</clus>
<clus scale="   65.593">  1  5  2 -1</clus>
<clus scale="   44.917">  1  3  2 -1</clus>
</clustering>
</event>
<event>
 6    0  0.1463946E+003  0.9406979E+02  0.7546771E-02  0.1293285E+00
         21   -1    0    0  506  501  0.00000000000E+00  0.00000000000E+00  0.22032822411E+03  0.22032822411E+03  0.00000000000E+00 0. -1.
         21   -1    0    0  505  502 -0.00000000000E+00 -0.00000000000E+00 -0.75311462411E+03  0.75311462411E+03  0.00000000000E+00 0. -1.
         21    1    1    2  503  501 -0.55004293304E+02 -0.91256738467E+02 -0.80338773166E+02  0.13344505638E+03  0.00000000000E+00 0.  1.
         21    1    1    2  504  502  0.55671170264E+02 -0.55561861409E+02 -0.74178872544E+02  0.10811523840E+03  0.00000000000E+00 0.  1.
         21    1    1    2  505  503  0.50644299978E+02  0.66161286743E+02 -0.53871318384E+03  0.54511838662E+03  0.00000000000E+00 0. -1.
         21    1    1    2  506  504 -0.51311176937E+02  0.80657313133E+02  0.16044442954E+03  0.18676416683E+03  0.00000000000E+00 0. -1.
<scales pt_clust_3="14000.00000" pt_clust_4="78.65367" pt_clust_5="92.45611" pt_clust_6="94.06979"></scales>
<clustering>
<clus scale="   78.654">  2  4  1 -1</clus>
<clus scale="   94.070">  1  6  2 -1</clus>
<clus scale="   92.456">  2  5  1 -1</clus>
<clus scale="   94.070">  1  3  2 -1</clus>
</clustering>
</event>
<event>
 6    0  0.1463946E+003  0.1036531E+03  0.7546771E-02  0.1272796E+00
         21   -1    0    0  506  501  0.00000000000E+00  0.00000000000E+00  0.19090043274E+03  0.19090043274E+03  0.00000000000E+00 0. -1.
         21   -1    0    0  503  502 -0.00000000000E+00 -0.00000000000E+00 -0.42773976923E+03  0.42773976923E+03  0.00000000000E+00 0.  1.
         21    1    1    2  503  505  0.10182676824E+03 -0.37312527335E+02 -0.35084744043E+03  0.36722587312E+03  0.00000000000E+00 0.  1.
         21    1    1    2  504  502 -0.49357001398E+02  0.72810554848E+02  0.15041014334E+02  0.89239691822E+02  0.00000000000E+00 0. -1.
         21    1    1    2  505  501 -0.29485647138E+02  0.10939760444E+02  0.10537259310E+03  0.10996574522E+03  0.00000000000E+00 0. -1.
         21    1    1    2  506  504 -0.22984119703E+02 -0.46437787957E+02 -0.64055034948E+01  0.52208891809E+02  0.00000000000E+00 0. -1.
<scales pt_clust_3="103.65308" pt_clust_4="14000.00000" pt_clust_5="31.44967" pt_clust_6="53.41350"></scales>
<clustering>
<clus scale="   31.450">  1  5  2 -1</clus>
<clus scale="   53.414">  1  6  2 -1</clus>
<clus scale="  103.653">  2  3  1 -1</clus>
<clus scale="   31.450">  1  3  2 -1</clus>
</clustering>
</event>
<event>
 6    0  0.1463946E+003  0.1956224E+03  0.7546771E-02  0.1153486E+00
         21   -1    0    0  504  501  0.00000000000E+00  0.00000000000E+00  0.10803221330E+04  0.10803221330E+04  0.00000000000E+00 0. -1.
         21   -1    0    0  506  502 -0.00000000000E+00 -0.00000000000E+00 -0.28206752538E+03  0.28206752538E+03  0.00000000000E+00 0. -1.
         21    1    1    2  503  502  0.68585735882E+02  0.12019506282E+03  0.12073248069E+03  0.18364963432E+03  0.00000000000E+00 0. -1.
         21    1    1    2  504  503  0.81408418449E+01  0.76599728055E+02  0.82697791827E+03  0.83055780590E+03  0.00000000000E+00 0. -1.
         21    1    1    2  505  501  0.40181189797E+02 -0.18023201719E+02  0.42351985730E+02  0.61098727557E+02  0.00000000000E+00 0.  1.
         21    1    1    2  506  505 -0.11690776752E+03 -0.17877158916E+03 -0.19180777711E+03  0.28708349057E+03  0.00000000000E+00 0. -1.
<scales pt_clust_3="14000.00000" pt_clust_4="74.12969" pt_clust_5="44.03821" pt_clust_6="195.62238"></scales>
<clustering>
<clus scale="   44.038">  1  5  2 -1</clus>
<clus scale="   74.130">  1  4  2 -1</clus>
<clus scale="  195.622">  2  6  1 -1</clus>
<clus scale="   44.038">  1  3  2 -1</clus>
</clustering>
</event>
<event>
 6    0  0.1463946E+003  0.1725730E+03  0.7546771E-02  0.1175191E+00
         21   -1    0    0  504  501  0.00000000000E+00  0.00000000000E+00  0.21144923324E+04  0.21144923324E+04  0.00000000000E+00 0.  1.
         21   -1    0    0  505  502 -0.00000000000E+00 -0.00000000000E+00 -0.41336446543E+03  0.41336446543E+03  0.00000000000E+00 0.  1.
         21    1    1    2  503  501  0.83991016565E+02  0.20018129236E+02  0.13195260802E+04  0.13223480226E+04  0.00000000000E+00 0.  1.
         21    1    1    2  504  506 -0.38037488113E+02 -0.76157258625E+02  0.77625100429E+02  0.11520605349E+03  0.00000000000E+00 0. -1.
         21    1    1    2  505  503  0.87792097892E+02 -0.56058873188E+02  0.67355809400E+03  0.68156478468E+03  0.00000000000E+00 0.  1.
         21    1    1    2  506  502 -0.13374562634E+03  0.11219800258E+03 -0.36958140767E+03  0.40873793713E+03  0.00000000000E+00 0.  1.
<scales pt_clust_3="66.19604" pt_clust_4="85.12801" pt_clust_5="14000.00000" pt_clust_6="172.57301"></scales>
<clustering>
<clus scale="   85.128">  1  4  2 -1</clus>
<clus scale="   66.196">  1  3  2 -1</clus>
<clus scale="  172.573">  2  6  1 -1</clus>
<clus scale="   85.128">  1  3  2 -1</clus>
</clustering>
</event>
<event>
 6    0  0.1463946E+003  0.9107980E+02  0.7546771E-02  0.1300258E+00
         21   -1    0    0  504  501  0.00000000000E+00  0.00000000000E+00  0.17692289883E+03  0.17692289883E+03  0.00000000000E+00 0. -1.
         21   -1    0    0  505  502 -0.00000000000E+00 -0.00000000000E+00 -0.19821980346E+03  0.19821980346E+03  0.00000000000E+00 0. -1.
         21    1    1    2  503  502  0.43739165711E+02  0.16860992431E+00 -0.57436007805E+02  0.72194446040E+02  0.00000000000E+00 0.  1.
         21    1    1    2  504  506  0.49180562442E+02  0.38216481459E+00  0.52468620608E+02  0.71915435899E+02  0.00000000000E+00 0. -1.
         21    1    1    2  505  501 -0.66963467445E+02 -0.89746519466E+02  0.43951579516E+02  0.12029249798E+03  0.00000000000E+00 0. -1.
         21    1    1    2  506  503 -0.25956260708E+02  0.89195744727E+02 -0.60281096948E+02  0.11074032236E+03  0.00000000000E+00 0. -1.
<scales pt_clust_3="43.73949" pt_clust_4="52.37005" pt_clust_5="91.07980" pt_clust_6="14000.00000"></scales>
<clustering>
<clus scale="   43.739">  2  3  1 -1</clus>
<clus scale="   52.370">  1  4  2 -1</clus>
<clus scale="   91.080">  1  5  2 -1</clus>
<clus scale="   52.370">  1  3  2 -1</clus>
</clustering>
</event>
<event>
 6    0  0.1463946E+003  0.7720257E+02  0.7546771E-02  0.1337183E+00
         21   -1    0    0  505  501  0.00000000000E+00  0.00000000000E+00  0.20969889179E+03  0.20969889179E+03  0.00000000000E+00 0. -1.
         21   -1    0    0  503  502 -0.00000000000E+00 -0.00000000000E+00 -0.64301569345E+03  0.64301569345E+03  0.00000000000E+00 0.  1.
         21    1    1    2  503  504  0.41417667626E+02 -0.87003047986E+01 -0.48511899967E+03  0.48696156145E+03  0.00000000000E+00 0.  1.
         21    1    1    2  504  506 -0.89295898245E+02 -0.47471575824E+01 -0.64243985276E+02  0.11010714142E+03  0.00000000000E+00 0.  1.
         21    1    1    2  505  502  0.86085639223E+02  0.14399393087E+02 -0.39260895884E+02  0.95705264993E+02  0.00000000000E+00 0.  1.
         21    1    1    2  506  501 -0.38207408604E+02 -0.95193070608E+00  0.15530707916E+03  0.15994061736E+03  0.00000000000E+00 0. -1.
<scales pt_clust_3="41.66385" pt_clust_4="77.20257" pt_clust_5="14000.00000" pt_clust_6="38.21927"></scales>
<clustering>
<clus scale="   38.219">  1  6  2 -1</clus>
<clus scale="   41.664">  2  3  1 -1</clus>
<clus scale="   77.203">  2  4  1 -1</clus>
<clus scale="   38.219">  1  3  2 -1</clus>
</clustering>
</event>
<event>
 6    0  0.1463946E+003  0.7755002E+02  0.7546771E-02  0.1336151E+00
         21   -1    0    0  505  501  0.00000000000E+00  0.00000000000E+00  0.78419770526E+02  0.78419770526E+02  0.00000000000E+00 0.  1.
         21   -1    0    0  506  502 -0.00000000000E+00 -0.00000000000E+00 -0.47873202097E+03  0.47873202097E+03  0.00000000000E+00 0.  1.
         21    1    1    2  503  504 -0.10108390131E+03 -0.18038570172E+02 -0.20165242440E+03  0.22628973769E+03  0.00000000000E+00 0.  1.
         21    1    1    2  504  501  0.55896866874E+02 -0.23538204458E+02  0.40318038542E+02  0.72828916148E+02  0.00000000000E+00 0.  1.
         21    1    1    2  505  502  0.64403892824E+02  0.17947107142E+02 -0.16335284059E+03  0.17650527073E+03  0.00000000000E+00 0. -1.
         21    1    1    2  506  503 -0.19216858392E+02  0.23629667488E+02 -0.75625023991E+02  0.81527866928E+02  0.00000000000E+00 0.  1.
<scales pt_clust_3="14000.00000" pt_clust_4="59.56155" pt_clust_5="77.55002" pt_clust_6="30.45733"></scales>
<clustering>
<clus scale="   30.457">  2  6  1 -1</clus>
<clus scale="   59.562">  1  4  2 -1</clus>
<clus scale="   77.550">  2  5  1 -1</clus>
<clus scale="   59.562">  1  3  2 -1</clus>
</clustering>
</event>
<event>
 6    0  0.1463946E+003  0.1339695E+03  0.7546771E-02  0.1221682E+00
         21   -1    0    0  506  501  0.00000000000E+00  0.00000000000E+00  0.12126076529E+03  0.12126076529E+03  0.00000000000E+00 0. -1.
         21   -1    0    0  503  502 -0.00000000000E+00 -0.00000000000E+00 -0.95068773970E+03  0.95068773970E+03  0.00000000000E+00 0.  1.
         21    1    1    2  503  501  0.28234058539E+01  0.40584422493E+02  0.13429288622E+02  0.42841717549E+02  0.00000000000E+00 0. -1.
         21    1    1    2  504  505 -0.81405066139E+02  0.27281853541E+02 -0.18737964797E+03  0.20611214617E+03  0.00000000000E+00 0.  1.
         21    1    1    2  505  502 -0.73841045322E+02 -0.22924481116E+02 -0.65951645006E+03  0.66403311643E+03  0.00000000000E+00 0.  1.
         21    1    1    2  506  504  0.15242270561E+03 -0.44941794918E+02  0.40398350034E+01  0.15896152485E+03  0.00000000000E+00 0. -1.
<scales pt_clust_3="40.68251" pt_clust_4="14000.00000" pt_clust_5="76.96603" pt_clust_6="133.96950"></scales>
<clustering>
<clus scale="   40.683">  1  3  2 -1</clus>
<clus scale="   76.966">  2  5  1 -1</clus>
<clus scale="  133.969">  1  6  2 -1</clus>
<clus scale="   40.683">  1  3  2 -1</clus>
</clustering>
</event>
<event>
 6    0  0.1463946E+003  0.6702884E+02  0.7546771E-02  0.1370498E+00
         21   -1    0    0  504  501  0.00000000000E+00  0.00000000000E+00  0.79339994912E+03  0.79339994912E+03  0.00000000000E+00 0.  1.
         21   -1    0    0  506  502 -0.00000000000E+00 -0.00000000000E+00 -0.20738948425E+03  0.20738948425E+03  0.00000000000E+00 0.  1.
         21    1    1    2  503  502 -0.85630785941E+02 -0.59993998524E+01 -0.91538195488E+02  0.12549049977E+03  0.00000000000E+00 0.  1.
         21    1    1    2  504  503  0.14973519999E+02  0.81620121495E+02  0.11211531811E+03  0.13948439013E+03  0.00000000000E+00 0.  1.
         21    1    1    2  505  501  0.35833084806E+02 -0.57127733793E+02  0.64420524096E+03  0.64772523528E+03  0.00000000000E+00 0.  1.
         21    1    1    2  506  505  0.34824181136E+02 -0.18492987850E+02 -0.78771898716E+02  0.88089308198E+02  0.00000000000E+00 0.  1.
<scales pt_clust_3="59.44194" pt_clust_4="14000.00000" pt_clust_5="67.02884" pt_clust_6="39.42986"></scales>
<clustering>
<clus scale="   39.430">  2  6  1 -1</clus>
<clus scale="   59.442">  2  3  1 -1</clus>
<clus scale="   67.029">  1  5  2 -1</clus>
<clus scale="   67.029">  1  3  2 -1</clus>
</clustering>
</event>
<event>
 6    0  0.1463946E+003  0.7788724E+02  0.7546771E-02  0.1335156E+00
         21   -1    0    0  504  501  0.00000000000E+00  0.00000000000E+00  0.38285381298E+04  0.38285381298E+04  0.00000000000E+00 0.  1.
         21   -1    0    0  505  502 -0.00000000000E+00 -0.00000000000E+00 -0.10367174461E+03  0.10367174461E+03  0.00000000000E+00 0.  1.
         21    1    1    2  503  501  0.13764097619E+02 -0.47264798565E+02  0.31775886108E+04  0.31779699166E+04  0.00000000000E+00 0.  1.
         21    1    1    2  504  502 -0.91858780092E+02 -0.80952311717E+01  0.15567079502E+03  0.18093359188E+03  0.00000000000E+00 0. -1.
         21    1    1    2  505  506  0.18247647942E+02  0.58384953659E+02 -0.78430718609E+02  0.99464350853E+02  0.00000000000E+00 0.  1.
         21    1    1    2  506  503  0.59847034531E+02 -0.30249239224E+01  0.47003769804E+03  0.47384201511E+03  0.00000000000E+00 0.  1.
<scales pt_clust_3="49.22816" pt_clust_4="77.88724" pt_clust_5="60.50898" pt_clust_6="14000.00000"></scales>
<clustering>
<clus scale="   49.228">  1  3  2 -1</clus>
<clus scale="   60.509">  2  5  1 -1</clus>
<clus scale="   77.887">  2  4  1 -1</clus>
<clus scale="   49.228">  1  3  2 -1</clus>
</clustering>
</event>
<event>
 6    0  0.1463946E+003  0.1056661E+03  0.7546771E-02  0.1268813E+00
         21   -1    0    0  503  501  0.00000000000E+00  0.00000000000E+00  0.11170680815E+03  0.11170680815E+03  0.00000000000E+00 0.  1.
         21   -1    0    0  505  502 -0.00000000000E+00 -0.00000000000E+00 -0.79960204787E+03  0.79960204787E+03  0.00000000000E+00 0.  1.
         21    1    1    2  503  506 -0.13811121579E+02  0.81672130877E+02  0.74783627176E+02  0.11159603458E+03  0.00000000000E+00 0.  1.
         21    1    1    2  504  502 -0.74797076656E+01 -0.62904365529E+02 -0.44942484641E+03  0.45386737909E+03  0.00000000000E+00 0.  1.
         21    1    1    2  505  501 -0.43531825677E+02  0.27320972394E+02 -0.53499762977E+02  0.74186791398E+02  0.00000000000E+00 0.  1.
         21    1    1    2  506  504  0.64822654921E+02 -0.46088737743E+02 -0.25975425751E+03  0.27165865095E+03  0.00000000000E+00 0.  1.
<scales pt_clust_3="14000.00000" pt_clust_4="62.87385" pt_clust_5="51.39509" pt_clust_6="105.66610"></scales>
<clustering>
<clus scale="   51.395">  1  5  2 -1</clus>
<clus scale="   62.874">  2  4  1 -1</clus>
<clus scale="  105.666">  2  6  1 -1</clus>
<clus scale="   51.395">  1  3  2 -1</clus>
</clustering>
</event>
<event>
 6    0  0.1463946E+003  0.8943942E+02  0.7546771E-02  0.1304215E+00
         21   -1    0    0  504  501  0.00000000000E+00  0.00000000000E+00  0.25294146678E+03  0.25294146678E+03  0.00000000000E+00 0.  1.
         21   -1    0    0  505  502 -0.00000000000E+00 -0.00000000000E+00 -0.11550157071E+03  0.11550157071E+03  0.00000000000E+00 0.  1.
         21    1    1    2  503  506  0.19990615657E+02  0.81937799240E+02  0.11369857677E+03  0.14156551140E+03  0.00000000000E+00 0.  1.
         21    1    1    2  504  502 -0.27544858835E+02 -0.13115839581E+02 -0.44472079969E+02  0.53930607199E+02  0.00000000000E+00 0.  1.
         21    1    1    2  505  503  0.58028506352E+02 -0.83198866186E+02  0.23792042910E+02  0.10418934778E+03  0.00000000000E+00 0.  1.
         21    1    1    2  506  501 -0.50474263175E+02  0.14376906527E+02  0.44421356359E+02  0.68757571111E+02  0.00000000000E+00 0.  1.
<scales pt_clust_3="14000.00000" pt_clust_4="30.50811" pt_clust_5="89.43942" pt_clust_6="56.80501"></scales>
<clustering>
<clus scale="   30.508">  2  4  1 -1</clus>
<clus scale="   56.805">  1  6  2 -1</clus>
<clus scale="   89.439">  2  5  1 -1</clus>
<clus scale="   56.805">  1  3  2 -1</clus>
</clustering>
</event>
<event>
 6    0  0.1463946E+003  0.1496812E+03  0.7546771E-02  0.1200865E+00
         21   -1    0    0  504  501  0.00000000000E+00  0.00000000000E+00  0.39881376203E+03  0.39881376203E+03  0.00000000000E+00 0.  1.
         21   -1    0    0  505  502 -0.00000000000E+00 -0.00000000000E+00 -0.12877064647E+04  0.12877064647E+04  0.00000000000E+00 0. -1.
         21    1    1    2  503  501  0.40554838588E+02 -0.34947271798E+02  0.11939480993E+03  0.13084772591E+03  0.00000000000E+00 0. -1.
         21    1    1    2  504  502 -0.68657355866E+02  0.16462745228E+02 -0.41040143470E+02  0.81664850891E+02  0.00000000000E+00 0.  1.
         21    1    1    2  505  506  0.33880427601E+02  0.12906150140E+03 -0.12046682676E+04  0.12120356387E+04  0.00000000000E+00 0. -1.
         21    1    1    2  506  503 -0.57779103235E+01 -0.11057697483E+03  0.23742089850E+03  0.26197201121E+03  0.00000000000E+00 0.  1.
<scales pt_clust_3="47.17574" pt_clust_4="70.60350" pt_clust_5="133.42153" pt_clust_6="47.17574"></scales>
<clustering>
<clus scale="   47.176">  3  6 -1 -1</clus>
<clus scale="   70.604">  1  4  2 -1</clus>
<clus scale="  133.422">  2  5  1 -1</clus>
<clus scale="   70.604">  1  3  2 -1</clus>
</clustering>
</event>
<event>
 6    0  0.1463946E+003  0.1140526E+03  0.7546771E-02  0.1253244E+00
         21   -1    0    0  505  501  0.00000000000E+00  0.00000000000E+00  0.11488843804E+03  0.11488843804E+03  0.00000000000E+00 0.  1.
         21   -1    0    0  504  502 -0.00000000000E+00 -0.00000000000E+00 -0.18539405330E+04  0.18539405330E+04  0.00000000000E+00 0.  1.
         21    1    1    2  503  506  0.53942377061E+01 -0.33422178388E+02 -0.78223669247E+02  0.85235451774E+02  0.00000000000E+00 0. -1.
         21    1    1    2  504  501 -0.85842637829E+02  0.50053749712E+02 -0.56241391543E+03  0.57112498510E+03  0.00000000000E+00 0.  1.
         21    1    1    2  505  503  0.11365284305E+03 -0.18807268142E+02  0.75724435250E+02  0.13785815958E+03  0.00000000000E+00 0.  1.
         21    1    1    2  506  502 -0.33204442924E+02  0.21756968187E+01 -0.11741389455E+04  0.11746103746E+04  0.00000000000E+00 0.  1.
<scales pt_clust_3="33.19009" pt_clust_4="14000.00000" pt_clust_5="114.05257" pt_clust_6="33.27565"></scales>
<clustering>
<clus scale="   33.276">  2  6  1 -1</clus>
<clus scale="   33.190">  2  3  1 -1</clus>
<clus scale="  114.053">  1  5  2 -1</clus>
<clus scale="  114.053">  1  3  2 -1</clus>
</clustering>
</event>
<event>
 6    0  0.1463946E+003  0.1990975E+03  0.7546771E-02  0.1150503E+00
         21   -1    0    0  505  501  0.00000000000E+00  0.00000000000E+00  0.11412827560E+04  0.11412827560E+04  0.00000000000E+00 0. -1.
         21   -1    0    0  504  502 -0.00000000000E+00 -0.00000000000E+00 -0.27964390094E+03  0.27964390094E+03  0.00000000000E+00 0.  1.
         21    1    1    2  503  502 -0.14025341429E+03  0.14127329825E+02  0.79272364553E+03  0.80515922639E+03  0.00000000000E+00 0. -1.
         21    1    1    2  504  506  0.18258381238E+02 -0.31618409694E+02 -0.17697287390E+03  0.18070000114E+03  0.00000000000E+00 0.  1.
         21    1    1    2  505  503 -0.68438850930E+02 -0.48762292754E+02  0.21531565521E+03  0.23113301125E+03  0.00000000000E+00 0.  1.
         21    1    1    2  506  501  0.19043388398E+03  0.66253372624E+02  0.30572428247E+02  0.20393441818E+03  0.00000000000E+00 0.  1.
<scales pt_clust_3="14000.00000" pt_clust_4="36.51154" pt_clust_5="84.35456" pt_clust_6="199.09747"></scales>
<clustering>
<clus scale="   36.512">  2  4  1 -1</clus>
<clus scale="   84.355">  1  5  2 -1</clus>
<clus scale="  199.097">  2  6  1 -1</clus>
<clus scale="   84.355">  1  3  2 -1</clus>
</clustering>
</event>
<event>
 6    0  0.1463946E+003  0.1017302E+03  0.7546771E-02  0.1276699E+00
         21   -1    0    0  506  501  0.00000000000E+00  0.00000000000E+00  0.12451644898E+04  0.12451644898E+04  0.00000000000E+00 0.  1.
         21   -1    0    0  503  502 -0.00000000000E+00 -0.00000000000E+00 -0.29810046336E+02  0.29810046336E+02  0.00000000000E+00 0.  1.
         21    1    1    2  503  504 -0.93756114869E+01 -0.51190941931E+02  0.11980794618E+03  0.13062296351E+03  0.00000000000E+00 0.  1.
         21    1    1    2  504  501  0.81962281986E+02  0.10657331601E+03  0.93192400941E+03  0.94157211443E+03  0.00000000000E+00 0.  1.
         21    1    1    2  505  502 -0.45846259367E+02 -0.41514671996E+02  0.35816033063E+02  0.71471222973E+02  0.00000000000E+00 0.  1.
         21    1    1    2  506  505 -0.26740411133E+02 -0.13867702081E+02  0.12780645485E+03  0.13130823527E+03  0.00000000000E+00 0.  1.
<scales pt_clust_3="54.18009" pt_clust_4="14000.00000" pt_clust_5="101.73023" pt_clust_6="30.12246"></scales>
<clustering>
<clus scale="   30.122">  1  6  2 -1</clus>
<clus scale="   54.180">  2  3  1 -1</clus>
<clus scale="  101.730">  2  5  1 -1</clus>
<clus scale="   30.122">  1  3  2 -1</clus>
</clustering>
</event>
<event>
 6    0  0.1463946E+003  0.9795297E+02  0.7546771E-02  0.1284660E+00
         21   -1    0    0  503  501  0.00000000000E+00  0.00000000000E+00  0.14135408588E+03  0.14135408588E+03  0.00000000000E+00 0.  1.
         21   -1    0    0  504  502 -0.00000000000E+00 -0.00000000000E+00 -0.32733273001E+03  0.32733273001E+03  0.00000000000E+00 0.  1.
         21    1    1    2  503  505 -0.38930966950E+02 -0.25616832213E+02  0.34637841717E+02  0.58065672812E+02  0.00000000000E+00 0.  1.
         21    1    1    2  504  501  0.20403067877E+02  0.17240793314E+03 -0.94231198921E+02  0.19753556500E+03  0.00000000000E+00 0.  1.
         21    1    1    2  505  506  0.66512524727E+00 -0.67457195686E+02 -0.58903314225E+01  0.67717144400E+02  0.00000000000E+00 0.  1.
         21    1    1    2  506  502  0.17862773825E+02 -0.79333905243E+02 -0.12049495550E+03  0.14536843368E+03  0.00000000000E+00 0.  1.
<scales pt_clust_3="46.60303" pt_clust_4="97.95297" pt_clust_5="76.73734" pt_clust_6="14000.00000"></scales>
<clustering>
<clus scale="   46.603">  1  3  2 -1</clus>
<clus scale="   76.737">  1  5  2 -1</clus>
<clus scale="   97.953">  1  4  2 -1</clus>
<clus scale="   46.603">  1  3  2 -1</clus>
</clustering>
</event>
<event>
 6    0  0.1463946E+003  0.8726932E+02  0.7546771E-02  0.1309602E+00
         21   -1    0    0  503  501  0.00000000000E+00  0.00000000000E+00  0.11527243382E+04  0.11527243382E+04  0.00000000000E+00 0.  1.
         21   -1    0    0  504  502 -0.00000000000E+00 -0.00000000000E+00 -0.18481661733E+03  0.18481661733E+03  0.00000000000E+00 0.  1.
         21    1    1    2  503  506 -0.10593024726E+03 -0.50703666467E+02  0.38396858835E+03  0.40152703012E+03  0.00000000000E+00 0.  1.
         21    1    1    2  504  505  0.31739020582E+02 -0.13190781775E+02 -0.12728600560E+03  0.13184494444E+03  0.00000000000E+00 0.  1.
         21    1    1    2  505  501  0.30892718902E+02  0.59719590915E+01  0.72901669684E+03  0.72969539443E+03  0.00000000000E+00 0.  1.
         21    1    1    2  506  502  0.43298507775E+02  0.57922489150E+02 -0.17791558749E+02  0.74473586509E+02  0.00000000000E+00 0.  1.
<scales pt_clust_3="87.26932" pt_clust_4="34.51233" pt_clust_5="31.46465" pt_clust_6="14000.00000"></scales>
<clustering>
<clus scale="   31.465">  1  5  2 -1</clus>
<clus scale="   34.512">  2  4  1 -1</clus>
<clus scale="   87.269">  1  3  2 -1</clus>
<clus scale="   31.465">  1  3  2 -1</clus>
</clustering>
</event>
<event>
 6    0  0.1463946E+003  0.6506715E+02  0.7546771E-02  0.1377719E+00
         21   -1    0    0  503  501  0.00000000000E+00  0.00000000000E+00  0.77782962335E+03  0.77782962335E+03  0.00000000000E+00 0.  1.
         21   -1    0    0  504  502 -0.00000000000E+00 -0.00000000000E+00 -0.63223163913E+02  0.63223163913E+02  0.00000000000E+00 0.  1.
         21    1    1    2  503  506 -0.45767724040E+02  0.34286713286E+02  0.10565945900E+03  0.12014235119E+03  0.00000000000E+00 0.  1.
         21    1    1    2  504  505  0.32327059173E+02 -0.76517417589E+02  0.29945103923E+03  0.31075855394E+03  0.00000000000E+00 0.  1.
         21    1    1    2  505  501  0.44995270550E+02 -0.13297649628E+02  0.33726173090E+03  0.34050973112E+03  0.00000000000E+00 0.  1.
         21    1    1    2  506  502 -0.31554605683E+02  0.55528353931E+02 -0.27765769705E+02  0.69642151011E+02  0.00000000000E+00 0.  1.
<scales pt_clust_3="46.06515" pt_clust_4="65.06715" pt_clust_5="46.91910" pt_clust_6="14000.00000"></scales>
<clustering>
<clus scale="   46.919">  1  5  2 -1</clus>
<clus scale="   46.065">  1  3  2 -1</clus>
<clus scale="   65.067">  1  4  2 -1</clus>
<clus scale="   46.919">  1  3  2 -1</clus>
</clustering>
</event>
<event>
 6    0  0.1463946E+003  0.9540693E+02  0.7546771E-02  0.1290262E+00
         21   -1    0    0  506  501  0.00000000000E+00  0.00000000000E+00  0.60777909515E+03  0.60777909515E+03  0.00000000000E+00 0.  1.
         21   -1    0    0  505  502 -0.00000000000E+00 -0.00000000000E+00 -0.11833756652E+03  0.11833756652E+03  0.00000000000E+00 0.  1.
         21    1    1    2  503  501 -0.37674769014E+01  0.13006504120E+03  0.20784982168E+03  0.24521961014E+03  0.00000000000E+00 0.  1.
         21    1    1    2  504  502  0.41332958058E+02 -0.46632028332E+02  0.88654923252E+02  0.10836353125E+03  0.00000000000E+00 0.  1.
         21    1    1    2  505  503 -0.81781733650E+02 -0.53731088380E+02 -0.59510071636E+02  0.11452829538E+03  0.00000000000E+00 0.  1.
         21    1    1    2  506  504  0.44216252494E+02 -0.29701924491E+02  0.25244685533E+03  0.25800522489E+03  0.00000000000E+00 0.  1.
<scales pt_clust_3="14000.00000" pt_clust_4="76.81024" pt_clust_5="95.40693" pt_clust_6="53.26614"></scales>
<clustering>
<clus scale="   53.266">  1  6  2 -1</clus>
<clus scale="   76.810">  1  4  2 -1</clus>
<clus scale="   95.407">  2  5  1 -1</clus>
<clus scale="   53.266">  1  3  2 -1</clus>
</clustering>
</event>
<event>
 6    0  0.1463946E+003  0.1210335E+03  0.7546771E-02  0.1241402E+00
         21   -1    0    0  504  501  0.00000000000E+00  0.00000000000E+00  0.93286353857E+03  0.93286353857E+03  0.00000000000E+00 0. -1.
         21   -1    0    0  506  502 -0.00000000000E+00 -0.00000000000E+00 -0.48449986401E+02  0.48449986401E+02  0.00000000000E+00 0. -1.
         21    1    1    2  503  505 -0.35842237416E+02  0.14560590893E+03  0.13828656761E+03  0.20398264995E+03  0.00000000000E+00 0. -1.
         21    1    1    2  504  503  0.29497885078E+02 -0.11246996838E+03  0.61946066893E+03  0.63027862043E+03  0.00000000000E+00 0. -1.
         21    1    1    2  505  502  0.35903515402E+02 -0.24100882792E+02  0.64947108261E+02  0.78025904936E+02  0.00000000000E+00 0. -1.
         21    1    1    2  506  501 -0.29559163064E+02 -0.90350577602E+01  0.61719207365E+02  0.69026349661E+02  0.00000000000E+00 0. -1.
<scales pt_clust_3="14000.00000" pt_clust_4="121.03355" pt_clust_5="40.54625" pt_clust_6="30.90916"></scales>
<clustering>
<clus scale="   30.909">  2  6  1 -1</clus>
<clus scale="   40.546">  2  5  1 -1</clus>
<clus scale="  121.034">  1  4  2 -1</clus>
<clus scale="  121.034">  1  3  2 -1</clus>
</clustering>
</event>
<event>
 6    0  0.1463946E+003  0.9069417E+02  0.7546771E-02  0.1301179E+00
         21   -1    0    0  506  501  0.00000000000E+00  0.00000000000E+00  0.15713845310E+04  0.15713845310E+04  0.00000000000E+00 0. -1.
         21   -1    0    0  505  502 -0.00000000000E+00 -0.00000000000E+00 -0.70939817486E+02  0.70939817486E+02  0.00000000000E+00 0.  1.
         21    1    1    2  503  501  0.11442805317E+03 -0.62296097853E+02  0.47562857175E+03  0.49315020169E+03  0.00000000000E+00 0.  1.
         21    1    1    2  504  502 -0.31461049663E+02 -0.10662820416E+02  0.53728489010E+02  0.63168377503E+02  0.00000000000E+00 0.  1.
         21    1    1    2  505  503 -0.23936201252E+02  0.77658173967E+02 -0.27404020490E+02  0.85759629508E+02  0.00000000000E+00 0.  1.
         21    1    1    2  506  504 -0.59030802258E+02 -0.46992556982E+01  0.99849167327E+03  0.10002461398E+04  0.00000000000E+00 0. -1.
<scales pt_clust_3="90.69417" pt_clust_4="33.21887" pt_clust_5="14000.00000" pt_clust_6="59.64432"></scales>
<clustering>
<clus scale="   33.219">  2  4  1 -1</clus>
<clus scale="   59.644">  1  6  2 -1</clus>
<clus scale="   90.694">  1  3  2 -1</clus>
<clus scale="   59.644">  1  3  2 -1</clus>
</clustering>
</event>
<event>
 6    0  0.1463946E+003  0.8704610E+02  0.7546771E-02  0.1310167E+00
         21   -1    0    0  504  501  0.00000000000E+00  0.00000000000E+00  0.28918021086E+03  0.28918021086E+03  0.00000000000E+00 0.  1.
         21   -1    0    0  506  502 -0.00000000000E+00 -0.00000000000E+00 -0.45041472766E+03  0.45041472766E+03  0.00000000000E+00 0. -1.
         21    1    1    2  503  502  0.33757253056E+02  0.40212696639E+02 -0.37252168430E+03  0.37620342685E+03  0.00000000000E+00 0. -1.
         21    1    1    2  504  505 -0.11812978572E+03  0.86700665239E+01  0.19647086822E+03  0.22941364036E+03  0.00000000000E+00 0.  1.
         21    1    1    2  505  503  0.46825490821E+02 -0.74218996241E+02  0.12283716875E+02  0.88611374518E+02  0.00000000000E+00 0. -1.
         21    1    1    2  506  501  0.37547041839E+02  0.25336233077E+02  0.25325824023E+01  0.45366496790E+02  0.00000000000E+00 0. -1.
<scales pt_clust_3="52.80577" pt_clust_4="87.04610" pt_clust_5="14000.00000" pt_clust_6="45.29575"></scales>
<clustering>
<clus scale="   45.296">  1  6  2 -1</clus>
<clus scale="   52.806">  2  3  1 -1</clus>
<clus scale="   87.046">  1  4  2 -1</clus>
<clus scale="   45.296">  1  3  2 -1</clus>
</clustering>
</event>
<event>
 6    0  0.1463946E+003  0.1503199E+03  0.7546771E-02  0.1200080E+00
         21   -1    0    0  505  501  0.00000000000E+00  0.00000000000E+00  0.26923033265E+03  0.26923033265E+03  0.00000000000E+00 0. -1.
         21   -1    0    0  506  502 -0.00000000000E+00 -0.00000000000E+00 -0.15765595742E+03  0.15765595742E+03  0.00000000000E+00 0. -1.
         21    1    1    2  503  502  0.27813074458E+02 -0.35596171303E+02  0.16635767365E+02  0.48139415015E+02  0.00000000000E+00 0.  1.
         21    1    1    2  504  503  0.10017806396E+03 -0.66613772104E+02 -0.39479150488E+02  0.12661612242E+03  0.00000000000E+00 0. -1.
         21    1    1    2  505  504 -0.79471069975E+01  0.86105839041E+02  0.85198793184E+02  0.12139277732E+03  0.00000000000E+00 0.  1.
         21    1    1    2  506  501 -0.12004403142E+03  0.16104104366E+02  0.49218965167E+02  0.13073797532E+03  0.00000000000E+00 0. -1.
<scales pt_clust_3="34.60467" pt_clust_4="34.60467" pt_clust_5="86.47180" pt_clust_6="139.30902"></scales>
<clustering>
<clus scale="   34.605">  3  4 -1 -1</clus>
<clus scale="   86.472">  1  5  2 -1</clus>
<clus scale="  139.309">  1  6  2 -1</clus>
<clus scale="   86.472">  1  3  2 -1</clus>
</clustering>
</event>
<event>
 6    0  0.1463946E+003  0.1024697E+03  0.7546771E-02  0.1275186E+00
         21   -1    0    0  503  501  0.00000000000E+00  0.00000000000E+00  0.21619453057E+03  0.21619453057E+03  0.00000000000E+00 0.  1.
         21   -1    0    0  504  502 -0.00000000000E+00 -0.00000000000E+00 -0.76557949034E+03  0.76557949034E+03  0.00000000000E+00 0. -1.
         21    1    1    2  503  506 -0.21851884136E+02 -0.31802333516E+02  0.79849691619E+02  0.88684082614E+02  0.00000000000E+00 0.  1.
         21    1    1    2  504  505 -0.36660755763E+02  0.33620313522E+02 -0.59724054549E+03  0.59930843951E+03  0.00000000000E+00 0. -1.
         21    1    1    2  505  501  0.12383299809E+03  0.52432792656E+02  0.77509181544E+02  0.15521431115E+03  0.00000000000E+00 0.  1.
         21    1    1    2  506  502 -0.65320358193E+02 -0.54250772662E+02 -0.10950328745E+03  0.13856718764E+03  0.00000000000E+00 0. -1.
<scales pt_clust_3="38.58618" pt_clust_4="49.70136" pt_clust_5="102.46975" pt_clust_6="14000.00000"></scales>
<clustering>
<clus scale="   38.586">  1  3  2 -1</clus>
<clus scale="   49.701">  2  4  1 -1</clus>
<clus scale="  102.470">  1  5  2 -1</clus>
<clus scale="   38.586">  1  3  2 -1</clus>
</clustering>
</event>
<event>
 6    0  0.1463946E+003  0.9432551E+02  0.7546771E-02  0.1292702E+00
         21   -1    0    0  503  501  0.00000000000E+00  0.00000000000E+00  0.32952734551E+03  0.32952734551E+03  0.00000000000E+00 0. -1.
         21   -1    0    0  506  502 -0.00000000000E+00 -0.00000000000E+00 -0.24905676707E+03  0.24905676707E+03  0.00000000000E+00 0. -1.
         21    1    1    2  503  504  0.48665669824E+02 -0.12889820580E+02  0.18320885893E+03  0.18999994970E+03  0.00000000000E+00 0. -1.
         21    1    1    2  504  502  0.86838030799E+02  0.28182369593E+02 -0.16398752538E+03  0.18768856659E+03  0.00000000000E+00 0. -1.
         21    1    1    2  505  501 -0.20830771704E+02 -0.28793852488E+02  0.76573008969E+02  0.84418201197E+02  0.00000000000E+00 0. -1.
         21    1    1    2  506  505 -0.11467292892E+03  0.13501303475E+02 -0.15323764073E+02  0.11647739509E+03  0.00000000000E+00 0. -1.
<scales pt_clust_3="47.75593" pt_clust_4="14000.00000" pt_clust_5="35.53881" pt_clust_6="94.32551"></scales>
<clustering>
<clus scale="   35.539">  1  5  2 -1</clus>
<clus scale="   47.756">  1  3  2 -1</clus>
<clus scale="   94.326">  1  6  2 -1</clus>
<clus scale="   35.539">  1  3  2 -1</clus>
</clustering>
</event>
<event>
 6    0  0.1463946E+003  0.1660639E+03  0.7546771E-02  0.1182016E+00
         21   -1    0    0  505  501  0.00000000000E+00  0.00000000000E+00  0.37465101760E+03  0.37465101760E+03  0.00000000000E+00 0. -1.
         21   -1    0    0  504  502 -0.00000000000E+00 -0.00000000000E+00 -0.85210888361E+03  0.85210888361E+03  0.00000000000E+00 0. -1.
         21    1    1    2  503  502 -0.38433191537E+02 -0.15467966665E+03 -0.69070221243E+03  0.70885291545E+03  0.00000000000E+00 0. -1.
         21    1    1    2  504  506  0.70868571581E+02  0.26761984092E+03  0.23079432123E+02  0.27780459658E+03  0.00000000000E+00 0. -1.
         21    1    1    2  505  503 -0.59736725286E+02 -0.98981572544E+02  0.15641957619E+03  0.19450684272E+03  0.00000000000E+00 0. -1.
         21    1    1    2  506  501  0.27301345242E+02 -0.13958601724E+02  0.33745338097E+02  0.45595546464E+02  0.00000000000E+00 0. -1.
<scales pt_clust_3="14000.00000" pt_clust_4="166.06390" pt_clust_5="115.59704" pt_clust_6="30.66278"></scales>
<clustering>
<clus scale="   30.663">  1  6  2 -1</clus>
<clus scale="  115.597">  1  5  2 -1</clus>
<clus scale="  166.064">  1  4  2 -1</clus>
<clus scale="   30.663">  1  3  2 -1</clus>
</clustering>
</event>
<event>
 6    0  0.1463946E+003  0.1155790E+03  0.7546771E-02  0.1250574E+00
         21   -1    0    0  502  501  0.00000000000E+00  0.00000000000E+00  0.16652446317E+04  0.16652446317E+04  0.00000000000E+00 0. -1.
         21   -1    0    0  503  502 -0.00000000000E+00 -0.00000000000E+00 -0.23263093170E+02  0.23263093170E+02  0.00000000000E+00 0. -1.
         21    1    1    2  503  506  0.12538122322E+02  0.28485836173E+02  0.10605572712E+02  0.32880473634E+02  0.00000000000E+00 0. -1.
         21    1    1    2  504  501 -0.27316593521E+02  0.18069786791E+02  0.19921485587E+03  0.20188925745E+03  0.00000000000E+00 0. -1.
         21    1    1    2  505  504 -0.51117117976E+02  0.49770560030E+02  0.10878018917E+04  0.10901389930E+04  0.00000000000E+00 0. -1.
         21    1    1    2  506  505  0.65895589175E+02 -0.96326182995E+02  0.34435921827E+03  0.36359900084E+03  0.00000000000E+00 0. -1.
<scales pt_clust_3="31.12310" pt_clust_4="31.68349" pt_clust_5="31.68349" pt_clust_6="105.77229"></scales>
<clustering>
<clus scale="   31.123">  2  3  1 -1</clus>
<clus scale="   31.683">  4  5 -1 -1</clus>
<clus scale="  105.772">  2  6  1 -1</clus>
<clus scale="  115.579">  1  3  2 -1</clus>
</clustering>
</event>
<event>
 6    0  0.1463946E+003  0.1013502E+03  0.7546771E-02  0.1277482E+00
         21   -1    0    0  502  501  0.00000000000E+00  0.00000000000E+00  0.14196929140E+04  0.14196929140E+04  0.00000000000E+00 0. -1.
         21   -1    0    0  506  502 -0.00000000000E+00 -0.00000000000E+00 -0.34210447782E+02  0.34210447782E+02  0.00000000000E+00 0. -1.
         21    1    1    2  503  504 -0.57725774333E+02  0.71162235603E+02  0.23016468542E+03  0.24773395248E+03  0.00000000000E+00 0. -1.
         21    1    1    2  504  505  0.72597087044E+02 -0.76509816156E+02  0.44860958878E+03  0.46084124399E+03  0.00000000000E+00 0. -1.
         21    1    1    2  505  501  0.75328232804E+02  0.31360240684E+02  0.58969084074E+03  0.59530924317E+03  0.00000000000E+00 0. -1.
         21    1    1    2  506  503 -0.90199545514E+02 -0.26012660131E+02  0.11701735126E+03  0.15001892212E+03  0.00000000000E+00 0. -1.
<scales pt_clust_3="101.35017" pt_clust_4="14000.00000" pt_clust_5="81.59539" pt_clust_6="80.80402"></scales>
<clustering>
<clus scale="   81.595">  1  5  2 -1</clus>
<clus scale="   80.804">  2  6  1 -1</clus>
<clus scale="  101.350">  2  3  1 -1</clus>
<clus scale="   81.595">  1  3  2 -1</clus>
</clustering>
</event>
<event>
 6    0  0.1463946E+003  0.7548643E+02  0.7546771E-02  0.1342371E+00
         21   -1    0    0  503  501  0.00000000000E+00  0.00000000000E+00  0.31009167400E+03  0.31009167400E+03  0.00000000000E+00 0. -1.
         21   -1    0    0  505  502 -0.00000000000E+00 -0.00000000000E+00 -0.20064333302E+03  0.20064333302E+03  0.00000000000E+00 0. -1.
         21    1    1    2  503  504  0.24923818654E+02  0.36043536834E+02  0.62288490622E+02  0.76158974178E+02  0.00000000000E+00 0.  1.
         21    1    1    2  504  502 -0.25896963926E+01  0.80751445394E+02 -0.14908591241E+03  0.16957037400E+03  0.00000000000E+00 0. -1.
         21    1    1    2  505  506 -0.28165225050E+02 -0.14231970421E+02 -0.11225851898E+02  0.33494008943E+02  0.00000000000E+00 0.  1.
         21    1    1    2  506  501  0.58311027889E+01 -0.10256301181E+03  0.20747161466E+03  0.23151164990E+03  0.00000000000E+00 0. -1.
<scales pt_clust_3="42.74712" pt_clust_4="14000.00000" pt_clust_5="31.55676" pt_clust_6="75.48643"></scales>
<clustering>
<clus scale="   31.557">  2  5  1 -1</clus>
<clus scale="   42.747">  1  3  2 -1</clus>
<clus scale="   75.486">  1  6  2 -1</clus>
<clus scale="   42.747">  1  3  2 -1</clus>
</clustering>
</event>
<event>
 6    0  0.1463946E+003  0.1576863E+03  0.7546771E-02  0.1191334E+00
         21   -1    0    0  505  501  0.00000000000E+00  0.00000000000E+00  0.69337999218E+03  0.69337999218E+03  0.00000000000E+00 0. -1.
         21   -1    0    0  506  502 -0.00000000000E+00 -0.00000000000E+00 -0.26275260757E+03  0.26275260757E+03  0.00000000000E+00 0.  1.
         21    1    1    2  503  504 -0.11259512371E+03 -0.35420651175E+02 -0.87724089974E+01  0.11836063354E+03  0.00000000000E+00 0.  1.
         21    1    1    2  504  502  0.14903494061E+02  0.36884269621E+02 -0.12925374829E+02  0.41828564345E+02  0.00000000000E+00 0.  1.
         21    1    1    2  505  503  0.67403421745E+02  0.14522452232E+03  0.57840862966E+03  0.60015825080E+03  0.00000000000E+00 0. -1.
         21    1    1    2  506  501  0.30288207906E+02 -0.14668814077E+03 -0.12608346123E+03  0.19578515106E+03  0.00000000000E+00 0.  1.
<scales pt_clust_3="111.51539" pt_clust_4="39.78145" pt_clust_5="14000.00000" pt_clust_6="157.68627"></scales>
<clustering>
<clus scale="   39.781">  2  4  1 -1</clus>
<clus scale="  111.515">  2  3  1 -1</clus>
<clus scale="  157.686">  2  6  1 -1</clus>
<clus scale="  157.686">  1  3  2 -1</clus>
</clustering>
</event>
<event>
 6    0  0.1463946E+003  0.2168054E+03  0.7546771E-02  0.1136287E+00
         21   -1    0    0  506  501  0.00000000000E+00  0.00000000000E+00  0.13760866942E+03  0.13760866942E+03  0.00000000000E+00 0.  1.
         21   -1    0    0  505  502 -0.00000000000E+00 -0.00000000000E+00 -0.12723628715E+04  0.12723628715E+04  0.00000000000E+00 0.  1.
         21    1    1    2  503  502 -0.20216669670E+03 -0.61837969624E+02 -0.56221176769E+03  0.60064746688E+03  0.00000000000E+00 0.  1.
         21    1    1    2  504  503  0.21063871085E+03  0.71747492084E+02 -0.59330671684E+03  0.63366334072E+03  0.00000000000E+00 0.  1.
         21    1    1    2  505  501 -0.14369011198E+02 -0.41682195841E+02 -0.68086958540E+02  0.81115398391E+02  0.00000000000E+00 0.  1.
         21    1    1    2  506  504  0.58969970521E+01  0.31772673382E+02  0.88851240938E+02  0.94545334968E+02  0.00000000000E+00 0.  1.
<scales pt_clust_3="14000.00000" pt_clust_4="216.80545" pt_clust_5="39.56042" pt_clust_6="32.31528"></scales>
<clustering>
<clus scale="   32.315">  1  6  2 -1</clus>
<clus scale="   39.560">  1  5  2 -1</clus>
<clus scale="  216.805">  1  4  2 -1</clus>
<clus scale="   32.315">  1  3  2 -1</clus>
</clustering>
</event>
<event>
 6    0  0.1463946E+003  0.1177641E+03  0.7546771E-02  0.1246832E+00
         21   -1    0    0  503  501  0.00000000000E+00  0.00000000000E+00  0.20060354934E+03  0.20060354934E+03  0.00000000000E+00 0. -1.
         21   -1    0    0  505  502 -0.00000000000E+00 -0.00000000000E+00 -0.89133400387E+03  0.89133400387E+03  0.00000000000E+00 0. -1.
         21    1    1    2  503  502  0.19726771845E+02 -0.10854630129E+03  0.73328581501E+02  0.13247084931E+03  0.00000000000E+00 0. -1.
         21    1    1    2  504  501 -0.86895282693E+02  0.60173859249E+00  0.67828398193E+02  0.11023540196E+03  0.00000000000E+00 0. -1.
         21    1    1    2  505  506 -0.15872690316E+01  0.36070530014E+02 -0.53313790373E+03  0.53435908053E+03  0.00000000000E+00 0. -1.
         21    1    1    2  506  504  0.68755779880E+02  0.71874032687E+02 -0.29874953050E+03  0.31487222141E+03  0.00000000000E+00 0. -1.
<scales pt_clust_3="14000.00000" pt_clust_4="87.03256" pt_clust_5="36.10544" pt_clust_6="117.76412"></scales>
<clustering>
<clus scale="   36.105">  2  5  1 -1</clus>
<clus scale="   87.033">  1  4  2 -1</clus>
<clus scale="  117.764">  2  6  1 -1</clus>
<clus scale="   87.033">  1  3  2 -1</clus>
</clustering>
</event>
<event>
 6    0  0.1463946E+003  0.1492907E+03  0.7546771E-02  0.1201347E+00
         21   -1    0    0  505  501  0.00000000000E+00  0.00000000000E+00  0.50286483152E+03  0.50286483152E+03  0.00000000000E+00 0. -1.
         21   -1    0    0  504  502 -0.00000000000E+00 -0.00000000000E+00 -0.39769369822E+03  0.39769369822E+03  0.00000000000E+00 0. -1.
         21    1    1    2  503  506  0.14960904677E+03  0.66811910459E+00  0.12106467848E+02  0.15009956637E+03  0.00000000000E+00 0. -1.
         21    1    1    2  504  501 -0.53428251901E+02 -0.46762712686E+02  0.46466410154E+02  0.84855504663E+02  0.00000000000E+00 0. -1.
         21    1    1    2  505  503  0.50766692100E+02  0.17209926398E+02  0.33573326081E+03  0.33998567765E+03  0.00000000000E+00 0. -1.
         21    1    1    2  506  502 -0.14694748697E+03  0.28884667184E+02 -0.28913500552E+03  0.32561778106E+03  0.00000000000E+00 0. -1.
<scales pt_clust_3="149.29073" pt_clust_4="51.93416" pt_clust_5="53.60446" pt_clust_6="14000.00000"></scales>
<clustering>
<clus scale="   53.604">  1  5  2 -1</clus>
<clus scale="   51.934">  1  4  2 -1</clus>
<clus scale="  149.291">  1  3  2 -1</clus>
<clus scale="   53.604">  1  3  2 -1</clus>
</clustering>
</event>
<event>
 6    0  0.1463946E+003  0.1127154E+03  0.7546771E-02  0.1255622E+00
         21   -1    0    0  504  501  0.00000000000E+00  0.00000000000E+00  0.62585915448E+03  0.62585915448E+03  0.00000000000E+00 0.  1.
         21   -1    0    0  505  502 -0.00000000000E+00 -0.00000000000E+00 -0.40458189546E+03  0.40458189546E+03  0.00000000000E+00 0.  1.
         21    1    1    2  503  502  0.11449407335E+03 -0.16053987238E+02 -0.35218005209E+03  0.37067156949E+03  0.00000000000E+00 0.  1.
         21    1    1    2  504  503 -0.82369326658E+02 -0.26380812471E+02  0.17625923253E+03  0.19633637028E+03  0.00000000000E+00 0.  1.
         21    1    1    2  505  506 -0.67138210902E+02  0.88529976144E+02  0.70369273770E+02  0.13151779625E+03  0.00000000000E+00 0.  1.
         21    1    1    2  506  501  0.35013464208E+02 -0.46095176435E+02  0.32682880480E+03  0.33191531392E+03  0.00000000000E+00 0.  1.
<scales pt_clust_3="14000.00000" pt_clust_4="81.89877" pt_clust_5="112.71540" pt_clust_6="57.88530"></scales>
<clustering>
<clus scale="   57.885">  1  6  2 -1</clus>
<clus scale="   81.899">  1  4  2 -1</clus>
<clus scale="  112.715">  1  5  2 -1</clus>
<clus scale="   57.885">  1  3  2 -1</clus>
</clustering>
</event>
<event>
 6    0  0.1463946E+003  0.1042512E+03  0.7546771E-02  0.1271602E+00
         21   -1    0    0  503  501  0.00000000000E+00  0.00000000000E+00  0.10049152824E+04  0.10049152824E+04  0.00000000000E+00 0.  1.
         21   -1    0    0  505  502 -0.00000000000E+00 -0.00000000000E+00 -0.15212338153E+03  0.15212338153E+03  0.00000000000E+00 0. -1.
         21    1    1    2  503  504 -0.91747598230E+02 -0.39710404739E+02  0.70776338991E+03  0.71478916760E+03  0.00000000000E+00 0.  1.
         21    1    1    2  504  502  0.87973483655E+02 -0.10878894045E+02  0.12422137900E+03  0.15260614392E+03  0.00000000000E+00 0.  1.
         21    1    1    2  505  506  0.31461477136E+02  0.19910068651E+02 -0.12898709825E+03  0.13425314482E+03  0.00000000000E+00 0. -1.
         21    1    1    2  506  501 -0.27687362560E+02  0.30679230132E+02  0.14979423026E+03  0.15539020762E+03  0.00000000000E+00 0. -1.
<scales pt_clust_3="14000.00000" pt_clust_4="104.25117" pt_clust_5="37.23218" pt_clust_6="40.77484"></scales>
<clustering>
<clus scale="   37.232">  2  5  1 -1</clus>
<clus scale="   40.775">  1  6  2 -1</clus>
<clus scale="  104.251">  2  4  1 -1</clus>
<clus scale="   40.775">  1  3  2 -1</clus>
</clustering>
</event>
<event>
 6    0  0.1463946E+003  0.1052731E+03  0.7546771E-02  0.1269582E+00
         21   -1    0    0  503  501  0.00000000000E+00  0.00000000000E+00  0.10944603145E+03  0.10944603145E+03  0.00000000000E+00 0.  1.
         21   -1    0    0  504  502 -0.00000000000E+00 -0.00000000000E+00 -0.36400330964E+03  0.36400330964E+03  0.00000000000E+00 0.  1.
         21    1    1    2  503  502 -0.47756524940E+02  0.45781973875E+02 -0.19370548684E+03  0.20469120753E+03  0.00000000000E+00 0.  1.
         21    1    1    2  504  506  0.44556247122E+02 -0.25862495377E+02 -0.73033105911E+02  0.89375401446E+02  0.00000000000E+00 0. -1.
         21    1    1    2  505  501 -0.79190475745E+02  0.54810034939E+01  0.39867746104E+02  0.88829105745E+02  0.00000000000E+00 0.  1.
         21    1    1    2  506  505  0.82390753564E+02 -0.25400481992E+02 -0.27686431541E+02  0.90553626375E+02  0.00000000000E+00 0.  1.
<scales pt_clust_3="66.15644" pt_clust_4="45.64404" pt_clust_5="87.15408" pt_clust_6="45.64404"></scales>
<clustering>
<clus scale="   45.644">  4  6 -1 -1</clus>
<clus scale="   66.156">  2  3  1 -1</clus>
<clus scale="   87.154">  1  5  2 -1</clus>
<clus scale="   87.154">  1  3  2 -1</clus>
</clustering>
</event>
<event>
 6    0  0.1463946E+003  0.1697049E+03  0.7546771E-02  0.1178156E+00
         21   -1    0    0  503  501  0.00000000000E+00  0.00000000000E+00  0.17548576623E+03  0.17548576623E+03  0.00000000000E+00 0. -1.
         21   -1    0    0  505  502 -0.00000000000E+00 -0.00000000000E+00 -0.82177587730E+03  0.82177587730E+03  0.00000000000E+00 0. -1.
         21    1    1    2  503  504  0.29139167986E+02  0.12586143422E+03  0.97341613779E+02  0.16175778655E+03  0.00000000000E+00 0. -1.
         21    1    1    2  504  502  0.27824340146E+02  0.24022911160E+02  0.53346146777E+01  0.37145016879E+02  0.00000000000E+00 0. -1.
         21    1    1    2  505  506  0.41674970323E+02 -0.21893066236E+02 -0.49572338065E+03  0.49795359184E+03  0.00000000000E+00 0. -1.
         21    1    1    2  506  501 -0.98638478455E+02 -0.12799127915E+03 -0.25324295887E+03  0.30040524827E+03  0.00000000000E+00 0. -1.
<scales pt_clust_3="30.68812" pt_clust_4="30.68812" pt_clust_5="47.07557" pt_clust_6="159.65590"></scales>
<clustering>
<clus scale="   30.688">  3  4 -1 -1</clus>
<clus scale="   47.076">  2  5  1 -1</clus>
<clus scale="  159.656">  2  6  1 -1</clus>
<clus scale="  169.705">  1  3  2 -1</clus>
</clustering>
</event>
<event>
 6    0  0.1463946E+003  0.1242711E+03  0.7546771E-02  0.1236213E+00
         21   -1    0    0  504  501  0.00000000000E+00  0.00000000000E+00  0.86992416342E+03  0.86992416342E+03  0.00000000000E+00 0. -1.
         21   -1    0    0  506  502 -0.00000000000E+00 -0.00000000000E+00 -0.60569347065E+03  0.60569347065E+03  0.00000000000E+00 0. -1.
         21    1    1    2  503  502 -0.28667552287E+02 -0.59411011722E+02 -0.47428066740E+03  0.47884616354E+03  0.00000000000E+00 0. -1.
         21    1    1    2  504  503 -0.37699219672E+01  0.71151894942E+02  0.74962369121E+03  0.75300231267E+03  0.00000000000E+00 0. -1.
         21    1    1    2  505  501 -0.42033944201E+02  0.53224127353E+02  0.83079060951E+02  0.10724640118E+03  0.00000000000E+00 0. -1.
         21    1    1    2  506  505  0.74471418455E+02 -0.64965010573E+02 -0.94191391990E+02  0.13652275668E+03  0.00000000000E+00 0. -1.
<scales pt_clust_3="65.96588" pt_clust_4="124.27108" pt_clust_5="65.35661" pt_clust_6="14000.00000"></scales>
<clustering>
<clus scale="   65.966">  2  3  1 -1</clus>
<clus scale="   65.357">  1  5  2 -1</clus>
<clus scale="  124.271">  1  4  2 -1</clus>
<clus scale="   65.357">  1  3  2 -1</clus>
</clustering>
</event>
<event>
 6    0  0.1463946E+003  0.9758421E+02  0.7546771E-02  0.1285460E+00
         21   -1    0    0  505  501  0.00000000000E+00  0.00000000000E+00  0.22616885376E+04  0.22616885376E+04  0.00000000000E+00 0.  1.
         21   -1    0    0  503  502 -0.00000000000E+00 -0.00000000000E+00 -0.45768142877E+03  0.45768142877E+03  0.00000000000E+00 0.  1.
         21    1    1    2  503  501 -0.35056888835E+02 -0.67816464314E+02 -0.14572080096E+03  0.16450717346E+03  0.00000000000E+00 0.  1.
         21    1    1    2  504  502  0.34795198306E+02 -0.23993695845E+02 -0.16397051973E+03  0.16933025308E+03  0.00000000000E+00 0.  1.
         21    1    1    2  505  506 -0.68161655396E+02  0.70556649521E+02  0.22390239071E+04  0.22411720837E+04  0.00000000000E+00 0.  1.
         21    1    1    2  506  504  0.68423345925E+02  0.21253510638E+02 -0.12532547756E+03  0.14436045618E+03  0.00000000000E+00 0.  1.
<scales pt_clust_3="82.27846" pt_clust_4="42.26586" pt_clust_5="97.58421" pt_clust_6="14000.00000"></scales>
<clustering>
<clus scale="   42.266">  2  4  1 -1</clus>
<clus scale="   82.278">  2  3  1 -1</clus>
<clus scale="   97.584">  1  5  2 -1</clus>
<clus scale="   97.584">  1  3  2 -1</clus>
</clustering>
</event>
<event>
 6    0  0.1463946E+003  0.2152012E+03  0.7546771E-02  0.1137512E+00
         21   -1    0    0  506  501  0.00000000000E+00  0.00000000000E+00  0.88351865894E+03  0.88351865894E+03  0.00000000000E+00 0.  1.
         21   -1    0    0  505  502 -0.00000000000E+00 -0.00000000000E+00 -0.49995449710E+03  0.49995449710E+03  0.00000000000E+00 0.  1.
         21    1    1    2  503  502  0.46320040293E+02 -0.82430168822E+01 -0.35072613344E+02  0.58682038708E+02  0.00000000000E+00 0.  1.
         21    1    1    2  504  503 -0.17493988858E+03 -0.12547609577E+03  0.28561638818E+03  0.35766595648E+03  0.00000000000E+00 0.  1.
         21    1    1    2  505  501  0.63061136707E+02 -0.92485873363E+02 -0.38346940022E+03  0.39947355937E+03  0.00000000000E+00 0.  1.
         21    1    1    2  506  504  0.65558711581E+02  0.22620498602E+03  0.51648978722E+03  0.56765160148E+03  0.00000000000E+00 0.  1.
<scales pt_clust_3="47.04778" pt_clust_4="215.20122" pt_clust_5="143.34526" pt_clust_6="14000.00000"></scales>
<clustering>
<clus scale="   47.048">  2  3  1 -1</clus>
<clus scale="  143.345">  2  5  1 -1</clus>
<clus scale="  215.201">  2  4  1 -1</clus>
<clus scale="  215.201">  1  3  2 -1</clus>
</clustering>
</event>
<event>
 6    0  0.1463946E+003  0.1553012E+03  0.7546771E-02  0.1194106E+00
         21   -1    0    0  506  501  0.00000000000E+00  0.00000000000E+00  0.49571191787E+03  0.49571191787E+03  0.00000000000E+00 0.  1.
         21   -1    0    0  503  502 -0.00000000000E+00 -0.00000000000E+00 -0.26375824812E+03  0.26375824812E+03  0.00000000000E+00 0. -1.
         21    1    1    2  503  505 -0.18235003150E+01  0.14550442371E+03 -0.21789510248E+03  0.26201743865E+03  0.00000000000E+00 0. -1.
         21    1    1    2  504  501 -0.41382086385E+02 -0.88700970514E+02  0.35680135791E+03  0.36998317292E+03  0.00000000000E+00 0.  1.
         21    1    1    2  505  504  0.24191497176E+01 -0.38678876062E+02  0.61945581674E+02  0.73069575253E+02  0.00000000000E+00 0.  1.
         21    1    1    2  506  502  0.40786436983E+02 -0.18124577134E+02  0.31101832648E+02  0.54399979155E+02  0.00000000000E+00 0. -1.
<scales pt_clust_3="144.62177" pt_clust_4="35.61183" pt_clust_5="35.61183" pt_clust_6="44.63221"></scales>
<clustering>
<clus scale="   35.612">  4  5 -1 -1</clus>
<clus scale="   44.632">  1  6  2 -1</clus>
<clus scale="  144.622">  2  3  1 -1</clus>
<clus scale="   44.632">  1  3  2 -1</clus>
</clustering>
</event>
<event>
 6    0  0.1463946E+003  0.1469465E+03  0.7546771E-02  0.1204276E+00
         21   -1    0    0  504  501  0.00000000000E+00  0.00000000000E+00  0.14189077530E+04  0.14189077530E+04  0.00000000000E+00 0.  1.
         21   -1    0    0  506  502 -0.00000000000E+00 -0.00000000000E+00 -0.45366159973E+03  0.45366159973E+03  0.00000000000E+00 0.  1.
         21    1    1    2  503  502 -0.12277978996E+03 -0.68468710446E+01 -0.35692885607E+03  0.37751816481E+03  0.00000000000E+00 0.  1.
         21    1    1    2  504  503 -0.55568643192E+02  0.25772128379E+02  0.11568779342E+04  0.11584984382E+04  0.00000000000E+00 0.  1.
         21    1    1    2  505  501  0.19598105988E+03 -0.57673764871E+02  0.19674473308E+03  0.28362533205E+03  0.00000000000E+00 0. -1.
         21    1    1    2  506  505 -0.17632626723E+02  0.38748507537E+02 -0.31447657872E+02  0.52927417726E+02  0.00000000000E+00 0.  1.
<scales pt_clust_3="14000.00000" pt_clust_4="61.31782" pt_clust_5="146.94653" pt_clust_6="42.57178"></scales>
<clustering>
<clus scale="   42.572">  2  6  1 -1</clus>
<clus scale="   61.318">  1  4  2 -1</clus>
<clus scale="  146.947">  1  5  2 -1</clus>
<clus scale="   61.318">  1  3  2 -1</clus>
</clustering>
</event>
<event>
 6    0  0.1463946E+003  0.1374876E+03  0.7546771E-02  0.1216750E+00
         21   -1    0    0  506  501  0.00000000000E+00  0.00000000000E+00  0.61590799957E+03  0.61590799957E+03  0.00000000000E+00 0.  1.
         21   -1    0    0  503  502 -0.00000000000E+00 -0.00000000000E+00 -0.92839288040E+02  0.92839288040E+02  0.00000000000E+00 0. -1.
         21    1    1    2  503  505 -0.15435051118E+03  0.73523030322E+02  0.94812422391E+02  0.19549708880E+03  0.00000000000E+00 0. -1.
         21    1    1    2  504  502  0.48316138723E+02 -0.22611612292E+02  0.14598532791E+02  0.55306884121E+02  0.00000000000E+00 0. -1.
         21    1    1    2  505  501  0.68739486151E+01  0.52618227058E+02  0.11614954621E+03  0.12769747872E+03  0.00000000000E+00 0. -1.
         21    1    1    2  506  504  0.99160423846E+02 -0.10352964509E+03  0.29750821015E+03  0.33024583597E+03  0.00000000000E+00 0.  1.
<scales pt_clust_3="137.48763" pt_clust_4="52.33031" pt_clust_5="53.06533" pt_clust_6="14000.00000"></scales>
<clustering>
<clus scale="   53.065">  1  5  2 -1</clus>
<clus scale="   52.330">  2  4  1 -1</clus>
<clus scale="  137.488">  2  3  1 -1</clus>
<clus scale="   53.065">  1  3  2 -1</clus>
</clustering>
</event>
<event>
 6    0  0.1463946E+003  0.8912306E+02  0.7546771E-02  0.1304989E+00
         21   -1    0    0  506  501  0.00000000000E+00  0.00000000000E+00  0.21649304397E+04  0.21649304397E+04  0.00000000000E+00 0.  1.
         21   -1    0    0  505  502 -0.00000000000E+00 -0.00000000000E+00 -0.26960605517E+02  0.26960605517E+02  0.00000000000E+00 0.  1.
         21    1    1    2  503  504  0.12374641596E+03 -0.47364874738E+02  0.52841778716E+03  0.54477698612E+03  0.00000000000E+00 0.  1.
         21    1    1    2  504  501 -0.73378948254E+01  0.35714353710E+02  0.10993549615E+04  0.10999594043E+04  0.00000000000E+00 0.  1.
         21    1    1    2  505  503 -0.81584892479E+02  0.88759428423E+01  0.76944407363E+02  0.11249586155E+03  0.00000000000E+00 0.  1.
         21    1    1    2  506  502 -0.34823628659E+02  0.27745781856E+01  0.43325267811E+03  0.43465879317E+03  0.00000000000E+00 0.  1.
<scales pt_clust_3="14000.00000" pt_clust_4="47.67032" pt_clust_5="89.12306" pt_clust_6="34.93399"></scales>
<clustering>
<clus scale="   34.934">  1  6  2 -1</clus>
<clus scale="   47.670">  1  4  2 -1</clus>
<clus scale="   89.123">  2  5  1 -1</clus>
<clus scale="   34.934">  1  3  2 -1</clus>
</clustering>
</event>
<event>
 6    0  0.1463946E+003  0.1259528E+03  0.7546771E-02  0.1233588E+00
         21   -1    0    0  506  501  0.00000000000E+00  0.00000000000E+00  0.74268011127E+03  0.74268011127E+03  0.00000000000E+00 0. -1.
         21   -1    0    0  505  502 -0.00000000000E+00 -0.00000000000E+00 -0.24537195701E+03  0.24537195701E+03  0.00000000000E+00 0.  1.
         21    1    1    2  503  504  0.10097513294E+03 -0.15775732412E+02  0.46423997748E+03  0.47535629574E+03  0.00000000000E+00 0. -1.
         21    1    1    2  504  502  0.46128911056E+02  0.25328551331E+01 -0.36209221111E+01  0.46340078412E+02  0.00000000000E+00 0.  1.
         21    1    1    2  505  501 -0.14687482244E+03  0.75371434555E+02 -0.17805193925E+03  0.24280765985E+03  0.00000000000E+00 0.  1.
         21    1    1    2  506  503 -0.22922156085E+00 -0.62128557277E+02  0.21474103814E+03  0.22354803428E+03  0.00000000000E+00 0. -1.
<scales pt_clust_3="125.95279" pt_clust_4="46.19840" pt_clust_5="14000.00000" pt_clust_6="62.08181"></scales>
<clustering>
<clus scale="   46.198">  2  4  1 -1</clus>
<clus scale="   62.082">  1  6  2 -1</clus>
<clus scale="  125.953">  1  3  2 -1</clus>
<clus scale="   62.082">  1  3  2 -1</clus>
</clustering>
</event>
<event>
 6    0  0.1463946E+003  0.1144419E+03  0.7546771E-02  0.1252558E+00
         21   -1    0    0  503  501  0.00000000000E+00  0.00000000000E+00  0.13784665520E+03  0.13784665520E+03  0.00000000000E+00 0.  1.
         21   -1    0    0  504  502 -0.00000000000E+00 -0.00000000000E+00 -0.66182539486E+03  0.66182539486E+03  0.00000000000E+00 0. -1.
         21    1    1    2  503  506 -0.85813351727E+02  0.73240860302E+02  0.83631293145E+02  0.14043627788E+03  0.00000000000E+00 0.  1.
         21    1    1    2  504  501  0.79857854754E+02 -0.12376741314E+03 -0.46271130495E+03  0.48558974582E+03  0.00000000000E+00 0. -1.
         21    1    1    2  505  502 -0.32595331553E+02  0.22544094852E+02 -0.10242198444E+03  0.10982237818E+03  0.00000000000E+00 0. -1.
         21    1    1    2  506  505  0.38550828527E+02  0.27982457991E+02 -0.42476743414E+02  0.63823648175E+02  0.00000000000E+00 0.  1.
<scales pt_clust_3="14000.00000" pt_clust_4="114.44189" pt_clust_5="39.63195" pt_clust_6="46.51726"></scales>
<clustering>
<clus scale="   39.632">  2  5  1 -1</clus>
<clus scale="   46.517">  2  6  1 -1</clus>
<clus scale="  114.442">  2  4  1 -1</clus>
<clus scale="  114.442">  1  3  2 -1</clus>
</clustering>
</event>
<event>
 6    0  0.1463946E+003  0.8977417E+02  0.7546771E-02  0.1303400E+00
         21   -1    0    0  503  501  0.00000000000E+00  0.00000000000E+00  0.14183717039E+03  0.14183717039E+03  0.00000000000E+00 0. -1.
         21   -1    0    0  505  502 -0.00000000000E+00 -0.00000000000E+00 -0.49988076200E+03  0.49988076200E+03  0.00000000000E+00 0. -1.
         21    1    1    2  503  504 -0.31695027784E+02 -0.17611890891E+02  0.11147877123E+03  0.11722742820E+03  0.00000000000E+00 0. -1.
         21    1    1    2  504  502  0.95702863339E+02  0.56339265835E+02 -0.25813056770E+03  0.28100630047E+03  0.00000000000E+00 0. -1.
         21    1    1    2  505  506 -0.77623340800E+02  0.22102250319E+01 -0.13826526288E+03  0.15857979396E+03  0.00000000000E+00 0. -1.
         21    1    1    2  506  501  0.13615505244E+02 -0.40937599976E+02 -0.73126532261E+02  0.84904409752E+02  0.00000000000E+00 0. -1.
<scales pt_clust_3="36.25953" pt_clust_4="14000.00000" pt_clust_5="89.77417" pt_clust_6="45.22905"></scales>
<clustering>
<clus scale="   36.260">  1  3  2 -1</clus>
<clus scale="   45.229">  1  6  2 -1</clus>
<clus scale="   89.774">  2  5  1 -1</clus>
<clus scale="   36.260">  1  3  2 -1</clus>
</clustering>
</event>
<event>
 6    0  0.1463946E+003  0.8092409E+02  0.7546771E-02  0.1326449E+00
         21   -1    0    0  503  501  0.00000000000E+00  0.00000000000E+00  0.84387188795E+03  0.84387188795E+03  0.00000000000E+00 0.  1.
         21   -1    0    0  504  502 -0.00000000000E+00 -0.00000000000E+00 -0.33621081084E+03  0.33621081084E+03  0.00000000000E+00 0.  1.
         21    1    1    2  503  506 -0.71517335024E+02  0.11482777099E+03  0.61153826987E+03  0.62632196330E+03  0.00000000000E+00 0.  1.
         21    1    1    2  504  505  0.69486500246E+02 -0.11659337941E+02 -0.28865393615E+03  0.29712860638E+03  0.00000000000E+00 0.  1.
         21    1    1    2  505  501  0.58787226501E+02 -0.34273313159E+02  0.14239431448E+03  0.15781868961E+03  0.00000000000E+00 0.  1.
         21    1    1    2  506  502 -0.56756391724E+02 -0.68895119885E+02  0.42382428903E+02  0.98813439497E+02  0.00000000000E+00 0. -1.
<scales pt_clust_3="14000.00000" pt_clust_4="70.84679" pt_clust_5="68.04850" pt_clust_6="80.92409"></scales>
<clustering>
<clus scale="   68.048">  1  5  2 -1</clus>
<clus scale="   70.847">  2  4  1 -1</clus>
<clus scale="   80.924">  2  6  1 -1</clus>
<clus scale="   68.048">  1  3  2 -1</clus>
</clustering>
</event>
<event>
 6    0  0.1463946E+003  0.9117511E+02  0.7546771E-02  0.1300031E+00
         21   -1    0    0  506  501  0.00000000000E+00  0.00000000000E+00  0.15585352222E+04  0.15585352222E+04  0.00000000000E+00 0. -1.
         21   -1    0    0  505  502 -0.00000000000E+00 -0.00000000000E+00 -0.11542037341E+03  0.11542037341E+03  0.00000000000E+00 0.  1.
         21    1    1    2  503  502  0.16023321243E+02  0.26743499864E+02 -0.28880261157E+02  0.42497424547E+02  0.00000000000E+00 0.  1.
         21    1    1    2  504  503 -0.43349998094E+00  0.65669124995E+02  0.62548671754E+01  0.65967759271E+02  0.00000000000E+00 0.  1.
         21    1    1    2  505  501  0.31026051747E+01 -0.12702386165E+03  0.31760250909E+02  0.13097099345E+03  0.00000000000E+00 0.  1.
         21    1    1    2  506  504 -0.18692426436E+02  0.34611236790E+02  0.14339799919E+04  0.14345194183E+04  0.00000000000E+00 0. -1.
<scales pt_clust_3="31.17630" pt_clust_4="14000.00000" pt_clust_5="91.17511" pt_clust_6="39.39025"></scales>
<clustering>
<clus scale="   31.176">  2  3  1 -1</clus>
<clus scale="   39.390">  1  6  2 -1</clus>
<clus scale="   91.175">  1  5  2 -1</clus>
<clus scale="   39.390">  1  3  2 -1</clus>
</clustering>
</event>
<event>
 6    0  0.1463946E+003  0.1302525E+03  0.7546771E-02  0.1227081E+00
         21   -1    0    0  503  501  0.00000000000E+00  0.00000000000E+00  0.81548682437E+02  0.81548682437E+02  0.00000000000E+00 0. -1.
         21   -1    0    0  504  502 -0.00000000000E+00 -0.00000000000E+00 -0.92877748940E+03  0.92877748940E+03  0.00000000000E+00 0. -1.
         21    1    1    2  503  505  0.93203619203E+02  0.86408186046E+02 -0.13880314732E+03  0.18820096428E+03  0.00000000000E+00 0.  1.
         21    1    1    2  504  506 -0.91705414217E+02 -0.11060526872E+03 -0.20700084749E+03  0.25197769609E+03  0.00000000000E+00 0. -1.
         21    1    1    2  505  502 -0.21438723397E+02  0.72115827252E+02 -0.51173103932E+03  0.51723202531E+03  0.00000000000E+00 0. -1.
         21    1    1    2  506  501  0.19940518411E+02 -0.47918744578E+02  0.10306227176E+02  0.52915486155E+02  0.00000000000E+00 0. -1.
<scales pt_clust_3="130.25254" pt_clust_4="14000.00000" pt_clust_5="72.39284" pt_clust_6="51.90212"></scales>
<clustering>
<clus scale="   51.902">  1  6  2 -1</clus>
<clus scale="   72.393">  2  5  1 -1</clus>
<clus scale="  130.253">  1  3  2 -1</clus>
<clus scale="   51.902">  1  3  2 -1</clus>
</clustering>
</event>
<event>
 6    0  0.1463946E+003  0.8635261E+02  0.7546771E-02  0.1311933E+00
         21   -1    0    0  506  501  0.00000000000E+00  0.00000000000E+00  0.13342328825E+03  0.13342328825E+03  0.00000000000E+00 0.  1.
         21   -1    0    0  505  502 -0.00000000000E+00 -0.00000000000E+00 -0.20129092835E+03  0.20129092835E+03  0.00000000000E+00 0.  1.
         21    1    1    2  503  502  0.72619972612E+02 -0.87930093808E+01 -0.14544611441E+02  0.74582324703E+02  0.00000000000E+00 0.  1.
         21    1    1    2  504  501 -0.72068665253E+02 -0.55258885345E+02  0.10024240149E+02  0.91366965100E+02  0.00000000000E+00 0.  1.
         21    1    1    2  505  504 -0.38437587771E+02 -0.13929158609E+02 -0.70791092223E+02  0.81748690212E+02  0.00000000000E+00 0.  1.
         21    1    1    2  506  503  0.37886280413E+02  0.77981053335E+02  0.74438234183E+01  0.87016236587E+02  0.00000000000E+00 0.  1.
<scales pt_clust_3="60.50396" pt_clust_4="86.35261" pt_clust_5="40.88361" pt_clust_6="14000.00000"></scales>
<clustering>
<clus scale="   40.884">  2  5  1 -1</clus>
<clus scale="   60.504">  2  3  1 -1</clus>
<clus scale="   86.353">  2  4  1 -1</clus>
<clus scale="   86.353">  1  3  2 -1</clus>
</clustering>
</event>
<event>
 6    0  0.1463946E+003  0.1388303E+03  0.7546771E-02  0.1214912E+00
         21   -1    0    0  502  501  0.00000000000E+00  0.00000000000E+00  0.29430934377E+02  0.29430934377E+02  0.00000000000E+00 0. -1.
         21   -1    0    0  503  502 -0.00000000000E+00 -0.00000000000E+00 -0.32581686467E+04  0.32581686467E+04  0.00000000000E+00 0. -1.
         21    1    1    2  503  504  0.44628561557E+02 -0.18077848114E+02 -0.58986341222E+03  0.59182544907E+03  0.00000000000E+00 0. -1.
         21    1    1    2  504  506  0.23980573600E+02 -0.45929681528E+02 -0.33837671903E+03  0.34232062096E+03  0.00000000000E+00 0.  1.
         21    1    1    2  505  501 -0.12462499489E+03 -0.66603622330E+02 -0.18306918657E+03  0.23126123525E+03  0.00000000000E+00 0. -1.
         21    1    1    2  506  505  0.56015859732E+02  0.13061115197E+03 -0.21174283946E+04  0.21221922758E+04  0.00000000000E+00 0. -1.
<scales pt_clust_3="45.16437" pt_clust_4="104.87678" pt_clust_5="14000.00000" pt_clust_6="138.83026"></scales>
<clustering>
<clus scale="   45.164">  3  4 -1 -1</clus>
<clus scale="  104.877">  2  3  1 -1</clus>
<clus scale="  138.830">  2  6  1 -1</clus>
<clus scale="  138.830">  1  3  2 -1</clus>
</clustering>
</event>
<event>
 6    0  0.1463946E+003  0.6821895E+02  0.7546771E-02  0.1366256E+00
         21   -1    0    0  503  501  0.00000000000E+00  0.00000000000E+00  0.62497346092E+02  0.62497346092E+02  0.00000000000E+00 0. -1.
         21   -1    0    0  505  502 -0.00000000000E+00 -0.00000000000E+00 -0.94792440397E+03  0.94792440397E+03  0.00000000000E+00 0. -1.
         21    1    1    2  503  506  0.42408061362E+02 -0.18688557215E+02  0.23915380292E+02  0.52150275683E+02  0.00000000000E+00 0. -1.
         21    1    1    2  504  502  0.35456551801E+02  0.15741101762E+02 -0.24866455829E+03  0.25167242976E+03  0.00000000000E+00 0. -1.
         21    1    1    2  505  501 -0.40169811659E+02  0.81369592582E+02 -0.84849757062E+02  0.12423407600E+03  0.00000000000E+00 0. -1.
         21    1    1    2  506  504 -0.37694801505E+02 -0.78422137128E+02 -0.57582812282E+03  0.58236496862E+03  0.00000000000E+00 0. -1.
<scales pt_clust_3="46.87497" pt_clust_4="38.79368" pt_clust_5="14000.00000" pt_clust_6="68.21895"></scales>
<clustering>
<clus scale="   38.794">  2  4  1 -1</clus>
<clus scale="   46.875">  1  3  2 -1</clus>
<clus scale="   68.219">  2  6  1 -1</clus>
<clus scale="   46.875">  1  3  2 -1</clus>
</clustering>
</event>
<event>
 6    0  0.1463946E+003  0.1247876E+03  0.7546771E-02  0.1235402E+00
         21   -1    0    0  502  501  0.00000000000E+00  0.00000000000E+00  0.21237923714E+03  0.21237923714E+03  0.00000000000E+00 0.  1.
         21   -1    0    0  505  502 -0.00000000000E+00 -0.00000000000E+00 -0.33193514561E+03  0.33193514561E+03  0.00000000000E+00 0. -1.
         21    1    1    2  503  504 -0.76457888311E+02 -0.71162111182E+02  0.40964045666E+02  0.11219584569E+03  0.00000000000E+00 0.  1.
         21    1    1    2  504  501  0.19583922061E+02  0.37347351136E+02  0.49090251868E+02  0.64716361677E+02  0.00000000000E+00 0.  1.
         21    1    1    2  505  506  0.31850157453E+02  0.13134901860E+03 -0.22799462491E+03  0.26504442308E+03  0.00000000000E+00 0. -1.
         21    1    1    2  506  503  0.25023808797E+02 -0.97534258557E+02  0.18384418895E+02  0.10235775231E+03  0.00000000000E+00 0.  1.
<scales pt_clust_3="85.13595" pt_clust_4="42.17054" pt_clust_5="14000.00000" pt_clust_6="124.78762"></scales>
<clustering>
<clus scale="   42.171">  1  4  2 -1</clus>
<clus scale="   85.136">  1  3  2 -1</clus>
<clus scale="  124.788">  1  6  2 -1</clus>
<clus scale="   42.171">  1  3  2 -1</clus>
</clustering>
</event>
<event>
 6    0  0.1463946E+003  0.6237631E+02  0.7546771E-02  0.1388122E+00
         21   -1    0    0  504  501  0.00000000000E+00  0.00000000000E+00  0.95934232450E+03  0.95934232450E+03  0.00000000000E+00 0.  1.
         21   -1    0    0  506  502 -0.00000000000E+00 -0.00000000000E+00 -0.61885839822E+03  0.61885839822E+03  0.00000000000E+00 0. -1.
         21    1    1    2  503  502 -0.30635912700E+02  0.24427015790E+02 -0.56064899025E+03  0.56201648421E+03  0.00000000000E+00 0. -1.
         21    1    1    2  504  503  0.59385356940E+02  0.16630470196E+01 -0.30057349539E+02  0.66579505898E+02  0.00000000000E+00 0.  1.
         21    1    1    2  505  501  0.48123826246E+02  0.30855695050E+02  0.65154342278E+03  0.65404648791E+03  0.00000000000E+00 0.  1.
         21    1    1    2  506  505 -0.76873270485E+02 -0.56945757860E+02  0.27964684329E+03  0.29555824471E+03  0.00000000000E+00 0.  1.
<scales pt_clust_3="39.18212" pt_clust_4="40.30491" pt_clust_5="14000.00000" pt_clust_6="62.37631"></scales>
<clustering>
<clus scale="   39.182">  2  3  1 -1</clus>
<clus scale="   40.305">  2  4  1 -1</clus>
<clus scale="   62.376">  2  6  1 -1</clus>
<clus scale="   62.376">  1  3  2 -1</clus>
</clustering>
</event>
<event>
 6    0  0.1463946E+003  0.2475320E+03  0.7546771E-02  0.1114875E+00
         21   -1    0    0  503  501  0.00000000000E+00  0.00000000000E+00  0.18713435291E+03  0.18713435291E+03  0.00000000000E+00 0. -1.
         21   -1    0    0  505  502 -0.00000000000E+00 -0.00000000000E+00 -0.11184216816E+04  0.11184216816E+04  0.00000000000E+00 0. -1.
         21    1    1    2  503  504 -0.39158986429E+02 -0.25784319753E+03 -0.55640856562E+03  0.61449738211E+03  0.00000000000E+00 0. -1.
         21    1    1    2  504  502 -0.26471812956E+02  0.16676491478E+02 -0.28497231903E+03  0.28668464358E+03  0.00000000000E+00 0. -1.
         21    1    1    2  505  506 -0.42297628328E+02  0.19017513513E+02 -0.14421995827E+03  0.15149307425E+03  0.00000000000E+00 0. -1.
         21    1    1    2  506  501  0.10792842771E+03  0.22214919253E+03  0.54313514220E+02  0.25288093459E+03  0.00000000000E+00 0. -1.
<scales pt_clust_3="247.53204" pt_clust_4="31.28677" pt_clust_5="51.88400" pt_clust_6="14000.00000"></scales>
<clustering>
<clus scale="   31.287">  2  4  1 -1</clus>
<clus scale="   51.884">  2  5  1 -1</clus>
<clus scale="  247.532">  2  3  1 -1</clus>
<clus scale="  247.532">  1  3  2 -1</clus>
</clustering>
</event>
<event>
 6    0  0.1463946E+003  0.8919505E+02  0.7546771E-02  0.1304813E+00
         21   -1    0    0  506  501  0.00000000000E+00  0.00000000000E+00  0.34674452854E+03  0.34674452854E+03  0.00000000000E+00 0.  1.
         21   -1    0    0  504  502 -0.00000000000E+00 -0.00000000000E+00 -0.22593804364E+03  0.22593804364E+03  0.00000000000E+00 0.  1.
         21    1    1    2  503  502  0.59838904493E+02  0.13246178913E+02  0.72743783150E+00  0.61291801349E+02  0.00000000000E+00 0. -1.
         21    1    1    2  504  501  0.58763419545E+01 -0.73260508103E+02 -0.14432138161E+03  0.16195769396E+03  0.00000000000E+00 0.  1.
         21    1    1    2  505  503 -0.18985493238E+02  0.12440026367E+03  0.81360094527E+02  0.14985105784E+03  0.00000000000E+00 0.  1.
         21    1    1    2  506  505 -0.46729753210E+02 -0.64385934481E+02  0.18304033415E+03  0.19958201903E+03  0.00000000000E+00 0. -1.
<scales pt_clust_3="61.28748" pt_clust_4="89.19505" pt_clust_5="14000.00000" pt_clust_6="77.63643"></scales>
<clustering>
<clus scale="   61.287">  2  3  1 -1</clus>
<clus scale="   77.636">  1  6  2 -1</clus>
<clus scale="   89.195">  2  4  1 -1</clus>
<clus scale="   77.636">  1  3  2 -1</clus>
</clustering>
</event>
<event>
 6    0  0.1463946E+003  0.8080318E+02  0.7546771E-02  0.1326787E+00
         21   -1    0    0  505  501  0.00000000000E+00  0.00000000000E+00  0.25411551676E+03  0.25411551676E+03  0.00000000000E+00 0. -1.
         21   -1    0    0  504  502 -0.00000000000E+00 -0.00000000000E+00 -0.40652852504E+03  0.40652852504E+03  0.00000000000E+00 0. -1.
         21    1    1    2  503  506 -0.54834949090E+02 -0.59783782572E+02 -0.85787953996E+02  0.11807008661E+03  0.00000000000E+00 0. -1.
         21    1    1    2  504  503 -0.64764748263E+02  0.33935719671E+02 -0.17981117838E+03  0.19410864369E+03  0.00000000000E+00 0. -1.
         21    1    1    2  505  502  0.75211122165E+02  0.44316589174E+02 -0.98367512513E+02  0.13151745318E+03  0.00000000000E+00 0. -1.
         21    1    1    2  506  501  0.44388575188E+02 -0.18468526273E+02  0.21155363660E+03  0.21694785832E+03  0.00000000000E+00 0. -1.
<scales pt_clust_3="80.80318" pt_clust_4="64.53375" pt_clust_5="14000.00000" pt_clust_6="48.07736"></scales>
<clustering>
<clus scale="   48.077">  1  6  2 -1</clus>
<clus scale="   64.534">  2  4  1 -1</clus>
<clus scale="   80.803">  1  3  2 -1</clus>
<clus scale="   48.077">  1  3  2 -1</clus>
</clustering>
</event>
<event>
 6    0  0.1463946E+003  0.2046790E+03  0.7546771E-02  0.1145850E+00
         21   -1    0    0  503  501  0.00000000000E+00  0.00000000000E+00  0.18075817437E+03  0.18075817437E+03  0.00000000000E+00 0.  1.
         21   -1    0    0  504  502 -0.00000000000E+00 -0.00000000000E+00 -0.91139235230E+03  0.91139235230E+03  0.00000000000E+00 0.  1.
         21    1    1    2  503  506  0.25651554942E+01  0.97932458751E+02 -0.19940431338E+03  0.22216981500E+03  0.00000000000E+00 0.  1.
         21    1    1    2  504  505  0.78075878891E+02 -0.31717529143E+03 -0.40384849532E+03  0.51941276027E+03  0.00000000000E+00 0.  1.
         21    1    1    2  505  501 -0.46528780617E+02  0.17785470659E+03  0.28209842479E+02  0.18599198718E+03  0.00000000000E+00 0.  1.
         21    1    1    2  506  502 -0.34112253768E+02  0.41388126088E+02 -0.15559121171E+03  0.16457596422E+03  0.00000000000E+00 0. -1.
<scales pt_clust_3="153.46164" pt_clust_4="14000.00000" pt_clust_5="204.67902" pt_clust_6="41.49496"></scales>
<clustering>
<clus scale="   41.495">  3  6 -1 -1</clus>
<clus scale="  153.462">  2  3  1 -1</clus>
<clus scale="  204.679">  1  5  2 -1</clus>
<clus scale="  204.679">  1  3  2 -1</clus>
</clustering>
</event>
<event>
 6    0  0.1763586E+003  0.9640902E+02  0.7546771E-02  0.1288034E+00
         21   -1    0    0  504  501  0.00000000000E+00  0.00000000000E+00  0.20903849052E+03  0.20903849052E+03  0.00000000000E+00 0. -1.
         21   -1    0    0  505  502 -0.00000000000E+00 -0.00000000000E+00 -0.18579379257E+04  0.18579379257E+04  0.00000000000E+00 0. -1.
         21    1    1    2  503  501 -0.45612709748E+02  0.68328032580E+02  0.88646695946E+02  0.12086139180E+03  0.00000000000E+00 0. -1.
         21    1    1    2  504  506 -0.31629601309E+02 -0.10240754693E+02  0.98506924741E+02  0.10396595095E+03  0.00000000000E+00 0. -1.
         21    1    1    2  505  503  0.10759517257E+03 -0.43956680508E+02 -0.14092676343E+04  0.14140523951E+04  0.00000000000E+00 0. -1.
         21    1    1    2  506  502 -0.30352861515E+02 -0.14130597379E+02 -0.42678542155E+03  0.42809667837E+03  0.00000000000E+00 0. -1.
<scales pt_clust_3="14000.00000" pt_clust_4="33.24612" pt_clust_5="96.40902" pt_clust_6="33.68158"></scales>
<clustering>
<clus scale="   33.246">  1  4  2 -1</clus>
<clus scale="   33.682">  2  6  1 -1</clus>
<clus scale="   96.409">  2  5  1 -1</clus>
<clus scale="   33.246">  1  3  2 -1</clus>
</clustering>
</event>
<event>
 6    0  0.1463946E+003  0.2444555E+03  0.7546771E-02  0.1116860E+00
         21   -1    0    0  505  501  0.00000000000E+00  0.00000000000E+00  0.74083101469E+03  0.74083101469E+03  0.00000000000E+00 0. -1.
         21   -1    0    0  504  502 -0.00000000000E+00 -0.00000000000E+00 -0.14809288167E+03  0.14809288167E+03  0.00000000000E+00 0. -1.
         21    1    1    2  503  502 -0.96866978834E+02  0.11228778328E+02  0.19254198220E+02  0.99398295762E+02  0.00000000000E+00 0. -1.
         21    1    1    2  504  506  0.20320518352E+03 -0.43401637831E+02  0.11315181012E+03  0.23659962153E+03  0.00000000000E+00 0. -1.
         21    1    1    2  505  503 -0.20381845832E+03  0.32350243825E+02  0.34396923543E+03  0.40112758214E+03  0.00000000000E+00 0. -1.
         21    1    1    2  506  501  0.97480253633E+02 -0.17738432166E+00  0.11636288926E+03  0.15179839693E+03  0.00000000000E+00 0. -1.
<scales pt_clust_3="97.51562" pt_clust_4="52.45512" pt_clust_5="232.14939" pt_clust_6="52.45512"></scales>
<clustering>
<clus scale="   52.455">  4  6 -1 -1</clus>
<clus scale="   97.516">  2  3  1 -1</clus>
<clus scale="  232.149">  1  5  2 -1</clus>
<clus scale="  232.149">  1  3  2 -1</clus>
</clustering>
</event>
<event>
 6    0  0.1463946E+003  0.6849729E+02  0.7546771E-02  0.1365279E+00
         21   -1    0    0  504  501  0.00000000000E+00  0.00000000000E+00  0.55594305647E+02  0.55594305647E+02  0.00000000000E+00 0.  1.
         21   -1    0    0  505  502 -0.00000000000E+00 -0.00000000000E+00 -0.32036576003E+04  0.32036576003E+04  0.00000000000E+00 0. -1.
         21    1    1    2  503  502  0.60372668712E+02 -0.37106206108E+02 -0.28900538940E+04  0.28909225587E+04  0.00000000000E+00 0. -1.
         21    1    1    2  504  503 -0.83909148165E+02 -0.52691946061E+02 -0.11765999251E+03  0.15382152048E+03  0.00000000000E+00 0.  1.
         21    1    1    2  505  506  0.51478067380E+01  0.40501414211E+02 -0.15467918337E+03  0.15997660528E+03  0.00000000000E+00 0.  1.
         21    1    1    2  506  501  0.18388672715E+02  0.49296737958E+02  0.14329775311E+02  0.54531221497E+02  0.00000000000E+00 0. -1.
<scales pt_clust_3="68.49729" pt_clust_4="14000.00000" pt_clust_5="40.82725" pt_clust_6="52.87704"></scales>
<clustering>
<clus scale="   40.827">  2  5  1 -1</clus>
<clus scale="   52.877">  1  6  2 -1</clus>
<clus scale="   68.497">  2  3  1 -1</clus>
<clus scale="   52.877">  1  3  2 -1</clus>
</clustering>
</event>
<event>
 6    0  0.1463946E+003  0.1271221E+03  0.7546771E-02  0.1231790E+00
         21   -1    0    0  503  501  0.00000000000E+00  0.00000000000E+00  0.15949224782E+04  0.15949224782E+04  0.00000000000E+00 0.  1.
         21   -1    0    0  504  502 -0.00000000000E+00 -0.00000000000E+00 -0.33609224495E+03  0.33609224495E+03  0.00000000000E+00 0. -1.
         21    1    1    2  503  505 -0.20094844249E+02 -0.40947745776E+02  0.51965668662E+03  0.52165466796E+03  0.00000000000E+00 0. -1.
         21    1    1    2  504  501  0.50975803129E+02 -0.86026660687E+01 -0.89712647572E+02  0.10354176695E+03  0.00000000000E+00 0. -1.
         21    1    1    2  505  506  0.30010769435E+02 -0.75410161311E+02  0.10453872177E+04  0.10485331534E+04  0.00000000000E+00 0.  1.
         21    1    1    2  506  502 -0.60891728315E+02  0.12496057316E+03 -0.21650102355E+03  0.25728513486E+03  0.00000000000E+00 0. -1.
<scales pt_clust_3="37.40719" pt_clust_4="51.69660" pt_clust_5="37.40719" pt_clust_6="116.91944"></scales>
<clustering>
<clus scale="   37.407">  3  5 -1 -1</clus>
<clus scale="   51.697">  2  4  1 -1</clus>
<clus scale="  116.919">  2  6  1 -1</clus>
<clus scale="  127.122">  1  3  2 -1</clus>
</clustering>
</event>
<event>
 6    0  0.1463946E+003  0.1290550E+03  0.7546771E-02  0.1228865E+00
         21   -1    0    0  505  501  0.00000000000E+00  0.00000000000E+00  0.23855115775E+03  0.23855115775E+03  0.00000000000E+00 0.  1.
         21   -1    0    0  504  502 -0.00000000000E+00 -0.00000000000E+00 -0.50700327176E+03  0.50700327176E+03  0.00000000000E+00 0.  1.
         21    1    1    2  503  501  0.12192486031E+03 -0.58513143463E+02  0.17748175570E+03  0.22313501098E+03  0.00000000000E+00 0.  1.
         21    1    1    2  504  506 -0.75730471006E+02  0.31867723855E+02 -0.27115588234E+03  0.28333049358E+03  0.00000000000E+00 0.  1.
         21    1    1    2  505  502  0.76258517622E+01 -0.55358485863E+02 -0.27872570879E+02  0.62446743546E+02  0.00000000000E+00 0.  1.
         21    1    1    2  506  503 -0.53820241064E+02  0.82003905471E+02 -0.14690541648E+03  0.17664218141E+03  0.00000000000E+00 0. -1.
<scales pt_clust_3="14000.00000" pt_clust_4="71.16577" pt_clust_5="55.88126" pt_clust_6="129.05497"></scales>
<clustering>
<clus scale="   55.881">  2  5  1 -1</clus>
<clus scale="   71.166">  2  4  1 -1</clus>
<clus scale="  129.055">  2  6  1 -1</clus>
<clus scale="  129.055">  1  3  2 -1</clus>
</clustering>
</event>
<event>
 6    0  0.1463946E+003  0.1036988E+03  0.7546771E-02  0.1272705E+00
         21   -1    0    0  505  501  0.00000000000E+00  0.00000000000E+00  0.68959536133E+03  0.68959536133E+03  0.00000000000E+00 0. -1.
         21   -1    0    0  504  502 -0.00000000000E+00 -0.00000000000E+00 -0.38557099346E+03  0.38557099346E+03  0.00000000000E+00 0.  1.
         21    1    1    2  503  501 -0.61287538214E+02 -0.10959818693E+03  0.57127576102E+03  0.58491360050E+03  0.00000000000E+00 0. -1.
         21    1    1    2  504  506  0.12018061981E+02  0.38652071804E+02 -0.82336547427E+02  0.91748152629E+02  0.00000000000E+00 0.  1.
         21    1    1    2  505  502  0.41959526338E+02  0.98838056037E+00 -0.27838165113E+03  0.28152783598E+03  0.00000000000E+00 0.  1.
         21    1    1    2  506  503  0.73099498953E+01  0.69957734570E+02  0.93466805417E+02  0.11697676568E+03  0.00000000000E+00 0. -1.
<scales pt_clust_3="14000.00000" pt_clust_4="40.47736" pt_clust_5="64.96080" pt_clust_6="103.69883"></scales>
<clustering>
<clus scale="   40.477">  2  4  1 -1</clus>
<clus scale="   64.961">  2  5  1 -1</clus>
<clus scale="  103.699">  2  6  1 -1</clus>
<clus scale="  103.699">  1  3  2 -1</clus>
</clustering>
</event>
<event>
 6    0  0.1463946E+003  0.1039834E+03  0.7546771E-02  0.1272136E+00
         21   -1    0    0  505  501  0.00000000000E+00  0.00000000000E+00  0.31673598646E+03  0.31673598646E+03  0.00000000000E+00 0.  1.
         21   -1    0    0  504  502 -0.00000000000E+00 -0.00000000000E+00 -0.29692531931E+03  0.29692531931E+03  0.00000000000E+00 0.  1.
         21    1    1    2  503  502  0.59821856069E+02 -0.55199650259E+02 -0.16264396211E+02  0.83007146900E+02  0.00000000000E+00 0.  1.
         21    1    1    2  504  506 -0.53182971062E+02  0.21335752290E+02 -0.10391915409E+03  0.11867111411E+03  0.00000000000E+00 0.  1.
         21    1    1    2  505  503  0.41907155987E+02  0.63033130634E+02  0.26454476319E+03  0.27516052953E+03  0.00000000000E+00 0.  1.
         21    1    1    2  506  501 -0.48546040994E+02 -0.29169232665E+02 -0.12455054574E+03  0.13682251523E+03  0.00000000000E+00 0.  1.
<scales pt_clust_3="90.24471" pt_clust_4="51.35505" pt_clust_5="75.69270" pt_clust_6="51.35505"></scales>
<clustering>
<clus scale="   51.355">  4  6 -1 -1</clus>
<clus scale="   75.693">  1  5  2 -1</clus>
<clus scale="   90.245">  1  3  2 -1</clus>
<clus scale="   75.693">  1  3  2 -1</clus>
</clustering>
</event>
<event>
 6    0  0.1463946E+003  0.1199990E+03  0.7546771E-02  0.1243099E+00
         21   -1    0    0  505  501  0.00000000000E+00  0.00000000000E+00  0.77540023713E+02  0.77540023713E+02  0.00000000000E+00 0. -1.
         21   -1    0    0  501  502 -0.00000000000E+00 -0.00000000000E+00 -0.42640123637E+03  0.42640123637E+03  0.00000000000E+00 0. -1.
         21    1    1    2  503  504 -0.46585991400E+02  0.13278180366E+02 -0.43641651334E+02  0.65200907967E+02  0.00000000000E+00 0. -1.
         21    1    1    2  504  506  0.64867218689E+02 -0.12786479822E+03 -0.69595489019E+02  0.15937595420E+03  0.00000000000E+00 0. -1.
         21    1    1    2  505  503 -0.20560073971E+02  0.44984283752E+02 -0.21015523564E+02  0.53739693496E+02  0.00000000000E+00 0. -1.
         21    1    1    2  506  502  0.22788466820E+01  0.69602334102E+02 -0.21460854874E+03  0.22562470442E+03  0.00000000000E+00 0. -1.
<scales pt_clust_3="44.95231" pt_clust_4="111.07000" pt_clust_5="44.95231" pt_clust_6="69.63963"></scales>
<clustering>
<clus scale="   44.952">  3  5 -1 -1</clus>
<clus scale="   69.640">  2  6  1 -1</clus>
<clus scale="  111.070">  2  4  1 -1</clus>
<clus scale="  119.999">  1  3  2 -1</clus>
</clustering>
</event>
<event>
 6    0  0.1463946E+003  0.8964763E+02  0.7546771E-02  0.1303707E+00
         21   -1    0    0  503  501  0.00000000000E+00  0.00000000000E+00  0.10154400381E+03  0.10154400381E+03  0.00000000000E+00 0.  1.
         21   -1    0    0  504  502 -0.00000000000E+00 -0.00000000000E+00 -0.32727767623E+03  0.32727767623E+03  0.00000000000E+00 0.  1.
         21    1    1    2  503  506  0.92552694097E+02 -0.51172809892E+02  0.36194258664E+02  0.11177961360E+03  0.00000000000E+00 0.  1.
         21    1    1    2  504  501 -0.35265335608E+02  0.69962275847E+01 -0.14957792805E+03  0.15383805659E+03  0.00000000000E+00 0.  1.
         21    1    1    2  505  502  0.79023998756E+01  0.52030383673E+02 -0.46860464666E+02  0.70466388425E+02  0.00000000000E+00 0.  1.
         21    1    1    2  506  505 -0.65189758364E+02 -0.78538013658E+01 -0.65489538362E+02  0.92737621418E+02  0.00000000000E+00 0.  1.
<scales pt_clust_3="89.64763" pt_clust_4="35.95262" pt_clust_5="54.50638" pt_clust_6="14000.00000"></scales>
<clustering>
<clus scale="   35.953">  2  4  1 -1</clus>
<clus scale="   54.506">  2  5  1 -1</clus>
<clus scale="   89.648">  1  3  2 -1</clus>
<clus scale="   89.648">  1  3  2 -1</clus>
</clustering>
</event>
<event>
 6    0  0.1463946E+003  0.1571141E+03  0.7546771E-02  0.1191994E+00
         21   -1    0    0  503  501  0.00000000000E+00  0.00000000000E+00  0.96139490759E+02  0.96139490759E+02  0.00000000000E+00 0.  1.
         21   -1    0    0  504  502 -0.00000000000E+00 -0.00000000000E+00 -0.50552279257E+03  0.50552279257E+03  0.00000000000E+00 0.  1.
         21    1    1    2  503  505 -0.10735992149E+03  0.62439040851E+02 -0.16215399347E+02  0.12525065166E+03  0.00000000000E+00 0.  1.
         21    1    1    2  504  501  0.96926856496E+02 -0.90757852464E+02 -0.31642246313E+03  0.34315445279E+03  0.00000000000E+00 0.  1.
         21    1    1    2  505  506 -0.36523415439E+02 -0.13119438057E+02 -0.68478650974E+01  0.39407775713E+02  0.00000000000E+00 0.  1.
         21    1    1    2  506  502  0.46956480436E+02  0.41438249670E+02 -0.69897574232E+02  0.93849403164E+02  0.00000000000E+00 0. -1.
<scales pt_clust_3="32.81274" pt_clust_4="145.73675" pt_clust_5="32.81274" pt_clust_6="62.62619"></scales>
<clustering>
<clus scale="   32.813">  3  5 -1 -1</clus>
<clus scale="   62.626">  2  6  1 -1</clus>
<clus scale="  145.737">  2  4  1 -1</clus>
<clus scale="  157.114">  1  3  2 -1</clus>
</clustering>
</event>
<event>
 6    0  0.1463946E+003  0.9153930E+02  0.7546771E-02  0.1299166E+00
         21   -1    0    0  503  501  0.00000000000E+00  0.00000000000E+00  0.91839318165E+03  0.91839318165E+03  0.00000000000E+00 0.  1.
         21   -1    0    0  504  502 -0.00000000000E+00 -0.00000000000E+00 -0.10867502624E+04  0.10867502624E+04  0.00000000000E+00 0. -1.
         21    1    1    2  503  505  0.75194496775E+02  0.30099935387E+02  0.44453733334E+03  0.45185579468E+03  0.00000000000E+00 0.  1.
         21    1    1    2  504  501 -0.27308816954E+02 -0.24909163624E+02 -0.71978752815E+01  0.37656969136E+02  0.00000000000E+00 0. -1.
         21    1    1    2  505  506 -0.11675851946E+03 -0.61871958784E+01  0.44631016511E+03  0.46137143034E+03  0.00000000000E+00 0.  1.
         21    1    1    2  506  502  0.68872839641E+02  0.99642411587E+00 -0.10520067039E+04  0.10542592499E+04  0.00000000000E+00 0. -1.
<scales pt_clust_3="91.53930" pt_clust_4="36.96266" pt_clust_5="14000.00000" pt_clust_6="48.07162"></scales>
<clustering>
<clus scale="   36.963">  2  4  1 -1</clus>
<clus scale="   48.072">  2  6  1 -1</clus>
<clus scale="   91.539">  1  3  2 -1</clus>
<clus scale="   91.539">  1  3  2 -1</clus>
</clustering>
</event>
<event>
 6    0  0.1463946E+003  0.1216024E+03  0.7546771E-02  0.1240477E+00
         21   -1    0    0  506  501  0.00000000000E+00  0.00000000000E+00  0.95155756213E+03  0.95155756213E+03  0.00000000000E+00 0.  1.
         21   -1    0    0  504  502 -0.00000000000E+00 -0.00000000000E+00 -0.12622558074E+03  0.12622558074E+03  0.00000000000E+00 0.  1.
         21    1    1    2  503  502  0.15532438086E+02 -0.29182236248E+02 -0.10602845223E+03  0.11106255997E+03  0.00000000000E+00 0.  1.
         21    1    1    2  504  501 -0.11801713484E+03  0.18451990014E+02  0.69788108012E+03  0.70803002905E+03  0.00000000000E+00 0.  1.
         21    1    1    2  505  503  0.66923871021E+02 -0.11141331336E+02  0.16615298806E+03  0.17947074753E+03  0.00000000000E+00 0.  1.
         21    1    1    2  506  505  0.35560825732E+02  0.21871577570E+02  0.67326365433E+02  0.79219806328E+02  0.00000000000E+00 0.  1.
<scales pt_clust_3="33.05843" pt_clust_4="114.00523" pt_clust_5="31.63543" pt_clust_6="31.63543"></scales>
<clustering>
<clus scale="   33.058">  2  3  1 -1</clus>
<clus scale="   31.635">  5  6 -1 -1</clus>
<clus scale="  114.005">  1  4  2 -1</clus>
<clus scale="  114.005">  1  3  2 -1</clus>
</clustering>
</event>
<event>
 6    0  0.1463946E+003  0.1608827E+03  0.7546771E-02  0.1187704E+00
         21   -1    0    0  504  501  0.00000000000E+00  0.00000000000E+00  0.58612770703E+03  0.58612770703E+03  0.00000000000E+00 0.  1.
         21   -1    0    0  505  502 -0.00000000000E+00 -0.00000000000E+00 -0.27769440911E+03  0.27769440911E+03  0.00000000000E+00 0. -1.
         21    1    1    2  503  501 -0.35723242724E+02  0.46971164726E+02  0.79055150562E+02  0.98651696472E+02  0.00000000000E+00 0.  1.
         21    1    1    2  504  502  0.34259272000E+02  0.46057592784E+01  0.23464158396E+02  0.41778911734E+02  0.00000000000E+00 0.  1.
         21    1    1    2  505  506 -0.91794835743E+02 -0.13502780404E+03 -0.22311888915E+03  0.27647936348E+03  0.00000000000E+00 0. -1.
         21    1    1    2  506  503  0.93258806467E+02  0.83450880033E+02  0.42903287811E+03  0.44691214446E+03  0.00000000000E+00 0.  1.
<scales pt_clust_3="56.47799" pt_clust_4="34.56748" pt_clust_5="14000.00000" pt_clust_6="160.88266"></scales>
<clustering>
<clus scale="   34.567">  1  4  2 -1</clus>
<clus scale="   56.478">  1  3  2 -1</clus>
<clus scale="  160.883">  1  6  2 -1</clus>
<clus scale="   34.567">  1  3  2 -1</clus>
</clustering>
</event>
<event>
 6    0  0.1463946E+003  0.7135849E+02  0.7546771E-02  0.1355533E+00
         21   -1    0    0  504  501  0.00000000000E+00  0.00000000000E+00  0.37200159102E+03  0.37200159102E+03  0.00000000000E+00 0.  1.
         21   -1    0    0  505  502 -0.00000000000E+00 -0.00000000000E+00 -0.62091205418E+03  0.62091205418E+03  0.00000000000E+00 0.  1.
         21    1    1    2  503  506 -0.10835659507E+03 -0.42803768236E+02  0.13839770440E+02  0.11732371251E+03  0.00000000000E+00 0.  1.
         21    1    1    2  504  502  0.50372392992E+02  0.53111482262E+02  0.17765024832E+03  0.19214010058E+03  0.00000000000E+00 0.  1.
         21    1    1    2  505  503  0.48688482905E+02  0.23762215712E+02 -0.55801955510E+03  0.56064341174E+03  0.00000000000E+00 0.  1.
         21    1    1    2  506  501  0.92957191723E+01 -0.34069929738E+02  0.11761907318E+03  0.12280642037E+03  0.00000000000E+00 0.  1.
<scales pt_clust_3="14000.00000" pt_clust_4="71.35849" pt_clust_5="54.14356" pt_clust_6="35.31530"></scales>
<clustering>
<clus scale="   35.315">  1  6  2 -1</clus>
<clus scale="   54.144">  2  5  1 -1</clus>
<clus scale="   71.358">  1  4  2 -1</clus>
<clus scale="   35.315">  1  3  2 -1</clus>
</clustering>
</event>
<event>
 6    0  0.1463946E+003  0.2139404E+03  0.7546771E-02  0.1138483E+00
         21   -1    0    0  505  501  0.00000000000E+00  0.00000000000E+00  0.26722956634E+03  0.26722956634E+03  0.00000000000E+00 0. -1.
         21   -1    0    0  501  502 -0.00000000000E+00 -0.00000000000E+00 -0.46469097504E+03  0.46469097504E+03  0.00000000000E+00 0. -1.
         21    1    1    2  503  506  0.14912378407E+03 -0.81829349386E+02  0.44420163642E+02  0.17580414197E+03  0.00000000000E+00 0. -1.
         21    1    1    2  504  502 -0.57562964516E+02 -0.80419155314E+01 -0.10295362436E+03  0.11822696840E+03  0.00000000000E+00 0. -1.
         21    1    1    2  505  503  0.15539894566E+02 -0.31218832638E+02  0.12423675863E+03  0.12903827350E+03  0.00000000000E+00 0. -1.
         21    1    1    2  506  504 -0.10710071412E+03  0.12109009756E+03 -0.26316470661E+03  0.30885115751E+03  0.00000000000E+00 0. -1.
<scales pt_clust_3="193.16164" pt_clust_4="55.82755" pt_clust_5="34.87268" pt_clust_6="55.82755"></scales>
<clustering>
<clus scale="   34.873">  1  5  2 -1</clus>
<clus scale="   55.828">  4  6 -1 -1</clus>
<clus scale="  193.162">  1  3  2 -1</clus>
<clus scale="   34.873">  1  3  2 -1</clus>
</clustering>
</event>
<event>
 6    0  0.1463946E+003  0.9890688E+02  0.7546771E-02  0.1282612E+00
         21   -1    0    0  505  501  0.00000000000E+00  0.00000000000E+00  0.12818677948E+04  0.12818677948E+04  0.00000000000E+00 0.  1.
         21   -1    0    0  504  502 -0.00000000000E+00 -0.00000000000E+00 -0.22136483923E+03  0.22136483923E+03  0.00000000000E+00 0. -1.
         21    1    1    2  503  502 -0.11932117932E+03 -0.97518671178E+01 -0.33216421259E+01  0.11976508695E+03  0.00000000000E+00 0. -1.
         21    1    1    2  504  506  0.22664865810E+02  0.21657066873E+02 -0.14932798251E+03  0.15258299724E+03  0.00000000000E+00 0. -1.
         21    1    1    2  505  503  0.91639294491E+02  0.18982858924E+02  0.24559798015E+03  0.26282404205E+03  0.00000000000E+00 0.  1.
         21    1    1    2  506  501  0.50170190145E+01 -0.30888058680E+02  0.96755460008E+03  0.96806050781E+03  0.00000000000E+00 0.  1.
<scales pt_clust_3="14000.00000" pt_clust_4="31.25694" pt_clust_5="98.90688" pt_clust_6="31.29285"></scales>
<clustering>
<clus scale="   31.293">  1  6  2 -1</clus>
<clus scale="   31.257">  2  4  1 -1</clus>
<clus scale="   98.907">  1  5  2 -1</clus>
<clus scale="   31.293">  1  3  2 -1</clus>
</clustering>
</event>
<event>
 6    0  0.1463946E+003  0.9071785E+02  0.7546771E-02  0.1301123E+00
         21   -1    0    0  506  501  0.00000000000E+00  0.00000000000E+00  0.44823959058E+02  0.44823959058E+02  0.00000000000E+00 0.  1.
         21   -1    0    0  503  502 -0.00000000000E+00 -0.00000000000E+00 -0.17780898460E+04  0.17780898460E+04  0.00000000000E+00 0.  1.
         21    1    1    2  503  504  0.63175975867E+02  0.49396872145E+02 -0.40293720497E+03  0.41084017093E+03  0.00000000000E+00 0. -1.
         21    1    1    2  504  501 -0.74619285708E+01 -0.73373179526E+02 -0.19551593251E+01  0.73777547396E+02  0.00000000000E+00 0.  1.
         21    1    1    2  505  502 -0.49852616357E+02  0.54619363761E+02 -0.12696298897E+04  0.12717816696E+04  0.00000000000E+00 0.  1.
         21    1    1    2  506  505 -0.58614309387E+01 -0.30643056381E+02 -0.58743632943E+02  0.66514417147E+02  0.00000000000E+00 0.  1.
<scales pt_clust_3="14000.00000" pt_clust_4="90.71785" pt_clust_5="73.46167" pt_clust_6="31.19861"></scales>
<clustering>
<clus scale="   31.199">  1  6  2 -1</clus>
<clus scale="   73.462">  2  5  1 -1</clus>
<clus scale="   90.718">  1  4  2 -1</clus>
<clus scale="   31.199">  1  3  2 -1</clus>
</clustering>
</event>
<event>
 6    0  0.1463946E+003  0.1110415E+03  0.7546771E-02  0.1258653E+00
         21   -1    0    0  505  501  0.00000000000E+00  0.00000000000E+00  0.83096458476E+03  0.83096458476E+03  0.00000000000E+00 0.  1.
         21   -1    0    0  504  502 -0.00000000000E+00 -0.00000000000E+00 -0.12514799900E+03  0.12514799900E+03  0.00000000000E+00 0. -1.
         21    1    1    2  503  501 -0.69737107196E+02  0.80081084127E+02  0.59513799964E+03  0.60453741222E+03  0.00000000000E+00 0.  1.
         21    1    1    2  504  503  0.85468189730E+02 -0.71335042143E+02 -0.83452847964E+02  0.13913258974E+03  0.00000000000E+00 0. -1.
         21    1    1    2  505  506  0.34730844794E+02 -0.84326802100E+01  0.85042659779E+02  0.92247469656E+02  0.00000000000E+00 0. -1.
         21    1    1    2  506  502 -0.50461927329E+02 -0.31336177328E+00  0.10908877431E+03  0.12019511215E+03  0.00000000000E+00 0. -1.
<scales pt_clust_3="14000.00000" pt_clust_4="111.04150" pt_clust_5="35.73992" pt_clust_6="45.12712"></scales>
<clustering>
<clus scale="   35.740">  1  5  2 -1</clus>
<clus scale="   45.127">  1  6  2 -1</clus>
<clus scale="  111.041">  2  4  1 -1</clus>
<clus scale="   35.740">  1  3  2 -1</clus>
</clustering>
</event>
<event>
 6    0  0.1463946E+003  0.1494999E+03  0.7546771E-02  0.1201089E+00
         21   -1    0    0  502  501  0.00000000000E+00  0.00000000000E+00  0.38949910845E+03  0.38949910845E+03  0.00000000000E+00 0. -1.
         21   -1    0    0  504  502 -0.00000000000E+00 -0.00000000000E+00 -0.54788769051E+03  0.54788769051E+03  0.00000000000E+00 0. -1.
         21    1    1    2  503  501  0.47140110603E+02  0.38788150497E+02  0.19352534110E+03  0.20292552400E+03  0.00000000000E+00 0. -1.
         21    1    1    2  504  506  0.86844855025E+02  0.49991627093E+02 -0.37950693214E+03  0.39251331590E+03  0.00000000000E+00 0. -1.
         21    1    1    2  505  503 -0.11117129245E+03  0.99809831860E+02  0.27889925013E+02  0.15198324486E+03  0.00000000000E+00 0. -1.
         21    1    1    2  506  505 -0.22813673182E+02 -0.18858960945E+03 -0.29691603374E+00  0.18996471419E+03  0.00000000000E+00 0. -1.
<scales pt_clust_3="61.04679" pt_clust_4="102.25328" pt_clust_5="14000.00000" pt_clust_6="149.49991"></scales>
<clustering>
<clus scale="   61.047">  1  3  2 -1</clus>
<clus scale="  102.253">  2  4  1 -1</clus>
<clus scale="  149.500">  2  6  1 -1</clus>
<clus scale="   61.047">  1  3  2 -1</clus>
</clustering>
</event>
<event>
 6    0  0.1463946E+003  0.1345191E+03  0.7546771E-02  0.1220900E+00
         21   -1    0    0  504  501  0.00000000000E+00  0.00000000000E+00  0.38402318770E+03  0.38402318770E+03  0.00000000000E+00 0. -1.
         21   -1    0    0  501  502 -0.00000000000E+00 -0.00000000000E+00 -0.59342873103E+03  0.59342873103E+03  0.00000000000E+00 0. -1.
         21    1    1    2  503  506 -0.10199347446E+03 -0.84457804743E+02  0.84136221322E+02  0.15689070512E+03  0.00000000000E+00 0. -1.
         21    1    1    2  504  503 -0.16059271379E+02  0.36166407486E+02  0.25382753048E+03  0.25689360533E+03  0.00000000000E+00 0. -1.
         21    1    1    2  505  502  0.60771762331E+02  0.20615666319E+01 -0.23442412427E+03  0.24218201253E+03  0.00000000000E+00 0. -1.
         21    1    1    2  506  505  0.57280983511E+02  0.46229830625E+02 -0.31294517086E+03  0.32148559575E+03  0.00000000000E+00 0. -1.
<scales pt_clust_3="127.49854" pt_clust_4="39.57157" pt_clust_5="38.98179" pt_clust_6="38.98179"></scales>
<clustering>
<clus scale="   38.982">  5  6 -1 -1</clus>
<clus scale="   39.572">  1  4  2 -1</clus>
<clus scale="  127.499">  1  3  2 -1</clus>
<clus scale="   39.572">  1  3  2 -1</clus>
</clustering>
</event>
<event>
 6    0  0.1463946E+003  0.7556598E+02  0.7546771E-02  0.1342127E+00
         21   -1    0    0  506  501  0.00000000000E+00  0.00000000000E+00  0.27961364333E+03  0.27961364333E+03  0.00000000000E+00 0. -1.
         21   -1    0    0  505  502 -0.00000000000E+00 -0.00000000000E+00 -0.13595145259E+03  0.13595145259E+03  0.00000000000E+00 0. -1.
         21    1    1    2  503  501 -0.40425385450E+02 -0.35031895328E+02  0.10431457634E+03  0.11723044108E+03  0.00000000000E+00 0. -1.
         21    1    1    2  504  502  0.32228463029E+02  0.90937875638E+02 -0.35526225901E+02  0.10281285806E+03  0.00000000000E+00 0. -1.
         21    1    1    2  505  503  0.41486205911E+02 -0.63065663076E+02 -0.33011754243E+02  0.82390284976E+02  0.00000000000E+00 0. -1.
         21    1    1    2  506  504 -0.33289283491E+02  0.71596827658E+01  0.10788559455E+03  0.11313151180E+03  0.00000000000E+00 0. -1.
<scales pt_clust_3="69.23440" pt_clust_4="75.56598" pt_clust_5="14000.00000" pt_clust_6="34.05051"></scales>
<clustering>
<clus scale="   34.051">  1  6  2 -1</clus>
<clus scale="   69.234">  1  3  2 -1</clus>
<clus scale="   75.566">  1  4  2 -1</clus>
<clus scale="   34.051">  1  3  2 -1</clus>
</clustering>
</event>
<event>
 6    0  0.1463946E+003  0.1140775E+03  0.7546771E-02  0.1253200E+00
         21   -1    0    0  505  501  0.00000000000E+00  0.00000000000E+00  0.59586588508E+02  0.59586588508E+02  0.00000000000E+00 0.  1.
         21   -1    0    0  506  502 -0.00000000000E+00 -0.00000000000E+00 -0.85974763553E+03  0.85974763553E+03  0.00000000000E+00 0.  1.
         21    1    1    2  503  501 -0.34770445301E+02 -0.38038603706E+02 -0.24218398548E+03  0.24760654689E+03  0.00000000000E+00 0.  1.
         21    1    1    2  504  502  0.74852588849E+02  0.24362393774E+02 -0.14017810301E+03  0.16076795965E+03  0.00000000000E+00 0.  1.
         21    1    1    2  505  504  0.84177193389E+02  0.19350659225E+02 -0.12833195485E+02  0.87320895585E+02  0.00000000000E+00 0.  1.
         21    1    1    2  506  503 -0.12425933694E+03 -0.56744492932E+01 -0.40496576305E+03  0.42363882191E+03  0.00000000000E+00 0.  1.
<scales pt_clust_3="43.49533" pt_clust_4="78.71745" pt_clust_5="91.90990" pt_clust_6="43.49533"></scales>
<clustering>
<clus scale="   43.495">  3  6 -1 -1</clus>
<clus scale="   78.717">  2  4  1 -1</clus>
<clus scale="   91.910">  1  5  2 -1</clus>
<clus scale="   91.910">  1  3  2 -1</clus>
</clustering>
</event>
<event>
 6    0  0.1463946E+003  0.1089902E+03  0.7546771E-02  0.1262451E+00
         21   -1    0    0  504  501  0.00000000000E+00  0.00000000000E+00  0.57112060037E+03  0.57112060037E+03  0.00000000000E+00 0. -1.
         21   -1    0    0  506  502 -0.00000000000E+00 -0.00000000000E+00 -0.37946785887E+03  0.37946785887E+03  0.00000000000E+00 0. -1.
         21    1    1    2  503  502  0.53289328425E+02  0.41898092548E+02 -0.24904584619E+03  0.25810663724E+03  0.00000000000E+00 0. -1.
         21    1    1    2  504  503 -0.10121976799E+03 -0.52858631599E+02  0.78469868543E+02  0.13855322673E+03  0.00000000000E+00 0.  1.
         21    1    1    2  505  501  0.50503037954E+02 -0.56346900047E+02  0.44262462288E+03  0.44904575131E+03  0.00000000000E+00 0. -1.
         21    1    1    2  506  505 -0.25725983851E+01  0.67307439099E+02 -0.80395903739E+02  0.10488284397E+03  0.00000000000E+00 0. -1.
<scales pt_clust_3="14000.00000" pt_clust_4="108.99016" pt_clust_5="75.08853" pt_clust_6="67.35659"></scales>
<clustering>
<clus scale="   67.357">  2  6  1 -1</clus>
<clus scale="   75.089">  1  5  2 -1</clus>
<clus scale="  108.990">  1  4  2 -1</clus>
<clus scale="   75.089">  1  3  2 -1</clus>
</clustering>
</event>
<event>
 6    0  0.1463946E+003  0.1198117E+03  0.7546771E-02  0.1243408E+00
         21   -1    0    0  504  501  0.00000000000E+00  0.00000000000E+00  0.77845988940E+02  0.77845988940E+02  0.00000000000E+00 0.  1.
         21   -1    0    0  505  502 -0.00000000000E+00 -0.00000000000E+00 -0.20399499945E+04  0.20399499945E+04  0.00000000000E+00 0. -1.
         21    1    1    2  503  502  0.69965407516E+02  0.10978120124E+03 -0.10451529911E+04  0.10532292463E+04  0.00000000000E+00 0. -1.
         21    1    1    2  504  503  0.56553873851E+02 -0.10240871396E+03  0.19783648563E+02  0.11864770580E+03  0.00000000000E+00 0.  1.
         21    1    1    2  505  506 -0.66827919529E+02 -0.17599501588E+02 -0.41996987470E+03  0.42561767931E+03  0.00000000000E+00 0. -1.
         21    1    1    2  506  501 -0.59691361838E+02  0.10227014307E+02 -0.51676478828E+03  0.52030135201E+03  0.00000000000E+00 0.  1.
<scales pt_clust_3="114.56585" pt_clust_4="116.98669" pt_clust_5="32.82481" pt_clust_6="32.82481"></scales>
<clustering>
<clus scale="   32.825">  5  6 -1 -1</clus>
<clus scale="  116.987">  1  4  2 -1</clus>
<clus scale="  114.566">  2  3  1 -1</clus>
<clus scale="  116.987">  1  3  2 -1</clus>
</clustering>
</event>
