<event>
 6    0  0.3042851E+002  0.8455604E+02  0.7546771E-02  0.1316598E+00
         21   -1    0    0  504  501  0.00000000000E+00  0.00000000000E+00  0.59577619557E+03  0.59577619557E+03  0.00000000000E+00 0. -1.
         21   -1    0    0  503  502 -0.00000000000E+00 -0.00000000000E+00 -0.44549793625E+03  0.44549793625E+03  0.00000000000E+00 0.  1.
         21    1    1    2  503  506 -0.27504761931E+02  0.31876793875E+02 -0.18377100984E+03  0.18853229425E+03  0.00000000000E+00 0. -1.
         21    1    1    2  504  502  0.56925309543E+02 -0.90700628423E+02  0.53615244747E+03  0.54674175055E+03  0.00000000000E+00 0. -1.
         21    1    1    2  505  501 -0.63507702377E+02  0.33794369904E+01  0.26064373192E+02  0.68731364060E+02  0.00000000000E+00 0. -1.
         21    1    1    2  506  505  0.34087154766E+02  0.55444397557E+02 -0.22816755150E+03  0.23726872297E+03  0.00000000000E+00 0.  1.
<scales pt_clust_3="42.10275" pt_clust_4="84.55604" pt_clust_5="66.04347" pt_clust_6="14000.00000"></scales>
<clustering>
<clus scale="   42.103">  2  3  1 -1</clus>
<clus scale="   66.043">  1  5  2 -1</clus>
<clus scale="   84.556">  1  4  2 -1</clus>
<clus scale="   66.043">  1  3  2 -1</clus>
</clustering>
</event>
<event>
 6    0  0.3042851E+002  0.9429232E+02  0.7546771E-02  0.1292778E+00
         21   -1    0    0  505  501  0.00000000000E+00  0.00000000000E+00  0.17156253943E+03  0.17156253943E+03  0.00000000000E+00 0.  1.
         21   -1    0    0  503  502 -0.00000000000E+00 -0.00000000000E+00 -0.18660964892E+03  0.18660964892E+03  0.00000000000E+00 0.  1.
         21    1    1    2  503  506  0.11962047190E+02 -0.88188216893E+02 -0.12127709574E+02  0.89818336164E+02  0.00000000000E+00 0.  1.
         21    1    1    2  504  501 -0.32659326886E+02 -0.48121042418E+02  0.56630788923E+02  0.81174581059E+02  0.00000000000E+00 0.  1.
         21    1    1    2  505  502 -0.41463245392E+02  0.33746264599E+02 -0.37342301136E+02  0.65210877520E+02  0.00000000000E+00 0.  1.
         21    1    1    2  506  504  0.62160525088E+02  0.10256299471E+03 -0.22207887698E+02  0.12196839361E+03  0.00000000000E+00 0.  1.
<scales pt_clust_3="94.29232" pt_clust_4="57.93830" pt_clust_5="53.46037" pt_clust_6="14000.00000"></scales>
<clustering>
<clus scale="   53.460">  2  5  1 -1</clus>
<clus scale="   57.938">  1  4  2 -1</clus>
<clus scale="   94.292">  2  3  1 -1</clus>
<clus scale="   57.938">  1  3  2 -1</clus>
</clustering>
</event>
<event>
 6    0  0.3042851E+002  0.1416021E+03  0.7546771E-02  0.1211189E+00
         21   -1    0    0  503  501  0.00000000000E+00  0.00000000000E+00  0.27695438568E+04  0.27695438568E+04  0.00000000000E+00 0.  1.
         21   -1    0    0  506  502 -0.00000000000E+00 -0.00000000000E+00 -0.35199921928E+02  0.35199921928E+02  0.00000000000E+00 0.  1.
         21    1    1    2  503  504 -0.99253479829E+01  0.35423496728E+02  0.20743933963E+03  0.21067609328E+03  0.00000000000E+00 0.  1.
         21    1    1    2  504  502  0.22874912779E+02  0.10370240626E+03  0.24000665041E+04  0.24024147592E+04  0.00000000000E+00 0.  1.
         21    1    1    2  505  501 -0.23744607141E+02 -0.75844377096E+02  0.69258152323E+02  0.10541758662E+03  0.00000000000E+00 0.  1.
         21    1    1    2  506  505  0.10795042344E+02 -0.63281525889E+02  0.57579938750E+02  0.86235339650E+02  0.00000000000E+00 0.  1.
<scales pt_clust_3="36.78772" pt_clust_4="137.59328" pt_clust_5="30.06768" pt_clust_6="30.06768"></scales>
<clustering>
<clus scale="   30.068">  5  6 -1 -1</clus>
<clus scale="   36.788">  1  3  2 -1</clus>
<clus scale="  137.593">  1  4  2 -1</clus>
<clus scale="   36.788">  1  3  2 -1</clus>
</clustering>
</event>
<event>
 6    0  0.3042851E+002  0.1826017E+03  0.7546771E-02  0.1165309E+00
         21   -1    0    0  505  501  0.00000000000E+00  0.00000000000E+00  0.48706781252E+03  0.48706781252E+03  0.00000000000E+00 0. -1.
         21   -1    0    0  506  502 -0.00000000000E+00 -0.00000000000E+00 -0.40039795225E+03  0.40039795225E+03  0.00000000000E+00 0. -1.
         21    1    1    2  503  501  0.35533543604E+02 -0.99111103218E+00 -0.23095363986E+02  0.42391164879E+02  0.00000000000E+00 0.  1.
         21    1    1    2  504  502 -0.11626541988E+03 -0.39347223987E+01  0.11656506826E+03  0.16468316563E+03  0.00000000000E+00 0. -1.
         21    1    1    2  505  504 -0.61002789103E+02  0.12681646683E+02  0.31899170125E+03  0.32501979925E+03  0.00000000000E+00 0. -1.
         21    1    1    2  506  503  0.14173466538E+03 -0.77558132526E+01 -0.32579154526E+03  0.35537163502E+03  0.00000000000E+00 0. -1.
<scales pt_clust_3="35.35951" pt_clust_4="168.37674" pt_clust_5="62.30702" pt_clust_6="35.35951"></scales>
<clustering>
<clus scale="   35.360">  3  6 -1 -1</clus>
<clus scale="   62.307">  1  5  2 -1</clus>
<clus scale="  168.377">  1  4  2 -1</clus>
<clus scale="   62.307">  1  3  2 -1</clus>
</clustering>
</event>
<event>
 6    0  0.3042851E+002  0.6659986E+02  0.7546771E-02  0.1372053E+00
         21   -1    0    0  506  501  0.00000000000E+00  0.00000000000E+00  0.88523749077E+03  0.88523749077E+03  0.00000000000E+00 0. -1.
         21   -1    0    0  504  502 -0.00000000000E+00 -0.00000000000E+00 -0.28578259606E+03  0.28578259606E+03  0.00000000000E+00 0. -1.
         21    1    1    2  503  502 -0.39131498729E+02  0.61498808948E+02 -0.23610217302E+03  0.24709838891E+03  0.00000000000E+00 0. -1.
         21    1    1    2  504  505  0.55542374339E+02 -0.12231729312E+02 -0.17812135735E+02  0.59597338268E+02  0.00000000000E+00 0. -1.
         21    1    1    2  505  501  0.51607595841E+01  0.35028332804E+02  0.10275985534E+03  0.10868857073E+03  0.00000000000E+00 0.  1.
         21    1    1    2  506  503 -0.21571635194E+02 -0.84295412440E+02  0.75060934813E+03  0.75563578892E+03  0.00000000000E+00 0. -1.
<scales pt_clust_3="66.59986" pt_clust_4="14000.00000" pt_clust_5="35.40646" pt_clust_6="53.10918"></scales>
<clustering>
<clus scale="   35.406">  1  5  2 -1</clus>
<clus scale="   53.109">  1  6  2 -1</clus>
<clus scale="   66.600">  2  3  1 -1</clus>
<clus scale="   35.406">  1  3  2 -1</clus>
</clustering>
</event>
<event>
 6    0  0.3042851E+002  0.1008032E+03  0.7546771E-02  0.1278616E+00
         21   -1    0    0  506  501  0.00000000000E+00  0.00000000000E+00  0.78477000947E+02  0.78477000947E+02  0.00000000000E+00 0. -1.
         21   -1    0    0  505  502 -0.00000000000E+00 -0.00000000000E+00 -0.32857412450E+03  0.32857412450E+03  0.00000000000E+00 0.  1.
         21    1    1    2  503  502 -0.61175058559E+02  0.53939783423E+02 -0.19130639963E+03  0.20796640730E+03  0.00000000000E+00 0. -1.
         21    1    1    2  504  501  0.48762771639E+02 -0.59494536987E+02 -0.17582175771E+01  0.76944779928E+02  0.00000000000E+00 0.  1.
         21    1    1    2  505  504  0.57355888957E+02 -0.11743151805E+02 -0.21810289295E+02  0.62476302160E+02  0.00000000000E+00 0.  1.
         21    1    1    2  506  503 -0.44943602037E+02  0.17297905368E+02 -0.35222217057E+02  0.59663636066E+02  0.00000000000E+00 0. -1.
<scales pt_clust_3="87.26108" pt_clust_4="44.02616" pt_clust_5="44.02616" pt_clust_6="48.15750"></scales>
<clustering>
<clus scale="   44.026">  4  5 -1 -1</clus>
<clus scale="   48.158">  1  6  2 -1</clus>
<clus scale="   87.261">  2  3  1 -1</clus>
<clus scale="   48.158">  1  3  2 -1</clus>
</clustering>
</event>
<event>
 6    0  0.3042851E+002  0.1400659E+03  0.7546771E-02  0.1213240E+00
         21   -1    0    0  506  501  0.00000000000E+00  0.00000000000E+00  0.17858676196E+04  0.17858676196E+04  0.00000000000E+00 0. -1.
         21   -1    0    0  501  502 -0.00000000000E+00 -0.00000000000E+00 -0.16886669029E+02  0.16886669029E+02  0.00000000000E+00 0. -1.
         21    1    1    2  503  502 -0.60243002928E+02  0.19940472725E+02  0.20631137091E+03  0.21585000260E+03  0.00000000000E+00 0. -1.
         21    1    1    2  504  503 -0.65579998452E+02  0.20498539393E+02  0.12679857821E+03  0.14421791064E+03  0.00000000000E+00 0. -1.
         21    1    1    2  505  504  0.66156773969E+02 -0.38163302927E+01  0.53266442510E+03  0.53677059615E+03  0.00000000000E+00 0.  1.
         21    1    1    2  506  505  0.59666227411E+02 -0.36622681825E+02  0.90320657638E+03  0.90591577927E+03  0.00000000000E+00 0. -1.
<scales pt_clust_3="33.56607" pt_clust_4="136.69917" pt_clust_5="45.12962" pt_clust_6="45.12962"></scales>
<clustering>
<clus scale="   33.566">  3  4 -1 -1</clus>
<clus scale="   45.130">  5  6 -1 -1</clus>
<clus scale="  136.699">  2  3  1 -1</clus>
<clus scale="  140.066">  1  3  2 -1</clus>
</clustering>
</event>
<event>
 6    0  0.3042851E+002  0.1364150E+03  0.7546771E-02  0.1218236E+00
         21   -1    0    0  505  501  0.00000000000E+00  0.00000000000E+00  0.27177463128E+03  0.27177463128E+03  0.00000000000E+00 0.  1.
         21   -1    0    0  503  502 -0.00000000000E+00 -0.00000000000E+00 -0.48976111182E+03  0.48976111182E+03  0.00000000000E+00 0.  1.
         21    1    1    2  503  506  0.27603947106E+01  0.69375373457E+02 -0.77450299103E+02  0.10401495591E+03  0.00000000000E+00 0. -1.
         21    1    1    2  504  501 -0.65150147048E+02 -0.13534217725E+02  0.12596874318E+03  0.14246347240E+03  0.00000000000E+00 0. -1.
         21    1    1    2  505  502  0.11469500830E+03 -0.83236422759E+01 -0.37127856974E+03  0.38867982234E+03  0.00000000000E+00 0.  1.
         21    1    1    2  506  504 -0.52305255959E+02 -0.47517513456E+02  0.10477364512E+03  0.12637749245E+03  0.00000000000E+00 0.  1.
<scales pt_clust_3="69.43027" pt_clust_4="37.71151" pt_clust_5="130.76207" pt_clust_6="37.71151"></scales>
<clustering>
<clus scale="   37.712">  4  6 -1 -1</clus>
<clus scale="   69.430">  2  3  1 -1</clus>
<clus scale="  130.762">  2  5  1 -1</clus>
<clus scale="  136.415">  1  3  2 -1</clus>
</clustering>
</event>
<event>
 6    0  0.3042851E+002  0.1394515E+03  0.7546771E-02  0.1214069E+00
         21   -1    0    0  502  501  0.00000000000E+00  0.00000000000E+00  0.19664723950E+03  0.19664723950E+03  0.00000000000E+00 0.  1.
         21   -1    0    0  505  502 -0.00000000000E+00 -0.00000000000E+00 -0.54920618302E+03  0.54920618302E+03  0.00000000000E+00 0.  1.
         21    1    1    2  503  504 -0.82458132289E+02  0.45254367630E+02 -0.35741746953E+03  0.36958699774E+03  0.00000000000E+00 0.  1.
         21    1    1    2  504  506  0.52224141088E+02 -0.94884043529E+02  0.83094926586E+02  0.13651047379E+03  0.00000000000E+00 0.  1.
         21    1    1    2  505  503 -0.97508764888E+01  0.45832973105E+02 -0.15020157423E+03  0.15734120222E+03  0.00000000000E+00 0. -1.
         21    1    1    2  506  501  0.39984867689E+02  0.37967027945E+01  0.71965173655E+02  0.82414748773E+02  0.00000000000E+00 0.  1.
<scales pt_clust_3="39.78227" pt_clust_4="127.55344" pt_clust_5="39.78227" pt_clust_6="40.16472"></scales>
<clustering>
<clus scale="   39.782">  3  5 -1 -1</clus>
<clus scale="   40.165">  1  6  2 -1</clus>
<clus scale="  127.553">  1  4  2 -1</clus>
<clus scale="   40.165">  1  3  2 -1</clus>
</clustering>
</event>
<event>
 6    0  0.3042851E+002  0.1138178E+03  0.7546771E-02  0.1253659E+00
         21   -1    0    0  502  501  0.00000000000E+00  0.00000000000E+00  0.14735350747E+03  0.14735350747E+03  0.00000000000E+00 0. -1.
         21   -1    0    0  504  502 -0.00000000000E+00 -0.00000000000E+00 -0.83814058796E+03  0.83814058796E+03  0.00000000000E+00 0. -1.
         21    1    1    2  503  506 -0.47463135157E+02  0.53514328108E+02 -0.26460879017E+03  0.27410644711E+03  0.00000000000E+00 0. -1.
         21    1    1    2  504  503 -0.38792141996E+02  0.34726791100E+02 -0.53277899073E+03  0.53531694655E+03  0.00000000000E+00 0. -1.
         21    1    1    2  505  501 -0.17577090663E+01 -0.37472135581E+02  0.38496835385E+02  0.53751807605E+02  0.00000000000E+00 0. -1.
         21    1    1    2  506  505  0.88012986219E+02 -0.50768983627E+02  0.68103865013E+02  0.12231889417E+03  0.00000000000E+00 0. -1.
<scales pt_clust_3="14000.00000" pt_clust_4="51.76955" pt_clust_5="37.51334" pt_clust_6="113.81778"></scales>
<clustering>
<clus scale="   37.513">  1  5  2 -1</clus>
<clus scale="   51.770">  2  4  1 -1</clus>
<clus scale="  113.818">  1  6  2 -1</clus>
<clus scale="   37.513">  1  3  2 -1</clus>
</clustering>
</event>
<event>
 6    0  0.3042851E+002  0.1751882E+03  0.7546771E-02  0.1172543E+00
         21   -1    0    0  505  501  0.00000000000E+00  0.00000000000E+00  0.31453514350E+03  0.31453514350E+03  0.00000000000E+00 0. -1.
         21   -1    0    0  503  502 -0.00000000000E+00 -0.00000000000E+00 -0.18569607056E+03  0.18569607056E+03  0.00000000000E+00 0. -1.
         21    1    1    2  503  506  0.59601420833E+02 -0.31830013457E+02  0.95233368707E+01  0.68236156597E+02  0.00000000000E+00 0.  1.
         21    1    1    2  504  502 -0.11930493881E+03  0.76880512000E+02 -0.10520478910E+02  0.14231992843E+03  0.00000000000E+00 0. -1.
         21    1    1    2  505  504 -0.19956535989E+02  0.94630835023E+02  0.63699968232E+02  0.11580563120E+03  0.00000000000E+00 0.  1.
         21    1    1    2  506  501  0.79660053970E+02 -0.13968133357E+03  0.66136246746E+02  0.17386949784E+03  0.00000000000E+00 0. -1.
<scales pt_clust_3="41.41001" pt_clust_4="163.12577" pt_clust_5="96.71224" pt_clust_6="41.41001"></scales>
<clustering>
<clus scale="   41.410">  3  6 -1 -1</clus>
<clus scale="   96.712">  1  5  2 -1</clus>
<clus scale="  163.126">  2  4  1 -1</clus>
<clus scale="   96.712">  1  3  2 -1</clus>
</clustering>
</event>
<event>
 6    0  0.3042851E+002  0.1765988E+03  0.7546771E-02  0.1171136E+00
         21   -1    0    0  504  501  0.00000000000E+00  0.00000000000E+00  0.10254124670E+04  0.10254124670E+04  0.00000000000E+00 0. -1.
         21   -1    0    0  506  502 -0.00000000000E+00 -0.00000000000E+00 -0.94456459021E+02  0.94456459021E+02  0.00000000000E+00 0. -1.
         21    1    1    2  503  502 -0.43784564260E+02 -0.46687405342E+02  0.67208306475E+02  0.92810335331E+02  0.00000000000E+00 0.  1.
         21    1    1    2  504  503 -0.14273820156E+03  0.86603052518E+02  0.74579756920E+03  0.76425669583E+03  0.00000000000E+00 0. -1.
         21    1    1    2  505  501  0.81897104925E+01  0.30305089437E+02  0.50803497457E+02  0.59719889130E+02  0.00000000000E+00 0. -1.
         21    1    1    2  506  505  0.17833305533E+03 -0.70220736613E+02  0.67146634818E+02  0.20308200571E+03  0.00000000000E+00 0. -1.
<scales pt_clust_3="61.73320" pt_clust_4="14000.00000" pt_clust_5="31.39219" pt_clust_6="176.59880"></scales>
<clustering>
<clus scale="   31.392">  1  5  2 -1</clus>
<clus scale="   61.733">  2  3  1 -1</clus>
<clus scale="  176.599">  2  6  1 -1</clus>
<clus scale="   31.392">  1  3  2 -1</clus>
</clustering>
</event>
<event>
 6    0  0.3042851E+002  0.1420061E+03  0.7546771E-02  0.1210655E+00
         21   -1    0    0  504  501  0.00000000000E+00  0.00000000000E+00  0.94105862231E+03  0.94105862231E+03  0.00000000000E+00 0. -1.
         21   -1    0    0  503  502 -0.00000000000E+00 -0.00000000000E+00 -0.53164832382E+03  0.53164832382E+03  0.00000000000E+00 0.  1.
         21    1    1    2  503  506 -0.49731544881E+02  0.53392058550E+01 -0.28203402782E+03  0.28643485563E+03  0.00000000000E+00 0.  1.
         21    1    1    2  504  505  0.27239267128E+02  0.27770480694E+02  0.45020120892E+03  0.45187864055E+03  0.00000000000E+00 0. -1.
         21    1    1    2  505  502  0.10431893919E+03 -0.88026642264E+02  0.46781325042E+03  0.48731957491E+03  0.00000000000E+00 0. -1.
         21    1    1    2  506  501 -0.81826661438E+02  0.54916955715E+02 -0.22657013302E+03  0.24707387504E+03  0.00000000000E+00 0.  1.
<scales pt_clust_3="49.90922" pt_clust_4="38.89958" pt_clust_5="142.00607" pt_clust_6="14000.00000"></scales>
<clustering>
<clus scale="   38.900">  1  4  2 -1</clus>
<clus scale="   49.909">  2  3  1 -1</clus>
<clus scale="  142.006">  1  5  2 -1</clus>
<clus scale="   38.900">  1  3  2 -1</clus>
</clustering>
</event>
<event>
 6    0  0.3042851E+002  0.8055225E+02  0.7546771E-02  0.1327492E+00
         21   -1    0    0  505  501  0.00000000000E+00  0.00000000000E+00  0.51434496179E+03  0.51434496179E+03  0.00000000000E+00 0.  1.
         21   -1    0    0  504  502 -0.00000000000E+00 -0.00000000000E+00 -0.73162931132E+03  0.73162931132E+03  0.00000000000E+00 0. -1.
         21    1    1    2  503  501  0.17728606653E+02 -0.94787850545E+02  0.37053364787E+03  0.38287625195E+03  0.00000000000E+00 0.  1.
         21    1    1    2  504  503  0.23395162251E+02 -0.37738128572E+02 -0.28170686987E+02  0.52584099975E+02  0.00000000000E+00 0. -1.
         21    1    1    2  505  506  0.29237406852E+02  0.30484460401E+02  0.11607308137E+03  0.12351958753E+03  0.00000000000E+00 0.  1.
         21    1    1    2  506  502 -0.70361175756E+02  0.10204151872E+03 -0.67572039178E+03  0.68699433365E+03  0.00000000000E+00 0. -1.
<scales pt_clust_3="14000.00000" pt_clust_4="44.09476" pt_clust_5="42.23894" pt_clust_6="80.55225"></scales>
<clustering>
<clus scale="   42.239">  1  5  2 -1</clus>
<clus scale="   44.095">  2  4  1 -1</clus>
<clus scale="   80.552">  2  6  1 -1</clus>
<clus scale="   42.239">  1  3  2 -1</clus>
</clustering>
</event>
<event>
 6    0  0.3042851E+002  0.1004363E+03  0.7546771E-02  0.1279381E+00
         21   -1    0    0  505  501  0.00000000000E+00  0.00000000000E+00  0.74448169773E+02  0.74448169773E+02  0.00000000000E+00 0.  1.
         21   -1    0    0  504  502 -0.00000000000E+00 -0.00000000000E+00 -0.59423209604E+03  0.59423209604E+03  0.00000000000E+00 0. -1.
         21    1    1    2  503  506  0.87256184656E+02  0.27192893032E+02 -0.38255940421E+03  0.39332530168E+03  0.00000000000E+00 0. -1.
         21    1    1    2  504  503 -0.32394259126E+02  0.52021927363E+00 -0.52510075180E+02  0.61700621130E+02  0.00000000000E+00 0. -1.
         21    1    1    2  505  502  0.46054705832E+02 -0.15792942943E+02 -0.99684923236E+02  0.11093933881E+03  0.00000000000E+00 0.  1.
         21    1    1    2  506  501 -0.10091663136E+03 -0.11920169363E+02  0.14970476359E+02  0.10271500419E+03  0.00000000000E+00 0.  1.
<scales pt_clust_3="14000.00000" pt_clust_4="32.39844" pt_clust_5="42.69143" pt_clust_6="100.43635"></scales>
<clustering>
<clus scale="   32.398">  2  4  1 -1</clus>
<clus scale="   42.691">  2  5  1 -1</clus>
<clus scale="  100.436">  1  6  2 -1</clus>
<clus scale="  100.436">  1  3  2 -1</clus>
</clustering>
</event>
<event>
 6    0  0.3042851E+002  0.1394360E+03  0.7546771E-02  0.1214090E+00
         21   -1    0    0  506  501  0.00000000000E+00  0.00000000000E+00  0.19196381640E+03  0.19196381640E+03  0.00000000000E+00 0.  1.
         21   -1    0    0  504  502 -0.00000000000E+00 -0.00000000000E+00 -0.71254493443E+03  0.71254493443E+03  0.00000000000E+00 0. -1.
         21    1    1    2  503  502 -0.22358804584E+02 -0.31692939424E+02 -0.48225087944E+02  0.61887136458E+02  0.00000000000E+00 0. -1.
         21    1    1    2  504  505  0.16823730944E+02  0.12721455867E+03 -0.48594218194E+03  0.50259962798E+03  0.00000000000E+00 0. -1.
         21    1    1    2  505  501 -0.11633106430E+03  0.51789720280E+02  0.63692691224E+02  0.14237924906E+03  0.00000000000E+00 0.  1.
         21    1    1    2  506  503  0.12186613794E+03 -0.14731133952E+03 -0.50106539368E+02  0.19764273732E+03  0.00000000000E+00 0. -1.
<scales pt_clust_3="38.78606" pt_clust_4="103.38922" pt_clust_5="14000.00000" pt_clust_6="139.43600"></scales>
<clustering>
<clus scale="   38.786">  2  3  1 -1</clus>
<clus scale="  103.389">  2  4  1 -1</clus>
<clus scale="  139.436">  2  6  1 -1</clus>
<clus scale="  139.436">  1  3  2 -1</clus>
</clustering>
</event>
<event>
 6    0  0.3042851E+002  0.1183198E+03  0.7546771E-02  0.1245895E+00
         21   -1    0    0  504  501  0.00000000000E+00  0.00000000000E+00  0.43677472120E+03  0.43677472120E+03  0.00000000000E+00 0.  1.
         21   -1    0    0  506  502 -0.00000000000E+00 -0.00000000000E+00 -0.46337240677E+02  0.46337240677E+02  0.00000000000E+00 0.  1.
         21    1    1    2  503  505  0.77180673194E+02 -0.92022873914E+01  0.99020004542E+02  0.12588288092E+03  0.00000000000E+00 0.  1.
         21    1    1    2  504  502 -0.10549959642E+03 -0.15069558103E+01  0.17389413085E+03  0.20340010940E+03  0.00000000000E+00 0.  1.
         21    1    1    2  505  501  0.31104252629E+02 -0.28855340630E+02  0.10333343352E+03  0.11170453750E+03  0.00000000000E+00 0.  1.
         21    1    1    2  506  503 -0.27853294044E+01  0.39564583832E+02  0.14189911613E+02  0.42124434065E+02  0.00000000000E+00 0.  1.
<scales pt_clust_3="35.63877" pt_clust_4="108.04030" pt_clust_5="35.63877" pt_clust_6="39.66251"></scales>
<clustering>
<clus scale="   35.639">  3  5 -1 -1</clus>
<clus scale="   39.663">  2  6  1 -1</clus>
<clus scale="  108.040">  1  4  2 -1</clus>
<clus scale="  108.040">  1  3  2 -1</clus>
</clustering>
</event>
<event>
 6    0  0.3042851E+002  0.9142852E+02  0.7546771E-02  0.1299429E+00
         21   -1    0    0  504  501  0.00000000000E+00  0.00000000000E+00  0.41241318825E+02  0.41241318825E+02  0.00000000000E+00 0. -1.
         21   -1    0    0  503  502 -0.00000000000E+00 -0.00000000000E+00 -0.76370251531E+03  0.76370251531E+03  0.00000000000E+00 0.  1.
         21    1    1    2  503  501 -0.55779606552E+02  0.16098161504E+02 -0.18930491681E+03  0.19800723937E+03  0.00000000000E+00 0.  1.
         21    1    1    2  504  505  0.52650104953E+02  0.74183364570E+01 -0.39051386581E+02  0.65970266493E+02  0.00000000000E+00 0. -1.
         21    1    1    2  505  506  0.39112559063E+02 -0.75135385764E+02 -0.63696620210E+02  0.10598291323E+03  0.00000000000E+00 0. -1.
         21    1    1    2  506  502 -0.35983057464E+02  0.51618887803E+02 -0.43040827288E+03  0.43498341505E+03  0.00000000000E+00 0.  1.
<scales pt_clust_3="50.57027" pt_clust_4="53.17015" pt_clust_5="91.42852" pt_clust_6="14000.00000"></scales>
<clustering>
<clus scale="   53.170">  1  4  2 -1</clus>
<clus scale="   50.570">  2  3  1 -1</clus>
<clus scale="   91.429">  1  5  2 -1</clus>
<clus scale="   53.170">  1  3  2 -1</clus>
</clustering>
</event>
<event>
 6    0  0.3042851E+002  0.6918380E+02  0.7546771E-02  0.1362891E+00
         21   -1    0    0  504  501  0.00000000000E+00  0.00000000000E+00  0.10404039463E+04  0.10404039463E+04  0.00000000000E+00 0. -1.
         21   -1    0    0  506  502 -0.00000000000E+00 -0.00000000000E+00 -0.19384967038E+03  0.19384967038E+03  0.00000000000E+00 0. -1.
         21    1    1    2  503  505  0.57154250882E+01  0.98811321844E+02  0.30778040056E+03  0.32330344628E+03  0.00000000000E+00 0. -1.
         21    1    1    2  504  503 -0.43186313180E+01 -0.35170840596E+02  0.67533063224E+03  0.67625964056E+03  0.00000000000E+00 0. -1.
         21    1    1    2  505  502 -0.48502658643E+02  0.30987889890E+02  0.52791403038E+01  0.57798153410E+02  0.00000000000E+00 0. -1.
         21    1    1    2  506  501  0.47105864872E+02 -0.94628371137E+02 -0.14183589715E+03  0.17689237646E+03  0.00000000000E+00 0. -1.
<scales pt_clust_3="69.18380" pt_clust_4="35.43499" pt_clust_5="56.30135" pt_clust_6="14000.00000"></scales>
<clustering>
<clus scale="   35.435">  1  4  2 -1</clus>
<clus scale="   56.301">  2  5  1 -1</clus>
<clus scale="   69.184">  1  3  2 -1</clus>
<clus scale="   35.435">  1  3  2 -1</clus>
</clustering>
</event>
<event>
 6    0  0.3042851E+002  0.2232617E+03  0.7546771E-02  0.1131474E+00
         21   -1    0    0  506  501  0.00000000000E+00  0.00000000000E+00  0.14063226876E+03  0.14063226876E+03  0.00000000000E+00 0.  1.
         21   -1    0    0  505  502 -0.00000000000E+00 -0.00000000000E+00 -0.60177313457E+03  0.60177313457E+03  0.00000000000E+00 0. -1.
         21    1    1    2  503  504  0.49650722668E+02  0.70059556920E+02 -0.37995396942E+02  0.93899872023E+02  0.00000000000E+00 0. -1.
         21    1    1    2  504  502 -0.17738521436E+03 -0.10499401175E+03 -0.34220816212E+03  0.39949428406E+03  0.00000000000E+00 0. -1.
         21    1    1    2  505  501 -0.19991385365E+02 -0.56573162258E+02 -0.34201226033E+02  0.69064477403E+02  0.00000000000E+00 0.  1.
         21    1    1    2  506  503  0.14772587705E+03  0.91507617085E+02 -0.46736080718E+02  0.17994676984E+03  0.00000000000E+00 0.  1.
<scales pt_clust_3="36.87072" pt_clust_4="217.01310" pt_clust_5="60.00148" pt_clust_6="36.87072"></scales>
<clustering>
<clus scale="   36.871">  3  6 -1 -1</clus>
<clus scale="   60.001">  1  5  2 -1</clus>
<clus scale="  217.013">  2  4  1 -1</clus>
<clus scale="   60.001">  1  3  2 -1</clus>
</clustering>
</event>
<event>
 6    0  0.3042851E+002  0.1831342E+03  0.7546771E-02  0.1164804E+00
         21   -1    0    0  505  501  0.00000000000E+00  0.00000000000E+00  0.45181731837E+02  0.45181731837E+02  0.00000000000E+00 0.  1.
         21   -1    0    0  503  502 -0.00000000000E+00 -0.00000000000E+00 -0.15299386078E+04  0.15299386078E+04  0.00000000000E+00 0.  1.
         21    1    1    2  503  506  0.49946622509E+02 -0.26670250000E+01 -0.20491324503E+03  0.21092941025E+03  0.00000000000E+00 0. -1.
         21    1    1    2  504  501 -0.41912188916E+02  0.48085502975E+02 -0.12128822730E+03  0.13703897715E+03  0.00000000000E+00 0.  1.
         21    1    1    2  505  502  0.67771843761E+02 -0.13070500671E+03 -0.10767045915E+04  0.10867242515E+04  0.00000000000E+00 0.  1.
         21    1    1    2  506  504 -0.75806277354E+02  0.85286528739E+02 -0.81850812157E+02  0.14042770069E+03  0.00000000000E+00 0.  1.
<scales pt_clust_3="50.01778" pt_clust_4="47.73736" pt_clust_5="171.64382" pt_clust_6="47.73736"></scales>
<clustering>
<clus scale="   47.737">  4  6 -1 -1</clus>
<clus scale="   50.018">  2  3  1 -1</clus>
<clus scale="  171.644">  2  5  1 -1</clus>
<clus scale="  183.134">  1  3  2 -1</clus>
</clustering>
</event>
<event>
 6    0  0.3042851E+002  0.1251839E+03  0.7546771E-02  0.1234782E+00
         21   -1    0    0  506  501  0.00000000000E+00  0.00000000000E+00  0.60585807695E+03  0.60585807695E+03  0.00000000000E+00 0.  1.
         21   -1    0    0  504  502 -0.00000000000E+00 -0.00000000000E+00 -0.98230889069E+02  0.98230889069E+02  0.00000000000E+00 0.  1.
         21    1    1    2  503  502 -0.58177357625E+01  0.38664985608E+02 -0.31812155519E+02  0.50406749550E+02  0.00000000000E+00 0.  1.
         21    1    1    2  504  501  0.48569842780E+02  0.68937965479E+01  0.18064715505E+03  0.18718960624E+03  0.00000000000E+00 0. -1.
         21    1    1    2  505  503 -0.65869811194E+02  0.51034778564E+02 -0.10583770733E+02  0.83996409761E+02  0.00000000000E+00 0.  1.
         21    1    1    2  506  505  0.23117704176E+02 -0.96593560719E+02  0.36937595909E+03  0.38249620047E+03  0.00000000000E+00 0.  1.
<scales pt_clust_3="38.02664" pt_clust_4="49.05664" pt_clust_5="38.02664" pt_clust_6="112.20230"></scales>
<clustering>
<clus scale="   38.027">  3  5 -1 -1</clus>
<clus scale="   49.057">  1  4  2 -1</clus>
<clus scale="  112.202">  1  6  2 -1</clus>
<clus scale="   49.057">  1  3  2 -1</clus>
</clustering>
</event>
<event>
 6    0  0.3042851E+002  0.1956955E+03  0.7546771E-02  0.1153422E+00
         21   -1    0    0  506  501  0.00000000000E+00  0.00000000000E+00  0.14784455389E+04  0.14784455389E+04  0.00000000000E+00 0.  1.
         21   -1    0    0  504  502 -0.00000000000E+00 -0.00000000000E+00 -0.73389394243E+02  0.73389394243E+02  0.00000000000E+00 0. -1.
         21    1    1    2  503  502 -0.26389813443E+02 -0.14541936998E+02  0.21239583658E+02  0.36864754159E+02  0.00000000000E+00 0. -1.
         21    1    1    2  504  505 -0.50303892084E+02  0.12012167200E+02  0.18739856343E+03  0.19440420596E+03  0.00000000000E+00 0. -1.
         21    1    1    2  505  501 -0.12861432905E+03 -0.33350410554E+01  0.10735433773E+04  0.10812253008E+04  0.00000000000E+00 0.  1.
         21    1    1    2  506  503  0.20530803458E+03  0.58648108535E+01  0.12287462024E+03  0.23934067219E+03  0.00000000000E+00 0. -1.
<scales pt_clust_3="30.13122" pt_clust_4="45.83144" pt_clust_5="45.83144" pt_clust_6="182.01009"></scales>
<clustering>
<clus scale="   30.131">  2  3  1 -1</clus>
<clus scale="   45.831">  4  5 -1 -1</clus>
<clus scale="  182.010">  2  6  1 -1</clus>
<clus scale="  195.695">  1  3  2 -1</clus>
</clustering>
</event>
<event>
 6    0  0.3042851E+002  0.1721774E+03  0.7546771E-02  0.1175596E+00
         21   -1    0    0  505  501  0.00000000000E+00  0.00000000000E+00  0.17949568968E+03  0.17949568968E+03  0.00000000000E+00 0. -1.
         21   -1    0    0  501  502 -0.00000000000E+00 -0.00000000000E+00 -0.34439096649E+03  0.34439096649E+03  0.00000000000E+00 0. -1.
         21    1    1    2  503  502 -0.81734037327E+02 -0.64649721801E+02 -0.13147854162E+03  0.16776962268E+03  0.00000000000E+00 0. -1.
         21    1    1    2  504  503  0.12551778871E+03  0.11591334708E+02 -0.17272539417E+02  0.12722977223E+03  0.00000000000E+00 0. -1.
         21    1    1    2  505  506 -0.12350673235E+03  0.70230689765E+02 -0.32413348161E+02  0.14572881616E+03  0.00000000000E+00 0. -1.
         21    1    1    2  506  504  0.79722980961E+02 -0.17172302672E+02  0.16269152395E+02  0.83158445103E+02  0.00000000000E+00 0. -1.
<scales pt_clust_3="104.21151" pt_clust_4="36.92341" pt_clust_5="165.94509" pt_clust_6="36.92341"></scales>
<clustering>
<clus scale="   36.923">  4  6 -1 -1</clus>
<clus scale="  104.212">  2  3  1 -1</clus>
<clus scale="  165.945">  1  5  2 -1</clus>
<clus scale="  165.945">  1  3  2 -1</clus>
</clustering>
</event>
<event>
 6    0  0.3042851E+002  0.1051616E+03  0.7546771E-02  0.1269802E+00
         21   -1    0    0  503  501  0.00000000000E+00  0.00000000000E+00  0.36756807193E+03  0.36756807193E+03  0.00000000000E+00 0.  1.
         21   -1    0    0  506  502 -0.00000000000E+00 -0.00000000000E+00 -0.39770247088E+03  0.39770247088E+03  0.00000000000E+00 0. -1.
         21    1    1    2  503  502  0.55781386313E+02  0.25498445165E+02 -0.33504508849E+03  0.34061260265E+03  0.00000000000E+00 0. -1.
         21    1    1    2  504  505 -0.10852591900E+03 -0.56282384747E+02  0.16506641402E+03  0.20540813753E+03  0.00000000000E+00 0.  1.
         21    1    1    2  505  501  0.81116067265E+02  0.47766267964E+02  0.15619012451E+03  0.18236443655E+03  0.00000000000E+00 0.  1.
         21    1    1    2  506  504 -0.28371534575E+02 -0.16982328382E+02 -0.16345848992E+02  0.36885366078E+02  0.00000000000E+00 0.  1.
<scales pt_clust_3="31.58991" pt_clust_4="105.16157" pt_clust_5="14000.00000" pt_clust_6="33.06574"></scales>
<clustering>
<clus scale="   33.066">  2  6  1 -1</clus>
<clus scale="   31.590">  2  3  1 -1</clus>
<clus scale="  105.162">  2  4  1 -1</clus>
<clus scale="  105.162">  1  3  2 -1</clus>
</clustering>
</event>
<event>
 6    0  0.3042851E+002  0.1251401E+03  0.7546771E-02  0.1234850E+00
         21   -1    0    0  504  501  0.00000000000E+00  0.00000000000E+00  0.23909879453E+04  0.23909879453E+04  0.00000000000E+00 0. -1.
         21   -1    0    0  503  502 -0.00000000000E+00 -0.00000000000E+00 -0.59295112465E+02  0.59295112465E+02  0.00000000000E+00 0. -1.
         21    1    1    2  503  506 -0.29139267488E+02 -0.17725319541E+02  0.64732587843E+03  0.64822378601E+03  0.00000000000E+00 0.  1.
         21    1    1    2  504  505  0.66705430309E+02 -0.37174251007E+02  0.35647320601E+03  0.36456094960E+03  0.00000000000E+00 0. -1.
         21    1    1    2  505  502 -0.31054640243E+02  0.11590374127E+03  0.12462747923E+02  0.12063742374E+03  0.00000000000E+00 0. -1.
         21    1    1    2  506  501 -0.65115225777E+01 -0.61004170722E+02  0.13154310005E+04  0.13168608984E+04  0.00000000000E+00 0. -1.
<scales pt_clust_3="30.50574" pt_clust_4="76.36452" pt_clust_5="118.26286" pt_clust_6="30.50574"></scales>
<clustering>
<clus scale="   30.506">  3  6 -1 -1</clus>
<clus scale="   76.365">  1  4  2 -1</clus>
<clus scale="  118.263">  2  5  1 -1</clus>
<clus scale="   76.365">  1  3  2 -1</clus>
</clustering>
</event>
<event>
 6    0  0.3042851E+002  0.2491686E+03  0.7546771E-02  0.1113831E+00
         21   -1    0    0  503  501  0.00000000000E+00  0.00000000000E+00  0.22226844904E+04  0.22226844904E+04  0.00000000000E+00 0. -1.
         21   -1    0    0  505  502 -0.00000000000E+00 -0.00000000000E+00 -0.24181169803E+03  0.24181169803E+03  0.00000000000E+00 0.  1.
         21    1    1    2  503  504  0.12757808811E+03 -0.42648717141E+01 -0.56800382967E+02  0.13971628825E+03  0.00000000000E+00 0.  1.
         21    1    1    2  504  502  0.10025623167E+03  0.39571939778E+02 -0.11506965472E+03  0.15766507490E+03  0.00000000000E+00 0.  1.
         21    1    1    2  505  506 -0.70468602910E+02  0.32636274244E+02  0.64274937977E+03  0.64742390718E+03  0.00000000000E+00 0.  1.
         21    1    1    2  506  501 -0.15736571688E+03 -0.67943342308E+02  0.15099934503E+04  0.15196909181E+04  0.00000000000E+00 0. -1.
<scales pt_clust_3="242.68573" pt_clust_4="69.62603" pt_clust_5="63.60716" pt_clust_6="63.60716"></scales>
<clustering>
<clus scale="   63.607">  5  6 -1 -1</clus>
<clus scale="   69.626">  3  4 -1 -1</clus>
<clus scale="  242.686">  2  3  1 -1</clus>
<clus scale="  249.169">  1  3  2 -1</clus>
</clustering>
</event>
<event>
 6    0  0.3042851E+002  0.1413319E+03  0.7546771E-02  0.1211548E+00
         21   -1    0    0  506  501  0.00000000000E+00  0.00000000000E+00  0.15726341663E+03  0.15726341663E+03  0.00000000000E+00 0.  1.
         21   -1    0    0  505  502 -0.00000000000E+00 -0.00000000000E+00 -0.48994790671E+03  0.48994790671E+03  0.00000000000E+00 0.  1.
         21    1    1    2  503  502  0.54882397625E+01  0.37632121744E+02 -0.11041292485E+03  0.11677889937E+03  0.00000000000E+00 0. -1.
         21    1    1    2  504  503  0.25725825207E+02 -0.53935254932E+02  0.36672948843E+02  0.70112302658E+02  0.00000000000E+00 0.  1.
         21    1    1    2  505  501 -0.10461055636E+03  0.54567681211E+02 -0.33048562832E+03  0.35091558936E+03  0.00000000000E+00 0.  1.
         21    1    1    2  506  504  0.73396491385E+02 -0.38264548023E+02  0.71541114251E+02  0.10940453195E+03  0.00000000000E+00 0.  1.
<scales pt_clust_3="38.03022" pt_clust_4="39.44050" pt_clust_5="133.35939" pt_clust_6="39.44050"></scales>
<clustering>
<clus scale="   38.030">  2  3  1 -1</clus>
<clus scale="   39.441">  4  6 -1 -1</clus>
<clus scale="  133.359">  2  5  1 -1</clus>
<clus scale="  141.332">  1  3  2 -1</clus>
</clustering>
</event>
<event>
 6    0  0.3042851E+002  0.2100982E+03  0.7546771E-02  0.1141488E+00
         21   -1    0    0  506  501  0.00000000000E+00  0.00000000000E+00  0.29510669286E+03  0.29510669286E+03  0.00000000000E+00 0. -1.
         21   -1    0    0  503  502 -0.00000000000E+00 -0.00000000000E+00 -0.51345692094E+03  0.51345692094E+03  0.00000000000E+00 0. -1.
         21    1    1    2  503  501 -0.92743127482E+01 -0.37396213756E+02 -0.39760651058E+02  0.55366046029E+02  0.00000000000E+00 0. -1.
         21    1    1    2  504  505 -0.73246901928E+02  0.82038438616E+02  0.17970370999E+03  0.21068658580E+03  0.00000000000E+00 0. -1.
         21    1    1    2  505  502  0.16070753838E+03 -0.83545641952E+02 -0.40486840021E+03  0.44353715591E+03  0.00000000000E+00 0. -1.
         21    1    1    2  506  504 -0.78186323707E+02  0.38903417092E+02  0.46575113192E+02  0.98973826061E+02  0.00000000000E+00 0. -1.
<scales pt_clust_3="38.52908" pt_clust_4="75.29044" pt_clust_5="192.38698" pt_clust_6="75.29044"></scales>
<clustering>
<clus scale="   38.529">  2  3  1 -1</clus>
<clus scale="   75.290">  4  6 -1 -1</clus>
<clus scale="  192.387">  2  5  1 -1</clus>
<clus scale="  210.098">  1  3  2 -1</clus>
</clustering>
</event>
<event>
 6    0  0.3042851E+002  0.9916915E+02  0.7546771E-02  0.1282053E+00
         21   -1    0    0  506  501  0.00000000000E+00  0.00000000000E+00  0.36331215245E+03  0.36331215245E+03  0.00000000000E+00 0. -1.
         21   -1    0    0  504  502 -0.00000000000E+00 -0.00000000000E+00 -0.23883674801E+03  0.23883674801E+03  0.00000000000E+00 0. -1.
         21    1    1    2  503  501 -0.81421674022E+02 -0.23218657289E+02  0.30603650799E+03  0.31753257985E+03  0.00000000000E+00 0. -1.
         21    1    1    2  504  505  0.36224404988E+02 -0.34880744724E+02 -0.12058992028E+03  0.13065528211E+03  0.00000000000E+00 0. -1.
         21    1    1    2  505  503  0.57653221497E+02 -0.13368020336E+02 -0.55623750757E+02  0.81219453120E+02  0.00000000000E+00 0. -1.
         21    1    1    2  506  502 -0.12455952463E+02  0.71467422349E+02 -0.53474325140E+01  0.72741585379E+02  0.00000000000E+00 0. -1.
<scales pt_clust_3="84.47382" pt_clust_4="47.88627" pt_clust_5="47.88627" pt_clust_6="72.54477"></scales>
<clustering>
<clus scale="   47.886">  4  5 -1 -1</clus>
<clus scale="   72.545">  2  6  1 -1</clus>
<clus scale="   84.474">  1  3  2 -1</clus>
<clus scale="   84.474">  1  3  2 -1</clus>
</clustering>
</event>
<event>
 6    0  0.3042851E+002  0.1725024E+03  0.7546771E-02  0.1175263E+00
         21   -1    0    0  504  501  0.00000000000E+00  0.00000000000E+00  0.10720858846E+04  0.10720858846E+04  0.00000000000E+00 0.  1.
         21   -1    0    0  505  502 -0.00000000000E+00 -0.00000000000E+00 -0.25344266501E+03  0.25344266501E+03  0.00000000000E+00 0.  1.
         21    1    1    2  503  501 -0.31767855300E+01  0.51659066865E+02  0.28450067175E+03  0.28917016336E+03  0.00000000000E+00 0.  1.
         21    1    1    2  504  502  0.16264050317E+03 -0.12769927355E+03 -0.16902185446E+03  0.26707194727E+03  0.00000000000E+00 0.  1.
         21    1    1    2  505  506 -0.14069694435E+02  0.38948818729E+02 -0.82449244472E+01  0.42224940036E+02  0.00000000000E+00 0.  1.
         21    1    1    2  506  503 -0.14539402320E+03  0.37091387955E+02  0.71140932673E+03  0.72706149891E+03  0.00000000000E+00 0.  1.
<scales pt_clust_3="52.16335" pt_clust_4="14000.00000" pt_clust_5="41.41216" pt_clust_6="172.50240"></scales>
<clustering>
<clus scale="   41.412">  2  5  1 -1</clus>
<clus scale="   52.163">  1  3  2 -1</clus>
<clus scale="  172.502">  1  6  2 -1</clus>
<clus scale="   52.163">  1  3  2 -1</clus>
</clustering>
</event>
<event>
 6    0  0.3042851E+002  0.6337713E+03  0.7546771E-02  0.9837717E-01
         21   -1    0    0  505  501  0.00000000000E+00  0.00000000000E+00  0.11712228691E+04  0.11712228691E+04  0.00000000000E+00 0. -1.
         21   -1    0    0  504  502 -0.00000000000E+00 -0.00000000000E+00 -0.34701772110E+03  0.34701772110E+03  0.00000000000E+00 0. -1.
         21    1    1    2  503  501 -0.28954489072E+03  0.25989686508E+03  0.21813545821E+03  0.44605571664E+03  0.00000000000E+00 0. -1.
         21    1    1    2  504  503 -0.18900067206E+03  0.13943542429E+03  0.78729850795E+02  0.24771330403E+03  0.00000000000E+00 0. -1.
         21    1    1    2  505  506  0.69682368443E+02 -0.80765544288E+02  0.14678254223E+03  0.18144922242E+03  0.00000000000E+00 0.  1.
         21    1    1    2  506  502  0.40886319434E+03 -0.31856674508E+03  0.38055729676E+03  0.64302234710E+03  0.00000000000E+00 0. -1.
<scales pt_clust_3="627.04581" pt_clust_4="53.34614" pt_clust_5="52.10891" pt_clust_6="52.10891"></scales>
<clustering>
<clus scale="   52.109">  5  6 -1 -1</clus>
<clus scale="   53.346">  3  4 -1 -1</clus>
<clus scale="  627.046">  2  3  1 -1</clus>
<clus scale="  633.771">  1  3  2 -1</clus>
</clustering>
</event>
<event>
 6    0  0.3042851E+002  0.1152644E+03  0.7546771E-02  0.1251120E+00
         21   -1    0    0  504  501  0.00000000000E+00  0.00000000000E+00  0.51473611339E+03  0.51473611339E+03  0.00000000000E+00 0. -1.
         21   -1    0    0  506  502 -0.00000000000E+00 -0.00000000000E+00 -0.69521583879E+03  0.69521583879E+03  0.00000000000E+00 0. -1.
         21    1    1    2  503  501  0.50534793646E+02 -0.53539967120E+02  0.16884733817E+03  0.18420020916E+03  0.00000000000E+00 0. -1.
         21    1    1    2  504  505  0.31651501563E+02 -0.30008118319E+02  0.31669457717E+03  0.31968384370E+03  0.00000000000E+00 0. -1.
         21    1    1    2  505  502 -0.46886230365E+02 -0.27734775488E+02 -0.35942777642E+02  0.65264229359E+02  0.00000000000E+00 0. -1.
         21    1    1    2  506  503 -0.35300064843E+02  0.11128286093E+03 -0.63007886309E+03  0.64080366995E+03  0.00000000000E+00 0. -1.
<scales pt_clust_3="14000.00000" pt_clust_4="43.61542" pt_clust_5="53.67393" pt_clust_6="115.26442"></scales>
<clustering>
<clus scale="   43.615">  1  4  2 -1</clus>
<clus scale="   53.674">  1  5  2 -1</clus>
<clus scale="  115.264">  2  6  1 -1</clus>
<clus scale="   43.615">  1  3  2 -1</clus>
</clustering>
</event>
<event>
 6    0  0.3042851E+002  0.1665829E+03  0.7546771E-02  0.1181459E+00
         21   -1    0    0  506  501  0.00000000000E+00  0.00000000000E+00  0.35101547821E+03  0.35101547821E+03  0.00000000000E+00 0. -1.
         21   -1    0    0  505  502 -0.00000000000E+00 -0.00000000000E+00 -0.13610827269E+03  0.13610827269E+03  0.00000000000E+00 0. -1.
         21    1    1    2  503  504  0.23165419328E+02 -0.40494103212E+02  0.34094661648E+02  0.57782826172E+02  0.00000000000E+00 0. -1.
         21    1    1    2  504  501  0.67739317892E+02 -0.92144877542E+02  0.20724216576E+03  0.23670363097E+03  0.00000000000E+00 0. -1.
         21    1    1    2  505  503 -0.11325616930E+03  0.10466074764E+03 -0.14492092311E+02  0.15488980832E+03  0.00000000000E+00 0. -1.
         21    1    1    2  506  502  0.22351432078E+02  0.27978233112E+02 -0.11937529581E+02  0.37747485433E+02  0.00000000000E+00 0. -1.
<scales pt_clust_3="32.70458" pt_clust_4="32.70458" pt_clust_5="158.51758" pt_clust_6="35.81017"></scales>
<clustering>
<clus scale="   32.705">  3  4 -1 -1</clus>
<clus scale="   35.810">  2  6  1 -1</clus>
<clus scale="  158.518">  2  5  1 -1</clus>
<clus scale="  166.583">  1  3  2 -1</clus>
</clustering>
</event>
<event>
 6    0  0.3042851E+002  0.1208980E+03  0.7546771E-02  0.1241623E+00
         21   -1    0    0  504  501  0.00000000000E+00  0.00000000000E+00  0.16856039340E+03  0.16856039340E+03  0.00000000000E+00 0.  1.
         21   -1    0    0  503  502 -0.00000000000E+00 -0.00000000000E+00 -0.17427841626E+04  0.17427841626E+04  0.00000000000E+00 0. -1.
         21    1    1    2  503  505  0.68388670665E+02  0.61967068846E+02 -0.14685969957E+04  0.14714938204E+04  0.00000000000E+00 0. -1.
         21    1    1    2  504  506 -0.38888416268E+02 -0.30847793706E+02  0.96505369813E+02  0.10852272434E+03  0.00000000000E+00 0.  1.
         21    1    1    2  505  501 -0.25232888310E+02 -0.76671235603E+02  0.36330572487E+02  0.88516029727E+02  0.00000000000E+00 0.  1.
         21    1    1    2  506  502 -0.42673660870E+01  0.45551960463E+02 -0.23846271582E+03  0.24281198149E+03  0.00000000000E+00 0. -1.
<scales pt_clust_3="120.89801" pt_clust_4="49.53801" pt_clust_5="14000.00000" pt_clust_6="45.75141"></scales>
<clustering>
<clus scale="   45.751">  2  6  1 -1</clus>
<clus scale="   49.538">  1  4  2 -1</clus>
<clus scale="  120.898">  2  3  1 -1</clus>
<clus scale="   49.538">  1  3  2 -1</clus>
</clustering>
</event>
<event>
 6    0  0.3042851E+002  0.1366384E+03  0.7546771E-02  0.1217925E+00
         21   -1    0    0  502  501  0.00000000000E+00  0.00000000000E+00  0.35674149646E+02  0.35674149646E+02  0.00000000000E+00 0.  1.
         21   -1    0    0  506  502 -0.00000000000E+00 -0.00000000000E+00 -0.14897007266E+04  0.14897007266E+04  0.00000000000E+00 0.  1.
         21    1    1    2  503  504 -0.22295955229E+02  0.37887063429E+02 -0.40226376348E+02  0.59587755025E+02  0.00000000000E+00 0.  1.
         21    1    1    2  504  501  0.15012551107E+02  0.93730282067E+02 -0.10301474482E+03  0.14008133394E+03  0.00000000000E+00 0.  1.
         21    1    1    2  505  503  0.71155028967E+02 -0.10971778471E+03 -0.85114559062E+03  0.86113288572E+03  0.00000000000E+00 0.  1.
         21    1    1    2  506  505 -0.63871624845E+02 -0.21899560784E+02 -0.45963986515E+03  0.46457290155E+03  0.00000000000E+00 0.  1.
<scales pt_clust_3="30.23196" pt_clust_4="30.23196" pt_clust_5="129.21489" pt_clust_6="67.52166"></scales>
<clustering>
<clus scale="   30.232">  3  4 -1 -1</clus>
<clus scale="   67.522">  2  6  1 -1</clus>
<clus scale="  129.215">  2  5  1 -1</clus>
<clus scale="  136.638">  1  3  2 -1</clus>
</clustering>
</event>
<event>
 6    0  0.3042851E+002  0.1274249E+03  0.7546771E-02  0.1231327E+00
         21   -1    0    0  505  501  0.00000000000E+00  0.00000000000E+00  0.18464683783E+03  0.18464683783E+03  0.00000000000E+00 0. -1.
         21   -1    0    0  503  502 -0.00000000000E+00 -0.00000000000E+00 -0.56219118937E+03  0.56219118937E+03  0.00000000000E+00 0. -1.
         21    1    1    2  503  501  0.71647245416E+02 -0.33184760345E+02 -0.48490559540E+02  0.92660080182E+02  0.00000000000E+00 0. -1.
         21    1    1    2  504  502 -0.10416277360E+03 -0.84874786851E+02 -0.45509563316E+03  0.47451622540E+03  0.00000000000E+00 0. -1.
         21    1    1    2  505  506 -0.11607633565E+01  0.66109139768E+02  0.64876939969E+02  0.92632516279E+02  0.00000000000E+00 0. -1.
         21    1    1    2  506  504  0.33676291539E+02  0.51950407428E+02  0.61164901187E+02  0.87029205333E+02  0.00000000000E+00 0. -1.
<scales pt_clust_3="78.95921" pt_clust_4="121.82218" pt_clust_5="36.16054" pt_clust_6="36.16054"></scales>
<clustering>
<clus scale="   36.161">  5  6 -1 -1</clus>
<clus scale="   78.959">  2  3  1 -1</clus>
<clus scale="  121.822">  2  4  1 -1</clus>
<clus scale="  127.425">  1  3  2 -1</clus>
</clustering>
</event>
<event>
 6    0  0.3042851E+002  0.5494850E+03  0.7546771E-02  0.1001613E+00
         21   -1    0    0  503  501  0.00000000000E+00  0.00000000000E+00  0.58811716716E+03  0.58811716716E+03  0.00000000000E+00 0.  1.
         21   -1    0    0  506  502 -0.00000000000E+00 -0.00000000000E+00 -0.50089861674E+03  0.50089861674E+03  0.00000000000E+00 0.  1.
         21    1    1    2  503  505  0.88377940297E+02 -0.91689408132E+02 -0.73795899689E+01  0.12756200940E+03  0.00000000000E+00 0.  1.
         21    1    1    2  504  502  0.12200562158E+03 -0.11041813556E+02  0.49048279699E+02  0.13195842939E+03  0.00000000000E+00 0. -1.
         21    1    1    2  505  504  0.25855905469E+03 -0.13745226087E+03  0.73411714447E+02  0.30188605234E+03  0.00000000000E+00 0.  1.
         21    1    1    2  506  501 -0.46894261657E+03  0.24018348256E+03 -0.27861853754E+02  0.52760929277E+03  0.00000000000E+00 0.  1.
<scales pt_clust_3="70.75520" pt_clust_4="51.51991" pt_clust_5="70.75520" pt_clust_6="526.87312"></scales>
<clustering>
<clus scale="   51.520">  4  5 -1 -1</clus>
<clus scale="   70.755">  3  4 -1 -1</clus>
<clus scale="  526.873">  2  6  1 -1</clus>
<clus scale="  549.485">  1  3  2 -1</clus>
</clustering>
</event>
<event>
 6    0  0.3042851E+002  0.1129161E+03  0.7546771E-02  0.1255263E+00
         21   -1    0    0  505  501  0.00000000000E+00  0.00000000000E+00  0.41212212185E+03  0.41212212185E+03  0.00000000000E+00 0.  1.
         21   -1    0    0  504  502 -0.00000000000E+00 -0.00000000000E+00 -0.14350714879E+04  0.14350714879E+04  0.00000000000E+00 0. -1.
         21    1    1    2  503  506  0.14481462062E+02 -0.39321284812E+02  0.97448787250E+02  0.10607611569E+03  0.00000000000E+00 0.  1.
         21    1    1    2  504  503  0.66669747685E+02  0.41019375171E+02 -0.32897665925E+02  0.84909957126E+02  0.00000000000E+00 0. -1.
         21    1    1    2  505  502 -0.11652375311E+03  0.19044309489E+02 -0.13678191403E+04  0.13729055581E+04  0.00000000000E+00 0. -1.
         21    1    1    2  506  501  0.35372543363E+02 -0.20742399848E+02  0.28031865300E+03  0.28330197880E+03  0.00000000000E+00 0.  1.
<scales pt_clust_3="69.67911" pt_clust_4="112.91613" pt_clust_5="14000.00000" pt_clust_6="41.00566"></scales>
<clustering>
<clus scale="   41.006">  1  6  2 -1</clus>
<clus scale="   69.679">  1  3  2 -1</clus>
<clus scale="  112.916">  1  4  2 -1</clus>
<clus scale="   41.006">  1  3  2 -1</clus>
</clustering>
</event>
<event>
 6    0  0.3042851E+002  0.1018021E+03  0.7546771E-02  0.1276551E+00
         21   -1    0    0  504  501  0.00000000000E+00  0.00000000000E+00  0.17175561277E+04  0.17175561277E+04  0.00000000000E+00 0.  1.
         21   -1    0    0  505  502 -0.00000000000E+00 -0.00000000000E+00 -0.17805721092E+03  0.17805721092E+03  0.00000000000E+00 0. -1.
         21    1    1    2  503  501 -0.42503184455E+02  0.30331062549E+01  0.17463428275E+03  0.17975776238E+03  0.00000000000E+00 0.  1.
         21    1    1    2  504  506 -0.59915712048E+02  0.40837421858E+01  0.14868893354E+04  0.14881016313E+04  0.00000000000E+00 0.  1.
         21    1    1    2  505  503  0.10962297893E+03 -0.56854748419E+02 -0.36872271352E+02  0.12887677960E+03  0.00000000000E+00 0. -1.
         21    1    1    2  506  502 -0.72040824229E+01  0.49737899978E+02 -0.85152429967E+02  0.98877165347E+02  0.00000000000E+00 0. -1.
<scales pt_clust_3="42.61127" pt_clust_4="14000.00000" pt_clust_5="101.80214" pt_clust_6="50.29777"></scales>
<clustering>
<clus scale="   42.611">  1  3  2 -1</clus>
<clus scale="   50.298">  2  6  1 -1</clus>
<clus scale="  101.802">  2  5  1 -1</clus>
<clus scale="   42.611">  1  3  2 -1</clus>
</clustering>
</event>
<event>
 6    0  0.3042851E+002  0.1512760E+03  0.7546771E-02  0.1198914E+00
         21   -1    0    0  504  501  0.00000000000E+00  0.00000000000E+00  0.77185032506E+03  0.77185032506E+03  0.00000000000E+00 0. -1.
         21   -1    0    0  505  502 -0.00000000000E+00 -0.00000000000E+00 -0.11957516562E+03  0.11957516562E+03  0.00000000000E+00 0.  1.
         21    1    1    2  503  501  0.10918431937E+03  0.11991589106E+02  0.79829270830E+02  0.13578558940E+03  0.00000000000E+00 0.  1.
         21    1    1    2  504  502 -0.15834481296E+03 -0.58266731377E+02  0.63051528716E+03  0.65270025212E+03  0.00000000000E+00 0. -1.
         21    1    1    2  505  506  0.80896001172E+01  0.40298979118E+02 -0.16780142064E+02  0.44396199339E+02  0.00000000000E+00 0.  1.
         21    1    1    2  506  503  0.41070893465E+02  0.59761631528E+01 -0.41289256492E+02  0.58543449827E+02  0.00000000000E+00 0.  1.
<scales pt_clust_3="14000.00000" pt_clust_4="151.27601" pt_clust_5="41.10291" pt_clust_6="53.82426"></scales>
<clustering>
<clus scale="   41.103">  2  5  1 -1</clus>
<clus scale="   53.824">  2  6  1 -1</clus>
<clus scale="  151.276">  1  4  2 -1</clus>
<clus scale="  151.276">  1  3  2 -1</clus>
</clustering>
</event>
<event>
 6    0  0.3042851E+002  0.9067708E+02  0.7546771E-02  0.1301220E+00
         21   -1    0    0  503  501  0.00000000000E+00  0.00000000000E+00  0.35071098850E+03  0.35071098850E+03  0.00000000000E+00 0. -1.
         21   -1    0    0  505  502 -0.00000000000E+00 -0.00000000000E+00 -0.74037616193E+02  0.74037616193E+02  0.00000000000E+00 0.  1.
         21    1    1    2  503  506  0.97408888253E+02  0.70433162967E+02  0.10915059509E+03  0.16236740548E+03  0.00000000000E+00 0.  1.
         21    1    1    2  504  501 -0.52659924680E+02 -0.20569764237E+02  0.11334414345E+03  0.12666127160E+03  0.00000000000E+00 0. -1.
         21    1    1    2  505  504  0.33151313894E+02 -0.15662662466E+02  0.29717541699E+02  0.47195983866E+02  0.00000000000E+00 0. -1.
         21    1    1    2  506  502 -0.77900277468E+02 -0.34200736264E+02  0.24461092069E+02  0.88523943743E+02  0.00000000000E+00 0.  1.
<scales pt_clust_3="90.67708" pt_clust_4="54.03550" pt_clust_5="36.66509" pt_clust_6="14000.00000"></scales>
<clustering>
<clus scale="   36.665">  2  5  1 -1</clus>
<clus scale="   54.035">  1  4  2 -1</clus>
<clus scale="   90.677">  1  3  2 -1</clus>
<clus scale="   54.035">  1  3  2 -1</clus>
</clustering>
</event>
<event>
 6    0  0.3042851E+002  0.2858341E+03  0.7546771E-02  0.1092544E+00
         21   -1    0    0  503  501  0.00000000000E+00  0.00000000000E+00  0.25101881801E+03  0.25101881801E+03  0.00000000000E+00 0.  1.
         21   -1    0    0  505  502 -0.00000000000E+00 -0.00000000000E+00 -0.39253408155E+03  0.39253408155E+03  0.00000000000E+00 0.  1.
         21    1    1    2  503  506 -0.22041395691E+03  0.23976870759E+02 -0.14761297280E+03  0.26635839103E+03  0.00000000000E+00 0.  1.
         21    1    1    2  504  501  0.43983572394E+02 -0.38272752199E+01 -0.18931062193E+02  0.48037358294E+02  0.00000000000E+00 0. -1.
         21    1    1    2  505  504  0.22088844587E+03 -0.65264268108E+02  0.81477000926E+02  0.24431461662E+03  0.00000000000E+00 0.  1.
         21    1    1    2  506  502 -0.44458061357E+02  0.45114672569E+02 -0.56448229476E+02  0.84842533623E+02  0.00000000000E+00 0.  1.
<scales pt_clust_3="43.97876" pt_clust_4="35.64054" pt_clust_5="285.58306" pt_clust_6="43.97876"></scales>
<clustering>
<clus scale="   35.641">  4  5 -1 -1</clus>
<clus scale="   43.979">  3  6 -1 -1</clus>
<clus scale="  285.583">  1  4  2 -1</clus>
<clus scale="  285.583">  1  3  2 -1</clus>
</clustering>
</event>
<event>
 6    0  0.3042851E+002  0.7058398E+02  0.7546771E-02  0.1358118E+00
         21   -1    0    0  504  501  0.00000000000E+00  0.00000000000E+00  0.39075107857E+03  0.39075107857E+03  0.00000000000E+00 0. -1.
         21   -1    0    0  505  502 -0.00000000000E+00 -0.00000000000E+00 -0.12200892315E+03  0.12200892315E+03  0.00000000000E+00 0.  1.
         21    1    1    2  503  501  0.18861295201E+01  0.70149120291E+02  0.27486238551E+03  0.28367902202E+03  0.00000000000E+00 0. -1.
         21    1    1    2  504  506  0.25809197740E+02 -0.72026937235E+02  0.58548576014E+02  0.96342774139E+02  0.00000000000E+00 0. -1.
         21    1    1    2  505  503 -0.69817431741E+01  0.56796296152E+02 -0.32198040913E+02  0.65660321603E+02  0.00000000000E+00 0.  1.
         21    1    1    2  506  502 -0.20713584086E+02 -0.54918479208E+02 -0.32470765189E+02  0.67077883957E+02  0.00000000000E+00 0. -1.
<scales pt_clust_3="14000.00000" pt_clust_4="70.58398" pt_clust_5="57.22381" pt_clust_6="30.20311"></scales>
<clustering>
<clus scale="   57.224">  2  5  1 -1</clus>
<clus scale="   30.203">  2  6  1 -1</clus>
<clus scale="   70.584">  2  4  1 -1</clus>
<clus scale="   70.584">  1  3  2 -1</clus>
</clustering>
</event>
<event>
 6    0  0.3042851E+002  0.1420240E+03  0.7546771E-02  0.1210631E+00
         21   -1    0    0  504  501  0.00000000000E+00  0.00000000000E+00  0.12089679918E+03  0.12089679918E+03  0.00000000000E+00 0.  1.
         21   -1    0    0  506  502 -0.00000000000E+00 -0.00000000000E+00 -0.25769821561E+03  0.25769821561E+03  0.00000000000E+00 0.  1.
         21    1    1    2  503  501  0.11383346343E+03  0.81267011349E+02  0.10242927024E+02  0.14024015860E+03  0.00000000000E+00 0.  1.
         21    1    1    2  504  502 -0.28721272198E+02  0.27615202638E+02 -0.11327311882E+02  0.41422444253E+02  0.00000000000E+00 0.  1.
         21    1    1    2  505  503 -0.48143587925E+02 -0.35137563547E+02 -0.48077388649E+02  0.76576032344E+02  0.00000000000E+00 0.  1.
         21    1    1    2  506  505 -0.36968603303E+02 -0.73744650440E+02 -0.87639642923E+02  0.12035637960E+03  0.00000000000E+00 0.  1.
<scales pt_clust_3="137.50267" pt_clust_4="39.84358" pt_clust_5="30.21844" pt_clust_6="30.21844"></scales>
<clustering>
<clus scale="   30.218">  5  6 -1 -1</clus>
<clus scale="   39.844">  1  4  2 -1</clus>
<clus scale="  137.503">  1  3  2 -1</clus>
<clus scale="   39.844">  1  3  2 -1</clus>
</clustering>
</event>
<event>
 6    0  0.3042851E+002  0.1470262E+03  0.7546771E-02  0.1204176E+00
         21   -1    0    0  505  501  0.00000000000E+00  0.00000000000E+00  0.15381072426E+04  0.15381072426E+04  0.00000000000E+00 0.  1.
         21   -1    0    0  503  502 -0.00000000000E+00 -0.00000000000E+00 -0.80212665997E+02  0.80212665997E+02  0.00000000000E+00 0.  1.
         21    1    1    2  503  501  0.15494248129E+03 -0.32483940176E+02  0.81744443671E+02  0.17816995524E+03  0.00000000000E+00 0.  1.
         21    1    1    2  504  506 -0.17125594038E+03 -0.47441800868E+02  0.78933089783E+03  0.80908750321E+03  0.00000000000E+00 0.  1.
         21    1    1    2  505  504  0.40069998764E+02  0.10566215410E+03  0.58518848523E+03  0.59599971381E+03  0.00000000000E+00 0.  1.
         21    1    1    2  506  502 -0.23756539671E+02 -0.25736413052E+02  0.16307498606E+01  0.35062736331E+02  0.00000000000E+00 0.  1.
<scales pt_clust_3="14000.00000" pt_clust_4="147.02621" pt_clust_5="110.24471" pt_clust_6="35.02479"></scales>
<clustering>
<clus scale="   35.025">  2  6  1 -1</clus>
<clus scale="  110.245">  1  5  2 -1</clus>
<clus scale="  147.026">  1  4  2 -1</clus>
<clus scale="  110.245">  1  3  2 -1</clus>
</clustering>
</event>
<event>
 6    0  0.3042851E+002  0.1705422E+03  0.7546771E-02  0.1177284E+00
         21   -1    0    0  506  501  0.00000000000E+00  0.00000000000E+00  0.11745144474E+03  0.11745144474E+03  0.00000000000E+00 0.  1.
         21   -1    0    0  503  502 -0.00000000000E+00 -0.00000000000E+00 -0.82757944376E+03  0.82757944376E+03  0.00000000000E+00 0.  1.
         21    1    1    2  503  501  0.11245312749E+03 -0.20311034640E+03 -0.65440030515E+02  0.24120927903E+03  0.00000000000E+00 0.  1.
         21    1    1    2  504  505 -0.28401678747E+01  0.50291602715E+02 -0.44300227751E+02  0.67080712847E+02  0.00000000000E+00 0. -1.
         21    1    1    2  505  502 -0.75550890947E+02  0.14382144559E+03 -0.56027808795E+03  0.58335587867E+03  0.00000000000E+00 0.  1.
         21    1    1    2  506  504 -0.34062068666E+02  0.89972980921E+01 -0.40109652798E+02  0.53385017957E+02  0.00000000000E+00 0. -1.
<scales pt_clust_3="14000.00000" pt_clust_4="51.60749" pt_clust_5="170.54217" pt_clust_6="35.23033"></scales>
<clustering>
<clus scale="   35.230">  1  6  2 -1</clus>
<clus scale="   51.607">  1  4  2 -1</clus>
<clus scale="  170.542">  2  5  1 -1</clus>
<clus scale="   35.230">  1  3  2 -1</clus>
</clustering>
</event>
<event>
 6    0  0.3042851E+002  0.2909860E+03  0.7546771E-02  0.1089835E+00
         21   -1    0    0  504  501  0.00000000000E+00  0.00000000000E+00  0.13154957310E+04  0.13154957310E+04  0.00000000000E+00 0.  1.
         21   -1    0    0  503  502 -0.00000000000E+00 -0.00000000000E+00 -0.57568276061E+03  0.57568276061E+03  0.00000000000E+00 0. -1.
         21    1    1    2  503  505 -0.14669692912E+03 -0.25439133667E+01 -0.30686400639E+03  0.34013523623E+03  0.00000000000E+00 0. -1.
         21    1    1    2  504  506  0.11523512514E+03 -0.64701231328E+01  0.69611574520E+03  0.70561896748E+03  0.00000000000E+00 0.  1.
         21    1    1    2  505  501 -0.13244970329E+03  0.29605655876E+02 -0.21609447536E+03  0.25517884130E+03  0.00000000000E+00 0. -1.
         21    1    1    2  506  502  0.16391150728E+03 -0.20591619376E+02  0.56665570692E+03  0.59024544657E+03  0.00000000000E+00 0.  1.
<scales pt_clust_3="284.45259" pt_clust_4="64.84002" pt_clust_5="45.70325" pt_clust_6="64.84002"></scales>
<clustering>
<clus scale="   45.703">  3  5 -1 -1</clus>
<clus scale="   64.840">  4  6 -1 -1</clus>
<clus scale="  284.453">  2  3  1 -1</clus>
<clus scale="  290.986">  1  3  2 -1</clus>
</clustering>
</event>
<event>
 6    0  0.3042851E+002  0.9278597E+02  0.7546771E-02  0.1296242E+00
         21   -1    0    0  505  501  0.00000000000E+00  0.00000000000E+00  0.59850310456E+03  0.59850310456E+03  0.00000000000E+00 0.  1.
         21   -1    0    0  503  502 -0.00000000000E+00 -0.00000000000E+00 -0.33228287094E+02  0.33228287094E+02  0.00000000000E+00 0.  1.
         21    1    1    2  503  501 -0.12970916277E+02 -0.33863283601E+02  0.69315188951E+02  0.78227629803E+02  0.00000000000E+00 0.  1.
         21    1    1    2  504  502 -0.44070120294E+02  0.76721021076E+02  0.18316681342E+03  0.20341674492E+03  0.00000000000E+00 0.  1.
         21    1    1    2  505  506 -0.41548564768E+02 -0.20694470307E+01  0.14828240921E+03  0.15400726842E+03  0.00000000000E+00 0.  1.
         21    1    1    2  506  504  0.98589601339E+02 -0.40788290445E+02  0.16451040589E+03  0.19607974851E+03  0.00000000000E+00 0.  1.
<scales pt_clust_3="36.26247" pt_clust_4="92.78597" pt_clust_5="43.18281" pt_clust_6="14000.00000"></scales>
<clustering>
<clus scale="   36.262">  2  3  1 -1</clus>
<clus scale="   43.183">  1  5  2 -1</clus>
<clus scale="   92.786">  2  4  1 -1</clus>
<clus scale="   43.183">  1  3  2 -1</clus>
</clustering>
</event>
<event>
 6    0  0.3042851E+002  0.1404300E+03  0.7546771E-02  0.1212752E+00
         21   -1    0    0  505  501  0.00000000000E+00  0.00000000000E+00  0.56391637475E+02  0.56391637475E+02  0.00000000000E+00 0.  1.
         21   -1    0    0  503  502 -0.00000000000E+00 -0.00000000000E+00 -0.47413440725E+03  0.47413440725E+03  0.00000000000E+00 0.  1.
         21    1    1    2  503  504 -0.28044095816E+02  0.41134423308E+02 -0.79854375267E+02  0.94102249390E+02  0.00000000000E+00 0.  1.
         21    1    1    2  504  506  0.59939555254E+02  0.25585367231E+02 -0.10646268249E+03  0.12482653589E+03  0.00000000000E+00 0.  1.
         21    1    1    2  505  502 -0.68300272052E+02 -0.11769564003E+03 -0.19895755620E+03  0.24104211253E+03  0.00000000000E+00 0.  1.
         21    1    1    2  506  501  0.36404812614E+02  0.50975849492E+02 -0.32468155817E+02  0.70555146907E+02  0.00000000000E+00 0.  1.
<scales pt_clust_3="49.78466" pt_clust_4="60.47423" pt_clust_5="126.46036" pt_clust_6="60.47423"></scales>
<clustering>
<clus scale="   49.785">  2  3  1 -1</clus>
<clus scale="   60.474">  4  6 -1 -1</clus>
<clus scale="  126.460">  2  5  1 -1</clus>
<clus scale="  140.430">  1  3  2 -1</clus>
</clustering>
</event>
<event>
 6    0  0.3042851E+002  0.1352051E+03  0.7546771E-02  0.1219931E+00
         21   -1    0    0  505  501  0.00000000000E+00  0.00000000000E+00  0.57234801123E+03  0.57234801123E+03  0.00000000000E+00 0. -1.
         21   -1    0    0  503  502 -0.00000000000E+00 -0.00000000000E+00 -0.24680740333E+03  0.24680740333E+03  0.00000000000E+00 0. -1.
         21    1    1    2  503  506  0.40141088217E+02  0.65949292582E+02 -0.73767858784E+01  0.77556644623E+02  0.00000000000E+00 0. -1.
         21    1    1    2  504  502 -0.71823672134E+01 -0.30072066529E+02 -0.16699603880E+03  0.16983401473E+03  0.00000000000E+00 0. -1.
         21    1    1    2  505  504  0.82267950181E+02 -0.11027310751E+03  0.21014870777E+03  0.25117852863E+03  0.00000000000E+00 0. -1.
         21    1    1    2  506  501 -0.11522667118E+03  0.74395881458E+02  0.28976472480E+03  0.32058622658E+03  0.00000000000E+00 0. -1.
<scales pt_clust_3="61.48222" pt_clust_4="30.91788" pt_clust_5="14000.00000" pt_clust_6="135.20507"></scales>
<clustering>
<clus scale="   30.918">  2  4  1 -1</clus>
<clus scale="   61.482">  2  3  1 -1</clus>
<clus scale="  135.205">  1  6  2 -1</clus>
<clus scale="  135.205">  1  3  2 -1</clus>
</clustering>
</event>
<event>
 6    0  0.3042851E+002  0.9305789E+02  0.7546771E-02  0.1295611E+00
         21   -1    0    0  504  501  0.00000000000E+00  0.00000000000E+00  0.52055657752E+03  0.52055657752E+03  0.00000000000E+00 0.  1.
         21   -1    0    0  503  502 -0.00000000000E+00 -0.00000000000E+00 -0.24081664193E+03  0.24081664193E+03  0.00000000000E+00 0.  1.
         21    1    1    2  503  506 -0.53808782561E+02  0.66341661001E+02 -0.41403145054E+02  0.94925346907E+02  0.00000000000E+00 0.  1.
         21    1    1    2  504  505 -0.66745153862E+02 -0.30219520403E+02  0.22378975937E+03  0.23547821848E+03  0.00000000000E+00 0.  1.
         21    1    1    2  505  502  0.12228833637E+03  0.41951231061E+01 -0.14245421309E+03  0.18779041269E+03  0.00000000000E+00 0.  1.
         21    1    1    2  506  501 -0.17343999438E+01 -0.40317263704E+02  0.23980753436E+03  0.24317924137E+03  0.00000000000E+00 0.  1.
<scales pt_clust_3="82.56201" pt_clust_4="14000.00000" pt_clust_5="93.05789" pt_clust_6="40.35455"></scales>
<clustering>
<clus scale="   40.355">  1  6  2 -1</clus>
<clus scale="   82.562">  2  3  1 -1</clus>
<clus scale="   93.058">  2  5  1 -1</clus>
<clus scale="   40.355">  1  3  2 -1</clus>
</clustering>
</event>
<event>
 6    0  0.3042851E+002  0.1411503E+03  0.7546771E-02  0.1211790E+00
         21   -1    0    0  503  501  0.00000000000E+00  0.00000000000E+00  0.10192921668E+04  0.10192921668E+04  0.00000000000E+00 0. -1.
         21   -1    0    0  505  502 -0.00000000000E+00 -0.00000000000E+00 -0.18891499576E+03  0.18891499576E+03  0.00000000000E+00 0. -1.
         21    1    1    2  503  502 -0.12484576626E+03 -0.12396203114E+03 -0.11455680557E+03  0.20994359295E+03  0.00000000000E+00 0. -1.
         21    1    1    2  504  501  0.42274778450E+02  0.18976850329E+02  0.47950054574E+03  0.48173441968E+03  0.00000000000E+00 0. -1.
         21    1    1    2  505  506  0.65372862672E+01  0.64415390719E+02  0.27750932824E+02  0.70442834595E+02  0.00000000000E+00 0. -1.
         21    1    1    2  506  504  0.76033701547E+02  0.40569790090E+02  0.43768249808E+03  0.44608631538E+03  0.00000000000E+00 0. -1.
<scales pt_clust_3="133.56467" pt_clust_4="33.47378" pt_clust_5="64.74626" pt_clust_6="33.47378"></scales>
<clustering>
<clus scale="   33.474">  4  6 -1 -1</clus>
<clus scale="   64.746">  2  5  1 -1</clus>
<clus scale="  133.565">  2  3  1 -1</clus>
<clus scale="  141.150">  1  3  2 -1</clus>
</clustering>
</event>
<event>
 6    0  0.3042851E+002  0.1231627E+03  0.7546771E-02  0.1237969E+00
         21   -1    0    0  503  501  0.00000000000E+00  0.00000000000E+00  0.51790712781E+02  0.51790712781E+02  0.00000000000E+00 0.  1.
         21   -1    0    0  505  502 -0.00000000000E+00 -0.00000000000E+00 -0.72958170199E+03  0.72958170199E+03  0.00000000000E+00 0.  1.
         21    1    1    2  503  504 -0.18357856728E+02 -0.39087806135E+02 -0.39683648730E+02  0.58648610116E+02  0.00000000000E+00 0.  1.
         21    1    1    2  504  502  0.32617892096E+02 -0.12261836338E+03 -0.40637317183E+03  0.42572097048E+03  0.00000000000E+00 0.  1.
         21    1    1    2  505  506  0.29516929412E+02  0.12146135107E+03 -0.13999675474E+03  0.18767844912E+03  0.00000000000E+00 0.  1.
         21    1    1    2  506  501 -0.43776964780E+02  0.40244818453E+02 -0.91737413902E+02  0.10932438505E+03  0.00000000000E+00 0.  1.
<scales pt_clust_3="43.18411" pt_clust_4="123.16275" pt_clust_5="14000.00000" pt_clust_6="57.41765"></scales>
<clustering>
<clus scale="   43.184">  1  3  2 -1</clus>
<clus scale="   57.418">  1  6  2 -1</clus>
<clus scale="  123.163">  2  4  1 -1</clus>
<clus scale="   43.184">  1  3  2 -1</clus>
</clustering>
</event>
<event>
 6    0  0.3042851E+002  0.1315982E+03  0.7546771E-02  0.1225103E+00
         21   -1    0    0  506  501  0.00000000000E+00  0.00000000000E+00  0.25179578143E+03  0.25179578143E+03  0.00000000000E+00 0.  1.
         21   -1    0    0  504  502 -0.00000000000E+00 -0.00000000000E+00 -0.10150119063E+03  0.10150119063E+03  0.00000000000E+00 0.  1.
         21    1    1    2  503  502 -0.21166340264E+02  0.74771802006E+02  0.14542874411E+02  0.79059038266E+02  0.00000000000E+00 0.  1.
         21    1    1    2  504  505  0.16984288807E+02 -0.28663808605E+02 -0.14301824516E+02  0.36257718827E+02  0.00000000000E+00 0.  1.
         21    1    1    2  505  501  0.47677859940E+02 -0.10240929579E+03  0.10130924302E+03  0.15173794817E+03  0.00000000000E+00 0.  1.
         21    1    1    2  506  503 -0.43495808483E+02  0.56301302393E+02  0.48744297877E+02  0.86242266797E+02  0.00000000000E+00 0.  1.
<scales pt_clust_3="43.84599" pt_clust_4="33.31786" pt_clust_5="123.93621" pt_clust_6="43.84599"></scales>
<clustering>
<clus scale="   33.318">  2  4  1 -1</clus>
<clus scale="   43.846">  3  6 -1 -1</clus>
<clus scale="  123.936">  1  5  2 -1</clus>
<clus scale="  123.936">  1  3  2 -1</clus>
</clustering>
</event>
<event>
 6    0  0.3042851E+002  0.8771134E+02  0.7546771E-02  0.1308491E+00
         21   -1    0    0  503  501  0.00000000000E+00  0.00000000000E+00  0.29329073444E+03  0.29329073444E+03  0.00000000000E+00 0. -1.
         21   -1    0    0  505  502 -0.00000000000E+00 -0.00000000000E+00 -0.63185150242E+03  0.63185150242E+03  0.00000000000E+00 0.  1.
         21    1    1    2  503  506 -0.21222405791E+02 -0.39474099696E+02  0.99264062622E+01  0.45903470410E+02  0.00000000000E+00 0. -1.
         21    1    1    2  504  501  0.53864781644E+02 -0.42304530002E+02  0.22841666211E+03  0.23846437782E+03  0.00000000000E+00 0. -1.
         21    1    1    2  505  504  0.63221289292E+02 -0.41288145724E+02 -0.48307066762E+02  0.89639361311E+02  0.00000000000E+00 0. -1.
         21    1    1    2  506  502 -0.95863665145E+02  0.12306677542E+03 -0.52859676960E+03  0.55113502732E+03  0.00000000000E+00 0.  1.
<scales pt_clust_3="44.81735" pt_clust_4="87.71134" pt_clust_5="75.88607" pt_clust_6="14000.00000"></scales>
<clustering>
<clus scale="   44.817">  1  3  2 -1</clus>
<clus scale="   75.886">  2  5  1 -1</clus>
<clus scale="   87.711">  1  4  2 -1</clus>
<clus scale="   44.817">  1  3  2 -1</clus>
</clustering>
</event>
<event>
 6    0  0.3042851E+002  0.1042058E+03  0.7546771E-02  0.1271692E+00
         21   -1    0    0  504  501  0.00000000000E+00  0.00000000000E+00  0.29328133143E+03  0.29328133143E+03  0.00000000000E+00 0.  1.
         21   -1    0    0  506  502 -0.00000000000E+00 -0.00000000000E+00 -0.17722418654E+03  0.17722418654E+03  0.00000000000E+00 0.  1.
         21    1    1    2  503  505 -0.90779325145E+02 -0.76287475152E+01  0.58994909040E+02  0.10853332647E+03  0.00000000000E+00 0.  1.
         21    1    1    2  504  503 -0.21211817781E+02  0.41882400415E+02  0.11147648330E+03  0.12095901375E+03  0.00000000000E+00 0.  1.
         21    1    1    2  505  502  0.15717361620E+02  0.70843869907E+02 -0.65899348523E+02  0.98023535417E+02  0.00000000000E+00 0.  1.
         21    1    1    2  506  501  0.96273781306E+02 -0.10509752281E+03  0.11485101080E+02  0.14298964233E+03  0.00000000000E+00 0.  1.
<scales pt_clust_3="14000.00000" pt_clust_4="46.94760" pt_clust_5="75.90689" pt_clust_6="104.20583"></scales>
<clustering>
<clus scale="   46.948">  1  4  2 -1</clus>
<clus scale="   75.907">  2  5  1 -1</clus>
<clus scale="  104.206">  2  6  1 -1</clus>
<clus scale="   46.948">  1  3  2 -1</clus>
</clustering>
</event>
<event>
 6    0  0.3042851E+002  0.8274007E+02  0.7546771E-02  0.1321451E+00
         21   -1    0    0  504  501  0.00000000000E+00  0.00000000000E+00  0.16773595027E+03  0.16773595027E+03  0.00000000000E+00 0. -1.
         21   -1    0    0  506  502 -0.00000000000E+00 -0.00000000000E+00 -0.18755585006E+04  0.18755585006E+04  0.00000000000E+00 0. -1.
         21    1    1    2  503  502  0.68843117516E+02  0.89896593376E+02 -0.16500066333E+04  0.16538871371E+04  0.00000000000E+00 0. -1.
         21    1    1    2  504  505 -0.44598689739E+02  0.13051168044E+02  0.17265089810E+02  0.49572769137E+02  0.00000000000E+00 0.  1.
         21    1    1    2  505  503  0.13532031452E+02 -0.89321411304E+02  0.11461263963E+03  0.14593658745E+03  0.00000000000E+00 0. -1.
         21    1    1    2  506  501 -0.37776459229E+02 -0.13626350116E+02 -0.18969364649E+03  0.19389795720E+03  0.00000000000E+00 0. -1.
<scales pt_clust_3="82.74007" pt_clust_4="46.78076" pt_clust_5="14000.00000" pt_clust_6="40.15891"></scales>
<clustering>
<clus scale="   40.159">  2  6  1 -1</clus>
<clus scale="   46.781">  1  4  2 -1</clus>
<clus scale="   82.740">  2  3  1 -1</clus>
<clus scale="   46.781">  1  3  2 -1</clus>
</clustering>
</event>
<event>
 6    0  0.3042851E+002  0.8087001E+02  0.7546771E-02  0.1326600E+00
         21   -1    0    0  505  501  0.00000000000E+00  0.00000000000E+00  0.12355526579E+03  0.12355526579E+03  0.00000000000E+00 0.  1.
         21   -1    0    0  504  502 -0.00000000000E+00 -0.00000000000E+00 -0.23601123508E+04  0.23601123508E+04  0.00000000000E+00 0. -1.
         21    1    1    2  503  501  0.69878943765E+02  0.41197905456E+02  0.10276142114E+03  0.13092075417E+03  0.00000000000E+00 0.  1.
         21    1    1    2  504  503  0.16285222805E+01 -0.10400918864E+03 -0.16376342118E+04  0.16409346041E+04  0.00000000000E+00 0. -1.
         21    1    1    2  505  506 -0.34364719420E+02  0.42605011932E+02 -0.17330055437E+03  0.18173938244E+03  0.00000000000E+00 0. -1.
         21    1    1    2  506  502 -0.37142746626E+02  0.20206271250E+02 -0.52838374006E+03  0.53007287592E+03  0.00000000000E+00 0.  1.
<scales pt_clust_3="14000.00000" pt_clust_4="80.87001" pt_clust_5="58.54388" pt_clust_6="42.28329"></scales>
<clustering>
<clus scale="   42.283">  2  6  1 -1</clus>
<clus scale="   58.544">  2  5  1 -1</clus>
<clus scale="   80.870">  2  4  1 -1</clus>
<clus scale="   80.870">  1  3  2 -1</clus>
</clustering>
</event>
<event>
 6    0  0.3042851E+002  0.9272344E+02  0.7546771E-02  0.1296387E+00
         21   -1    0    0  505  501  0.00000000000E+00  0.00000000000E+00  0.50218829777E+02  0.50218829777E+02  0.00000000000E+00 0.  1.
         21   -1    0    0  504  502 -0.00000000000E+00 -0.00000000000E+00 -0.10880501318E+04  0.10880501318E+04  0.00000000000E+00 0.  1.
         21    1    1    2  503  501 -0.75736107837E+02 -0.47150266751E+02 -0.30989917362E+02  0.94443002192E+02  0.00000000000E+00 0.  1.
         21    1    1    2  504  506  0.17590969974E+02  0.39229597139E+02 -0.33645299626E+03  0.33918877076E+03  0.00000000000E+00 0.  1.
         21    1    1    2  505  502  0.12939701418E+03  0.22588955880E+02 -0.53559000965E+03  0.55146215341E+03  0.00000000000E+00 0.  1.
         21    1    1    2  506  503 -0.71251876313E+02 -0.14668286269E+02 -0.13479837874E+03  0.15317503521E+03  0.00000000000E+00 0.  1.
<scales pt_clust_3="92.72344" pt_clust_4="42.99306" pt_clust_5="14000.00000" pt_clust_6="68.25017"></scales>
<clustering>
<clus scale="   42.993">  2  4  1 -1</clus>
<clus scale="   68.250">  2  6  1 -1</clus>
<clus scale="   92.723">  1  3  2 -1</clus>
<clus scale="   92.723">  1  3  2 -1</clus>
</clustering>
</event>
<event>
 6    0  0.3042851E+002  0.1464728E+03  0.7546771E-02  0.1204875E+00
         21   -1    0    0  502  501  0.00000000000E+00  0.00000000000E+00  0.77321976111E+03  0.77321976111E+03  0.00000000000E+00 0.  1.
         21   -1    0    0  506  502 -0.00000000000E+00 -0.00000000000E+00 -0.45562220991E+03  0.45562220991E+03  0.00000000000E+00 0. -1.
         21    1    1    2  503  501 -0.91676435553E+02  0.14923828100E+02  0.60085454747E+03  0.60799134590E+03  0.00000000000E+00 0.  1.
         21    1    1    2  504  503 -0.31751750388E+02  0.26945965390E+02  0.15409487943E+03  0.15962296379E+03  0.00000000000E+00 0.  1.
         21    1    1    2  505  504  0.66770738878E+02 -0.50556566931E+02 -0.31771507056E+03  0.32856835528E+03  0.00000000000E+00 0. -1.
         21    1    1    2  506  505  0.56657447063E+02  0.86867734406E+01 -0.11963680513E+03  0.13265930605E+03  0.00000000000E+00 0. -1.
<scales pt_clust_3="138.86357" pt_clust_4="32.08101" pt_clust_5="55.29023" pt_clust_6="55.29023"></scales>
<clustering>
<clus scale="   32.081">  3  4 -1 -1</clus>
<clus scale="   55.290">  5  6 -1 -1</clus>
<clus scale="  138.864">  1  3  2 -1</clus>
<clus scale="  138.864">  1  3  2 -1</clus>
</clustering>
</event>
<event>
 6    0  0.3042851E+002  0.1482977E+03  0.7546771E-02  0.1202581E+00
         21   -1    0    0  504  501  0.00000000000E+00  0.00000000000E+00  0.45713084260E+03  0.45713084260E+03  0.00000000000E+00 0. -1.
         21   -1    0    0  503  502 -0.00000000000E+00 -0.00000000000E+00 -0.10372970280E+03  0.10372970280E+03  0.00000000000E+00 0. -1.
         21    1    1    2  503  501  0.17312316585E+02 -0.30775593053E+02  0.59106659149E+01  0.35802086599E+02  0.00000000000E+00 0. -1.
         21    1    1    2  504  506  0.91835805744E+02 -0.18594541463E+02  0.28430075738E+03  0.29934343626E+03  0.00000000000E+00 0. -1.
         21    1    1    2  505  502 -0.14873516005E+03  0.30124337916E+02  0.38142807937E+01  0.15180307081E+03  0.00000000000E+00 0. -1.
         21    1    1    2  506  505  0.39587037721E+02  0.19245796600E+02  0.59375435713E+02  0.73911951729E+02  0.00000000000E+00 0.  1.
<scales pt_clust_3="35.31081" pt_clust_4="42.67008" pt_clust_5="134.38126" pt_clust_6="42.67008"></scales>
<clustering>
<clus scale="   35.311">  2  3  1 -1</clus>
<clus scale="   42.670">  4  6 -1 -1</clus>
<clus scale="  134.381">  2  5  1 -1</clus>
<clus scale="  148.298">  1  3  2 -1</clus>
</clustering>
</event>
<event>
 6    0  0.3042851E+002  0.1388924E+03  0.7546771E-02  0.1214827E+00
         21   -1    0    0  505  501  0.00000000000E+00  0.00000000000E+00  0.25425888650E+03  0.25425888650E+03  0.00000000000E+00 0.  1.
         21   -1    0    0  506  502 -0.00000000000E+00 -0.00000000000E+00 -0.52256538577E+03  0.52256538577E+03  0.00000000000E+00 0.  1.
         21    1    1    2  503  504  0.42008590350E+02 -0.15148551790E+02  0.31788574484E+02  0.54815269335E+02  0.00000000000E+00 0.  1.
         21    1    1    2  504  501  0.82767566026E+02 -0.22065569897E+02  0.18030458885E+03  0.19961739434E+03  0.00000000000E+00 0.  1.
         21    1    1    2  505  502 -0.10649273136E+03 -0.30834754910E+02 -0.40187734376E+03  0.41688953377E+03  0.00000000000E+00 0.  1.
         21    1    1    2  506  503 -0.18283425018E+02  0.68048876596E+02 -0.78522318850E+02  0.10550207483E+03  0.00000000000E+00 0.  1.
<scales pt_clust_3="38.19611" pt_clust_4="38.19611" pt_clust_5="128.42358" pt_clust_6="70.46228"></scales>
<clustering>
<clus scale="   38.196">  3  4 -1 -1</clus>
<clus scale="   70.462">  2  6  1 -1</clus>
<clus scale="  128.424">  2  5  1 -1</clus>
<clus scale="  138.892">  1  3  2 -1</clus>
</clustering>
</event>
<event>
 6    0  0.3042851E+002  0.1141267E+03  0.7546771E-02  0.1253113E+00
         21   -1    0    0  502  501  0.00000000000E+00  0.00000000000E+00  0.42461731617E+02  0.42461731617E+02  0.00000000000E+00 0. -1.
         21   -1    0    0  505  502 -0.00000000000E+00 -0.00000000000E+00 -0.10771303144E+04  0.10771303144E+04  0.00000000000E+00 0.  1.
         21    1    1    2  503  501  0.26188515587E+02  0.21222457569E+02 -0.46935685447E+02  0.57785721613E+02  0.00000000000E+00 0. -1.
         21    1    1    2  504  506 -0.57310175163E+02  0.16172179143E+02 -0.52616382938E+03  0.52952277656E+03  0.00000000000E+00 0.  1.
         21    1    1    2  505  504 -0.31747653853E+02  0.44953924769E+02 -0.41510502794E+03  0.41873733186E+03  0.00000000000E+00 0.  1.
         21    1    1    2  506  503  0.62869313429E+02 -0.82348561481E+02 -0.46464040035E+02  0.11354621599E+03  0.00000000000E+00 0. -1.
<scales pt_clust_3="33.70803" pt_clust_4="38.08098" pt_clust_5="38.08098" pt_clust_6="107.15614"></scales>
<clustering>
<clus scale="   33.708">  1  3  2 -1</clus>
<clus scale="   38.081">  4  5 -1 -1</clus>
<clus scale="  107.156">  1  6  2 -1</clus>
<clus scale="   33.708">  1  3  2 -1</clus>
</clustering>
</event>
<event>
 6    0  0.3042851E+002  0.1201984E+03  0.7546771E-02  0.1242770E+00
         21   -1    0    0  506  501  0.00000000000E+00  0.00000000000E+00  0.25313347477E+02  0.25313347477E+02  0.00000000000E+00 0. -1.
         21   -1    0    0  505  502 -0.00000000000E+00 -0.00000000000E+00 -0.93288813689E+03  0.93288813689E+03  0.00000000000E+00 0.  1.
         21    1    1    2  503  501  0.47763655310E+02  0.55049946096E+01 -0.13725371239E+03  0.14543126658E+03  0.00000000000E+00 0. -1.
         21    1    1    2  504  502 -0.10270867898E+03  0.44388841295E+02 -0.58505994407E+03  0.59566314316E+03  0.00000000000E+00 0.  1.
         21    1    1    2  505  503  0.74681147740E+02 -0.19889053820E+02 -0.12654471865E+03  0.14827816464E+03  0.00000000000E+00 0. -1.
         21    1    1    2  506  504 -0.19736124072E+02 -0.30004782085E+02 -0.58716414302E+02  0.68828909986E+02  0.00000000000E+00 0. -1.
<scales pt_clust_3="30.30243" pt_clust_4="113.89325" pt_clust_5="30.30243" pt_clust_6="35.91381"></scales>
<clustering>
<clus scale="   30.302">  3  5 -1 -1</clus>
<clus scale="   35.914">  1  6  2 -1</clus>
<clus scale="  113.893">  2  4  1 -1</clus>
<clus scale="   35.914">  1  3  2 -1</clus>
</clustering>
</event>
<event>
 6    0  0.3042851E+002  0.1304367E+03  0.7546771E-02  0.1226809E+00
         21   -1    0    0  503  501  0.00000000000E+00  0.00000000000E+00  0.62147054806E+03  0.62147054806E+03  0.00000000000E+00 0. -1.
         21   -1    0    0  505  502 -0.00000000000E+00 -0.00000000000E+00 -0.11370573708E+03  0.11370573708E+03  0.00000000000E+00 0. -1.
         21    1    1    2  503  502  0.60273228285E+02  0.14457765552E+03  0.15209929632E+03  0.21833404788E+03  0.00000000000E+00 0. -1.
         21    1    1    2  504  506 -0.11137816115E+01 -0.10336776742E+03 -0.23846373754E+02  0.10608857333E+03  0.00000000000E+00 0. -1.
         21    1    1    2  505  504  0.24100630879E+02 -0.39516929403E+02  0.39993051480E+02  0.61170845056E+02  0.00000000000E+00 0. -1.
         21    1    1    2  506  501 -0.83260077552E+02 -0.16929587006E+01  0.33951883692E+03  0.34958281887E+03  0.00000000000E+00 0. -1.
<scales pt_clust_3="14000.00000" pt_clust_4="130.43672" pt_clust_5="46.28637" pt_clust_6="82.16384"></scales>
<clustering>
<clus scale="   46.286">  2  5  1 -1</clus>
<clus scale="   82.164">  1  6  2 -1</clus>
<clus scale="  130.437">  2  4  1 -1</clus>
<clus scale="   82.164">  1  3  2 -1</clus>
</clustering>
</event>
<event>
 6    0  0.3042851E+002  0.1562754E+03  0.7546771E-02  0.1192967E+00
         21   -1    0    0  506  501  0.00000000000E+00  0.00000000000E+00  0.40081446837E+02  0.40081446837E+02  0.00000000000E+00 0. -1.
         21   -1    0    0  503  502 -0.00000000000E+00 -0.00000000000E+00 -0.11677262007E+04  0.11677262007E+04  0.00000000000E+00 0. -1.
         21    1    1    2  503  504 -0.75212689839E+02 -0.19305203670E+01 -0.15859502603E+03  0.17553648596E+03  0.00000000000E+00 0. -1.
         21    1    1    2  504  501 -0.98579484501E+02  0.42786306438E+02 -0.13496874621E+03  0.17252578137E+03  0.00000000000E+00 0. -1.
         21    1    1    2  505  502  0.13441786114E+03 -0.34434638564E+02 -0.78160586789E+03  0.79382720944E+03  0.00000000000E+00 0. -1.
         21    1    1    2  506  505  0.39374313200E+02 -0.64211475065E+01 -0.52475113691E+02  0.65918170728E+02  0.00000000000E+00 0.  1.
<scales pt_clust_3="48.51614" pt_clust_4="48.51614" pt_clust_5="146.03852" pt_clust_6="39.89446"></scales>
<clustering>
<clus scale="   39.894">  1  6  2 -1</clus>
<clus scale="   48.516">  3  4 -1 -1</clus>
<clus scale="  146.039">  2  5  1 -1</clus>
<clus scale="   39.894">  1  3  2 -1</clus>
</clustering>
</event>
<event>
 6    0  0.3042851E+002  0.1190279E+03  0.7546771E-02  0.1244709E+00
         21   -1    0    0  503  501  0.00000000000E+00  0.00000000000E+00  0.56236440917E+03  0.56236440917E+03  0.00000000000E+00 0. -1.
         21   -1    0    0  506  502 -0.00000000000E+00 -0.00000000000E+00 -0.15043298338E+03  0.15043298338E+03  0.00000000000E+00 0. -1.
         21    1    1    2  503  504 -0.66033726465E+02 -0.98114004226E+02  0.37245996015E+03  0.39078540501E+03  0.00000000000E+00 0. -1.
         21    1    1    2  504  502  0.53230970340E+02 -0.82543780911E+02  0.73769076822E+02  0.12283683758E+03  0.00000000000E+00 0. -1.
         21    1    1    2  505  501 -0.13832998946E+02  0.15882352992E+03 -0.39748534047E+02  0.16430523873E+03  0.00000000000E+00 0. -1.
         21    1    1    2  506  505  0.26635755071E+02  0.21834255221E+02  0.54509228699E+01  0.34869911232E+02  0.00000000000E+00 0.  1.
<scales pt_clust_3="14000.00000" pt_clust_4="97.70767" pt_clust_5="119.02794" pt_clust_6="34.44123"></scales>
<clustering>
<clus scale="   34.441">  2  6  1 -1</clus>
<clus scale="   97.708">  2  4  1 -1</clus>
<clus scale="  119.028">  2  5  1 -1</clus>
<clus scale="  119.028">  1  3  2 -1</clus>
</clustering>
</event>
<event>
 6    0  0.3042851E+002  0.1776770E+03  0.7546771E-02  0.1170070E+00
         21   -1    0    0  505  501  0.00000000000E+00  0.00000000000E+00  0.54408685404E+03  0.54408685404E+03  0.00000000000E+00 0. -1.
         21   -1    0    0  506  502 -0.00000000000E+00 -0.00000000000E+00 -0.72308727222E+02  0.72308727222E+02  0.00000000000E+00 0.  1.
         21    1    1    2  503  502 -0.15821710209E+01 -0.37551140368E+02  0.17977317162E+02  0.41662637224E+02  0.00000000000E+00 0.  1.
         21    1    1    2  504  503 -0.56527268950E+02  0.49647106838E+02  0.13240546280E+03  0.15228714303E+03  0.00000000000E+00 0. -1.
         21    1    1    2  505  504 -0.10542039544E+03  0.17385303886E+01  0.16457860014E+03  0.19545484872E+03  0.00000000000E+00 0. -1.
         21    1    1    2  506  501  0.16352983541E+03 -0.13834496858E+02  0.15681674671E+03  0.22699095229E+03  0.00000000000E+00 0.  1.
<scales pt_clust_3="37.58446" pt_clust_4="50.98786" pt_clust_5="50.98786" pt_clust_6="166.46828"></scales>
<clustering>
<clus scale="   37.584">  2  3  1 -1</clus>
<clus scale="   50.988">  4  5 -1 -1</clus>
<clus scale="  166.468">  2  6  1 -1</clus>
<clus scale="  177.677">  1  3  2 -1</clus>
</clustering>
</event>
<event>
 6    0  0.3042851E+002  0.2158410E+03  0.7546771E-02  0.1137022E+00
         21   -1    0    0  506  501  0.00000000000E+00  0.00000000000E+00  0.65889286442E+03  0.65889286442E+03  0.00000000000E+00 0.  1.
         21   -1    0    0  501  502 -0.00000000000E+00 -0.00000000000E+00 -0.33136180176E+03  0.33136180176E+03  0.00000000000E+00 0.  1.
         21    1    1    2  503  502  0.34229612545E+02 -0.66943491046E+02 -0.11187727626E+03  0.13479474141E+03  0.00000000000E+00 0.  1.
         21    1    1    2  504  505 -0.24916645141E+02  0.77947374449E+02  0.32301483743E+03  0.33321947361E+03  0.00000000000E+00 0.  1.
         21    1    1    2  505  503  0.40372948233E+00 -0.13721842768E+03 -0.16445381337E+03  0.21418243771E+03  0.00000000000E+00 0.  1.
         21    1    1    2  506  504 -0.97166968860E+01  0.12621454428E+03  0.28084731486E+03  0.30805801345E+03  0.00000000000E+00 0.  1.
<scales pt_clust_3="37.34031" pt_clust_4="48.94478" pt_clust_5="213.13423" pt_clust_6="48.94478"></scales>
<clustering>
<clus scale="   37.340">  3  5 -1 -1</clus>
<clus scale="   48.945">  4  6 -1 -1</clus>
<clus scale="  213.134">  2  3  1 -1</clus>
<clus scale="  215.841">  1  3  2 -1</clus>
</clustering>
</event>
<event>
 6    0  0.3042851E+002  0.1456753E+03  0.7546771E-02  0.1205890E+00
         21   -1    0    0  504  501  0.00000000000E+00  0.00000000000E+00  0.33003236552E+03  0.33003236552E+03  0.00000000000E+00 0. -1.
         21   -1    0    0  506  502 -0.00000000000E+00 -0.00000000000E+00 -0.25380139441E+03  0.25380139441E+03  0.00000000000E+00 0. -1.
         21    1    1    2  503  501 -0.72598242243E+02  0.21047048825E+02  0.11496930025E+03  0.13759150788E+03  0.00000000000E+00 0. -1.
         21    1    1    2  504  505  0.10262354258E+03 -0.14982099406E+02 -0.12534756727E+03  0.16269009624E+03  0.00000000000E+00 0. -1.
         21    1    1    2  505  502  0.25463779764E+02 -0.26825395763E+02 -0.89982283006E+02  0.97287292041E+02  0.00000000000E+00 0. -1.
         21    1    1    2  506  503 -0.55489080098E+02  0.20760446344E+02  0.17659152113E+03  0.18626486378E+03  0.00000000000E+00 0. -1.
<scales pt_clust_3="140.97956" pt_clust_4="33.07277" pt_clust_5="33.07277" pt_clust_6="36.72773"></scales>
<clustering>
<clus scale="   33.073">  4  5 -1 -1</clus>
<clus scale="   36.728">  3  6 -1 -1</clus>
<clus scale="  140.980">  1  3  2 -1</clus>
<clus scale="  140.980">  1  3  2 -1</clus>
</clustering>
</event>
<event>
 6    0  0.3133213E+002  0.1899416E+03  0.7546771E-02  0.1158514E+00
         21   -1    0    0  504  501  0.00000000000E+00  0.00000000000E+00  0.53034552436E+03  0.53034552436E+03  0.00000000000E+00 0. -1.
         21   -1    0    0  506  502 -0.00000000000E+00 -0.00000000000E+00 -0.59767247771E+03  0.59767247771E+03  0.00000000000E+00 0.  1.
         21    1    1    2  503  502  0.47463475271E+02 -0.15450556151E+03 -0.48550503546E+03  0.51170293089E+03  0.00000000000E+00 0.  1.
         21    1    1    2  504  503 -0.20164699427E+02  0.42012946456E+02  0.72691768583E+01  0.47165068696E+02  0.00000000000E+00 0.  1.
         21    1    1    2  505  501  0.15227934138E+02  0.15286020189E+03  0.46479007653E+03  0.48951807581E+03  0.00000000000E+00 0. -1.
         21    1    1    2  506  505 -0.42526709982E+02 -0.40367586839E+02 -0.53881171282E+02  0.79631926687E+02  0.00000000000E+00 0.  1.
<scales pt_clust_3="14000.00000" pt_clust_4="46.60153" pt_clust_5="189.94159" pt_clust_6="58.28013"></scales>
<clustering>
<clus scale="   46.602">  1  4  2 -1</clus>
<clus scale="   58.280">  2  6  1 -1</clus>
<clus scale="  189.942">  1  5  2 -1</clus>
<clus scale="   46.602">  1  3  2 -1</clus>
</clustering>
</event>
<event>
 6    0  0.3042851E+002  0.1053780E+03  0.7546771E-02  0.1269377E+00
         21   -1    0    0  503  501  0.00000000000E+00  0.00000000000E+00  0.38759285529E+03  0.38759285529E+03  0.00000000000E+00 0. -1.
         21   -1    0    0  506  502 -0.00000000000E+00 -0.00000000000E+00 -0.54828391450E+03  0.54828391450E+03  0.00000000000E+00 0.  1.
         21    1    1    2  503  502  0.16338284895E+02  0.59247338234E+02  0.52317714079E+01  0.61681099805E+02  0.00000000000E+00 0.  1.
         21    1    1    2  504  505  0.33841718208E+02 -0.63348351323E+02 -0.98459028956E+02  0.12187065229E+03  0.00000000000E+00 0.  1.
         21    1    1    2  505  501 -0.11306054776E+03  0.12890064855E+02  0.33038980331E+03  0.34943706638E+03  0.00000000000E+00 0. -1.
         21    1    1    2  506  504  0.62880544657E+02 -0.87890517658E+01 -0.39785360497E+03  0.40288795131E+03  0.00000000000E+00 0.  1.
<scales pt_clust_3="61.45882" pt_clust_4="14000.00000" pt_clust_5="105.37804" pt_clust_6="63.55001"></scales>
<clustering>
<clus scale="   61.459">  1  3  2 -1</clus>
<clus scale="   63.550">  2  6  1 -1</clus>
<clus scale="  105.378">  1  5  2 -1</clus>
<clus scale="   61.459">  1  3  2 -1</clus>
</clustering>
</event>
<event>
 6    0  0.3042851E+002  0.1628937E+03  0.7546771E-02  0.1185468E+00
         21   -1    0    0  505  501  0.00000000000E+00  0.00000000000E+00  0.28871499153E+03  0.28871499153E+03  0.00000000000E+00 0. -1.
         21   -1    0    0  503  502 -0.00000000000E+00 -0.00000000000E+00 -0.41698017362E+03  0.41698017362E+03  0.00000000000E+00 0.  1.
         21    1    1    2  503  504 -0.19029520499E+03  0.18855212856E+02  0.10798507146E+03  0.21961001742E+03  0.00000000000E+00 0. -1.
         21    1    1    2  504  501  0.42001087258E+02 -0.33071244214E+02  0.10034833065E+03  0.11369954261E+03  0.00000000000E+00 0. -1.
         21    1    1    2  505  506  0.36716020957E+02 -0.55969357772E+01 -0.38597453819E+02  0.53564496883E+02  0.00000000000E+00 0.  1.
         21    1    1    2  506  502  0.11157809678E+03  0.19812967136E+02 -0.29800113039E+03  0.31882110824E+03  0.00000000000E+00 0.  1.
<scales pt_clust_3="152.82396" pt_clust_4="53.45838" pt_clust_5="32.27901" pt_clust_6="32.27901"></scales>
<clustering>
<clus scale="   32.279">  5  6 -1 -1</clus>
<clus scale="   53.458">  1  4  2 -1</clus>
<clus scale="  152.824">  1  3  2 -1</clus>
<clus scale="   53.458">  1  3  2 -1</clus>
</clustering>
</event>
<event>
 6    0  0.3042851E+002  0.1040884E+03  0.7546771E-02  0.1271926E+00
         21   -1    0    0  505  501  0.00000000000E+00  0.00000000000E+00  0.95894725540E+03  0.95894725540E+03  0.00000000000E+00 0. -1.
         21   -1    0    0  506  502 -0.00000000000E+00 -0.00000000000E+00 -0.76522687042E+02  0.76522687042E+02  0.00000000000E+00 0. -1.
         21    1    1    2  503  502  0.63956724470E+02  0.12643331408E+02 -0.30622104751E+02  0.72027978824E+02  0.00000000000E+00 0. -1.
         21    1    1    2  504  503  0.50654744665E+02 -0.50000564916E+02  0.73101142873E+02  0.10202811739E+03  0.00000000000E+00 0. -1.
         21    1    1    2  505  504  0.27846397927E+02  0.15076696881E+02  0.56129634060E+02  0.64445825978E+02  0.00000000000E+00 0. -1.
         21    1    1    2  506  501 -0.14245786706E+03  0.22280536627E+02  0.78381589618E+03  0.79696802025E+03  0.00000000000E+00 0. -1.
<scales pt_clust_3="65.89150" pt_clust_4="104.08836" pt_clust_5="31.66589" pt_clust_6="14000.00000"></scales>
<clustering>
<clus scale="   31.666">  1  5  2 -1</clus>
<clus scale="   65.891">  2  3  1 -1</clus>
<clus scale="  104.088">  2  4  1 -1</clus>
<clus scale="   31.666">  1  3  2 -1</clus>
</clustering>
</event>
<event>
 6    0  0.3042851E+002  0.1429075E+03  0.7546771E-02  0.1209469E+00
         21   -1    0    0  503  501  0.00000000000E+00  0.00000000000E+00  0.19819024121E+03  0.19819024121E+03  0.00000000000E+00 0. -1.
         21   -1    0    0  504  502 -0.00000000000E+00 -0.00000000000E+00 -0.24178678540E+03  0.24178678540E+03  0.00000000000E+00 0. -1.
         21    1    1    2  503  505 -0.11923875587E+01  0.52641037996E+02  0.55509904100E+02  0.76510457603E+02  0.00000000000E+00 0. -1.
         21    1    1    2  504  501  0.11365532379E+03 -0.14484734700E+03 -0.23848606098E+02  0.18565301660E+03  0.00000000000E+00 0. -1.
         21    1    1    2  505  506 -0.79909951286E+02  0.78078449706E+02 -0.22080972472E+02  0.11388333490E+03  0.00000000000E+00 0. -1.
         21    1    1    2  506  502 -0.32552984947E+02  0.14127859303E+02 -0.53176869718E+02  0.63930217507E+02  0.00000000000E+00 0. -1.
<scales pt_clust_3="53.53804" pt_clust_4="142.90746" pt_clust_5="14000.00000" pt_clust_6="35.48652"></scales>
<clustering>
<clus scale="   35.487">  2  6  1 -1</clus>
<clus scale="   53.538">  1  3  2 -1</clus>
<clus scale="  142.907">  1  4  2 -1</clus>
<clus scale="   53.538">  1  3  2 -1</clus>
</clustering>
</event>
<event>
 6    0  0.3042851E+002  0.9193439E+02  0.7546771E-02  0.1298234E+00
         21   -1    0    0  503  501  0.00000000000E+00  0.00000000000E+00  0.20723877882E+04  0.20723877882E+04  0.00000000000E+00 0. -1.
         21   -1    0    0  506  502 -0.00000000000E+00 -0.00000000000E+00 -0.19132381239E+02  0.19132381239E+02  0.00000000000E+00 0. -1.
         21    1    1    2  503  504 -0.82871838908E+01  0.44017278475E+02  0.53678300275E+02  0.69911073097E+02  0.00000000000E+00 0. -1.
         21    1    1    2  504  502  0.36683430928E+02  0.13559863809E+02  0.59155598978E+02  0.70914941315E+02  0.00000000000E+00 0. -1.
         21    1    1    2  505  501  0.81096993922E+02 -0.24205754108E+02  0.91392945959E+03  0.91783969083E+03  0.00000000000E+00 0. -1.
         21    1    1    2  506  505 -0.10949324096E+03 -0.33371388176E+02  0.10264920482E+04  0.10328544642E+04  0.00000000000E+00 0. -1.
<scales pt_clust_3="54.20895" pt_clust_4="39.10939" pt_clust_5="91.93439" pt_clust_6="14000.00000"></scales>
<clustering>
<clus scale="   39.109">  2  4  1 -1</clus>
<clus scale="   54.209">  2  3  1 -1</clus>
<clus scale="   91.934">  1  5  2 -1</clus>
<clus scale="   91.934">  1  3  2 -1</clus>
</clustering>
</event>
<event>
 6    0  0.3042851E+002  0.7256231E+02  0.7546771E-02  0.1351590E+00
         21   -1    0    0  505  501  0.00000000000E+00  0.00000000000E+00  0.14126855955E+03  0.14126855955E+03  0.00000000000E+00 0. -1.
         21   -1    0    0  503  502 -0.00000000000E+00 -0.00000000000E+00 -0.10234677446E+04  0.10234677446E+04  0.00000000000E+00 0.  1.
         21    1    1    2  503  506  0.68865519895E+02  0.42727281584E+02 -0.75242850762E+03  0.75678050947E+03  0.00000000000E+00 0.  1.
         21    1    1    2  504  501 -0.50047410490E+02 -0.29270778134E+02  0.16646791495E+02  0.60321119157E+02  0.00000000000E+00 0.  1.
         21    1    1    2  505  502  0.47150310725E+02 -0.25139135063E+02  0.88484147631E+02  0.10336620480E+03  0.00000000000E+00 0. -1.
         21    1    1    2  506  504 -0.65968420130E+02  0.11682631612E+02 -0.23490161656E+03  0.24426847075E+03  0.00000000000E+00 0.  1.
<scales pt_clust_3="14000.00000" pt_clust_4="51.59128" pt_clust_5="53.43340" pt_clust_6="72.56231"></scales>
<clustering>
<clus scale="   53.433">  1  5  2 -1</clus>
<clus scale="   51.591">  1  4  2 -1</clus>
<clus scale="   72.562">  1  6  2 -1</clus>
<clus scale="   53.433">  1  3  2 -1</clus>
</clustering>
</event>
<event>
 6    0  0.3042851E+002  0.1179883E+03  0.7546771E-02  0.1246453E+00
         21   -1    0    0  506  501  0.00000000000E+00  0.00000000000E+00  0.42427705921E+03  0.42427705921E+03  0.00000000000E+00 0. -1.
         21   -1    0    0  504  502 -0.00000000000E+00 -0.00000000000E+00 -0.67249883959E+03  0.67249883959E+03  0.00000000000E+00 0. -1.
         21    1    1    2  503  501 -0.76047478626E+02 -0.20069612703E+02  0.30557940077E+02  0.84378883976E+02  0.00000000000E+00 0. -1.
         21    1    1    2  504  505 -0.29467971970E+02  0.41087577405E+02 -0.37058245282E+03  0.37401591508E+03  0.00000000000E+00 0. -1.
         21    1    1    2  505  503 -0.21843838682E+02  0.58512497688E+02 -0.25390478738E+03  0.26147372091E+03  0.00000000000E+00 0. -1.
         21    1    1    2  506  502  0.12735928928E+03 -0.79530462390E+02  0.34570751975E+03  0.37690737884E+03  0.00000000000E+00 0. -1.
<scales pt_clust_3="78.65118" pt_clust_4="32.56171" pt_clust_5="32.56171" pt_clust_6="112.30118"></scales>
<clustering>
<clus scale="   32.562">  4  5 -1 -1</clus>
<clus scale="   78.651">  1  3  2 -1</clus>
<clus scale="  112.301">  1  6  2 -1</clus>
<clus scale="   78.651">  1  3  2 -1</clus>
</clustering>
</event>
<event>
 6    0  0.3042851E+002  0.1671241E+03  0.7546771E-02  0.1180881E+00
         21   -1    0    0  502  501  0.00000000000E+00  0.00000000000E+00  0.59132313988E+03  0.59132313988E+03  0.00000000000E+00 0.  1.
         21   -1    0    0  504  502 -0.00000000000E+00 -0.00000000000E+00 -0.56518789743E+02  0.56518789743E+02  0.00000000000E+00 0. -1.
         21    1    1    2  503  506  0.93819910290E+02 -0.44494245514E+02  0.19673819629E+03  0.22245860588E+03  0.00000000000E+00 0.  1.
         21    1    1    2  504  505 -0.10818404738E+03  0.55011755172E+02  0.11639704158E+03  0.16816168589E+03  0.00000000000E+00 0. -1.
         21    1    1    2  505  503 -0.13979214208E+02  0.38221389575E+02  0.15610402710E+02  0.43588733908E+02  0.00000000000E+00 0. -1.
         21    1    1    2  506  501  0.28343351298E+02 -0.48738899233E+02  0.20605870956E+03  0.21363290395E+03  0.00000000000E+00 0.  1.
<scales pt_clust_3="48.39959" pt_clust_4="165.56653" pt_clust_5="35.67761" pt_clust_6="48.39959"></scales>
<clustering>
<clus scale="   35.678">  4  5 -1 -1</clus>
<clus scale="   48.400">  3  6 -1 -1</clus>
<clus scale="  165.567">  2  4  1 -1</clus>
<clus scale="  167.124">  1  3  2 -1</clus>
</clustering>
</event>
<event>
 6    0  0.3042851E+002  0.1199919E+03  0.7546771E-02  0.1243110E+00
         21   -1    0    0  503  501  0.00000000000E+00  0.00000000000E+00  0.61634457245E+03  0.61634457245E+03  0.00000000000E+00 0. -1.
         21   -1    0    0  504  502 -0.00000000000E+00 -0.00000000000E+00 -0.22519760313E+03  0.22519760313E+03  0.00000000000E+00 0.  1.
         21    1    1    2  503  505  0.10289995684E+03  0.79987122199E+02  0.52376778163E+03  0.53973977980E+03  0.00000000000E+00 0. -1.
         21    1    1    2  504  506 -0.54011811787E+02  0.10867505666E+02 -0.11045759501E+03  0.12343524127E+03  0.00000000000E+00 0.  1.
         21    1    1    2  505  502  0.27023506709E+02 -0.51397228002E+02 -0.61168032754E+02  0.84341408526E+02  0.00000000000E+00 0.  1.
         21    1    1    2  506  501 -0.75911651760E+02 -0.39457399863E+02  0.39004815463E+02  0.94025745975E+02  0.00000000000E+00 0. -1.
<scales pt_clust_3="14000.00000" pt_clust_4="55.09427" pt_clust_5="45.05870" pt_clust_6="119.99193"></scales>
<clustering>
<clus scale="   55.094">  2  4  1 -1</clus>
<clus scale="   45.059">  2  5  1 -1</clus>
<clus scale="  119.992">  2  6  1 -1</clus>
<clus scale="  119.992">  1  3  2 -1</clus>
</clustering>
</event>
<event>
 6    0  0.3042851E+002  0.6686152E+02  0.7546771E-02  0.1371103E+00
         21   -1    0    0  505  501  0.00000000000E+00  0.00000000000E+00  0.11308077034E+03  0.11308077034E+03  0.00000000000E+00 0.  1.
         21   -1    0    0  504  502 -0.00000000000E+00 -0.00000000000E+00 -0.34706160512E+03  0.34706160512E+03  0.00000000000E+00 0.  1.
         21    1    1    2  503  501 -0.50639138261E+02 -0.98759545401E+01 -0.10139570966E+03  0.11376707230E+03  0.00000000000E+00 0. -1.
         21    1    1    2  504  503  0.96938353398E+01  0.31688753262E+02 -0.20538387552E+02  0.38986829701E+02  0.00000000000E+00 0.  1.
         21    1    1    2  505  506 -0.20463527332E+02  0.61516728628E+02  0.71592684503E+02  0.96584555320E+02  0.00000000000E+00 0.  1.
         21    1    1    2  506  502  0.61408830253E+02 -0.83329527350E+02 -0.18363942207E+03  0.21080391813E+03  0.00000000000E+00 0.  1.
<scales pt_clust_3="47.36037" pt_clust_4="33.13831" pt_clust_5="14000.00000" pt_clust_6="66.86152"></scales>
<clustering>
<clus scale="   33.138">  2  4  1 -1</clus>
<clus scale="   47.360">  2  3  1 -1</clus>
<clus scale="   66.862">  2  6  1 -1</clus>
<clus scale="   66.862">  1  3  2 -1</clus>
</clustering>
</event>
<event>
 6    0  0.3042851E+002  0.1329923E+03  0.7546771E-02  0.1223082E+00
         21   -1    0    0  503  501  0.00000000000E+00  0.00000000000E+00  0.47889662192E+03  0.47889662192E+03  0.00000000000E+00 0. -1.
         21   -1    0    0  504  502 -0.00000000000E+00 -0.00000000000E+00 -0.65963464382E+02  0.65963464382E+02  0.00000000000E+00 0.  1.
         21    1    1    2  503  505 -0.17968232141E+02  0.34227947878E+02  0.37660448720E+02  0.53969613488E+02  0.00000000000E+00 0.  1.
         21    1    1    2  504  506  0.53454925777E+02 -0.74709558613E+02  0.17463986624E+03  0.19732721585E+03  0.00000000000E+00 0. -1.
         21    1    1    2  505  502 -0.10570419083E+03  0.31216236880E+02  0.38691793183E+02  0.11681131908E+03  0.00000000000E+00 0.  1.
         21    1    1    2  506  501  0.70217497197E+02  0.92653738553E+01  0.16194104939E+03  0.17675193788E+03  0.00000000000E+00 0. -1.
<scales pt_clust_3="36.30854" pt_clust_4="118.01817" pt_clust_5="36.30854" pt_clust_6="70.82615"></scales>
<clustering>
<clus scale="   36.309">  3  5 -1 -1</clus>
<clus scale="   70.826">  1  6  2 -1</clus>
<clus scale="  118.018">  1  4  2 -1</clus>
<clus scale="   70.826">  1  3  2 -1</clus>
</clustering>
</event>
<event>
 6    0  0.3042851E+002  0.1342875E+03  0.7546771E-02  0.1221229E+00
         21   -1    0    0  506  501  0.00000000000E+00  0.00000000000E+00  0.78004748201E+02  0.78004748201E+02  0.00000000000E+00 0.  1.
         21   -1    0    0  504  502 -0.00000000000E+00 -0.00000000000E+00 -0.24966853481E+03  0.24966853481E+03  0.00000000000E+00 0.  1.
         21    1    1    2  503  501  0.76288834598E+02  0.16586555982E+02 -0.71814218883E+02  0.10607724618E+03  0.00000000000E+00 0.  1.
         21    1    1    2  504  503  0.46592996340E+02 -0.21193232997E+02 -0.65233868209E+02  0.82918743323E+02  0.00000000000E+00 0.  1.
         21    1    1    2  505  502 -0.35322026371E+02 -0.23095124382E+02 -0.14835259146E+02  0.44733826475E+02  0.00000000000E+00 0.  1.
         21    1    1    2  506  505 -0.87559804567E+02  0.27701801397E+02 -0.19780440371E+02  0.93943467031E+02  0.00000000000E+00 0.  1.
<scales pt_clust_3="130.14341" pt_clust_4="34.50701" pt_clust_5="36.58071" pt_clust_6="36.58071"></scales>
<clustering>
<clus scale="   34.507">  3  4 -1 -1</clus>
<clus scale="   36.581">  5  6 -1 -1</clus>
<clus scale="  130.143">  2  3  1 -1</clus>
<clus scale="  134.288">  1  3  2 -1</clus>
</clustering>
</event>
<event>
 6    0  0.3042851E+002  0.1056268E+03  0.7546771E-02  0.1268890E+00
         21   -1    0    0  506  501  0.00000000000E+00  0.00000000000E+00  0.36591947772E+03  0.36591947772E+03  0.00000000000E+00 0. -1.
         21   -1    0    0  505  502 -0.00000000000E+00 -0.00000000000E+00 -0.27246513497E+03  0.27246513497E+03  0.00000000000E+00 0.  1.
         21    1    1    2  503  504  0.42503626442E+02  0.50783195306E+02  0.61047877790E+02  0.90068499315E+02  0.00000000000E+00 0.  1.
         21    1    1    2  504  502 -0.66082295867E+02 -0.70770492089E+02 -0.22162778124E+03  0.24185575411E+03  0.00000000000E+00 0.  1.
         21    1    1    2  505  501  0.20970103964E+01 -0.33112324150E+02 -0.11271939382E+02  0.35041119854E+02  0.00000000000E+00 0.  1.
         21    1    1    2  506  503  0.21481659029E+02  0.53099620933E+02  0.26530618558E+03  0.27141923942E+03  0.00000000000E+00 0. -1.
<scales pt_clust_3="105.62678" pt_clust_4="14000.00000" pt_clust_5="33.17866" pt_clust_6="56.91387"></scales>
<clustering>
<clus scale="   33.179">  2  5  1 -1</clus>
<clus scale="   56.914">  1  6  2 -1</clus>
<clus scale="  105.627">  1  3  2 -1</clus>
<clus scale="   56.914">  1  3  2 -1</clus>
</clustering>
</event>
<event>
 6    0  0.3042851E+002  0.1532514E+03  0.7546771E-02  0.1196534E+00
         21   -1    0    0  503  501  0.00000000000E+00  0.00000000000E+00  0.26356318937E+02  0.26356318937E+02  0.00000000000E+00 0.  1.
         21   -1    0    0  506  502 -0.00000000000E+00 -0.00000000000E+00 -0.11095299212E+04  0.11095299212E+04  0.00000000000E+00 0.  1.
         21    1    1    2  503  505 -0.22294749294E+02  0.13480557514E+03 -0.61424761800E+03  0.62926126145E+03  0.00000000000E+00 0.  1.
         21    1    1    2  504  501  0.54821008274E+02 -0.10259171929E+03 -0.21942695535E+03  0.24835175165E+03  0.00000000000E+00 0.  1.
         21    1    1    2  505  502 -0.30172111518E+02  0.40046052815E+01 -0.11665449180E+03  0.12055979277E+03  0.00000000000E+00 0.  1.
         21    1    1    2  506  504 -0.23541474627E+01 -0.36218461129E+02 -0.13284453716E+03  0.13771343432E+03  0.00000000000E+00 0.  1.
<scales pt_clust_3="143.37332" pt_clust_4="30.23676" pt_clust_5="30.43671" pt_clust_6="30.23676"></scales>
<clustering>
<clus scale="   30.237">  4  6 -1 -1</clus>
<clus scale="   30.437">  2  5  1 -1</clus>
<clus scale="  143.373">  2  3  1 -1</clus>
<clus scale="  153.251">  1  3  2 -1</clus>
</clustering>
</event>
<event>
 6    0  0.3042851E+002  0.5892765E+03  0.7546771E-02  0.9927907E-01
         21   -1    0    0  503  501  0.00000000000E+00  0.00000000000E+00  0.22896565381E+04  0.22896565381E+04  0.00000000000E+00 0. -1.
         21   -1    0    0  506  502 -0.00000000000E+00 -0.00000000000E+00 -0.15163826165E+03  0.15163826165E+03  0.00000000000E+00 0. -1.
         21    1    1    2  503  505 -0.14549243526E+03 -0.16014666061E+03  0.41151085528E+03  0.46492600018E+03  0.00000000000E+00 0. -1.
         21    1    1    2  504  501  0.13219969964E+03  0.94044931516E+02  0.26404605702E+03  0.30990567913E+03  0.00000000000E+00 0. -1.
         21    1    1    2  505  502 -0.29405085670E+03 -0.22900246135E+03  0.66605647562E+03  0.76324259731E+03  0.00000000000E+00 0. -1.
         21    1    1    2  506  504  0.30734359232E+03  0.29510419045E+03  0.79640488856E+03  0.90322052318E+03  0.00000000000E+00 0. -1.
<scales pt_clust_3="38.93603" pt_clust_4="30.75197" pt_clust_5="38.93603" pt_clust_6="589.16804"></scales>
<clustering>
<clus scale="   30.752">  4  6 -1 -1</clus>
<clus scale="   38.936">  3  5 -1 -1</clus>
<clus scale="  589.168">  2  4  1 -1</clus>
<clus scale="  589.276">  1  3  2 -1</clus>
</clustering>
</event>
<event>
 6    0  0.3042851E+002  0.1395448E+03  0.7546771E-02  0.1213943E+00
         21   -1    0    0  506  501  0.00000000000E+00  0.00000000000E+00  0.10447622897E+04  0.10447622897E+04  0.00000000000E+00 0. -1.
         21   -1    0    0  504  502 -0.00000000000E+00 -0.00000000000E+00 -0.79529994374E+02  0.79529994374E+02  0.00000000000E+00 0.  1.
         21    1    1    2  503  505  0.35484533142E+02 -0.64562342999E+02  0.12696547762E+01  0.73682156925E+02  0.00000000000E+00 0.  1.
         21    1    1    2  504  501 -0.93148769473E+02  0.48314715451E+02  0.85901579947E+03  0.86540114902E+03  0.00000000000E+00 0. -1.
         21    1    1    2  505  502  0.60692381755E+02 -0.31638566614E+02 -0.14865313089E+01  0.68460016621E+02  0.00000000000E+00 0.  1.
         21    1    1    2  506  503 -0.30281454241E+01  0.47886194162E+02  0.10643337240E+03  0.11674896153E+03  0.00000000000E+00 0.  1.
<scales pt_clust_3="39.73829" pt_clust_4="133.31543" pt_clust_5="39.73829" pt_clust_6="47.98184"></scales>
<clustering>
<clus scale="   39.738">  3  5 -1 -1</clus>
<clus scale="   47.982">  1  6  2 -1</clus>
<clus scale="  133.315">  1  4  2 -1</clus>
<clus scale="   47.982">  1  3  2 -1</clus>
</clustering>
</event>
<event>
 6    0  0.3042851E+002  0.1575880E+03  0.7546771E-02  0.1191447E+00
         21   -1    0    0  505  501  0.00000000000E+00  0.00000000000E+00  0.39473438075E+03  0.39473438075E+03  0.00000000000E+00 0.  1.
         21   -1    0    0  504  502 -0.00000000000E+00 -0.00000000000E+00 -0.46089058793E+03  0.46089058793E+03  0.00000000000E+00 0. -1.
         21    1    1    2  503  501  0.10336599884E+03 -0.10713687711E+03  0.29162129484E+03  0.32742299821E+03  0.00000000000E+00 0.  1.
         21    1    1    2  504  503 -0.12288026387E+03  0.56754713246E+02 -0.26522486356E+03  0.29776649404E+03  0.00000000000E+00 0. -1.
         21    1    1    2  505  506  0.34445723757E+02  0.24051556681E+02  0.60922601325E+02  0.74003706773E+02  0.00000000000E+00 0.  1.
         21    1    1    2  506  502 -0.14931458728E+02  0.26330607185E+02 -0.15347523977E+03  0.15643176966E+03  0.00000000000E+00 0.  1.
<scales pt_clust_3="14000.00000" pt_clust_4="157.58802" pt_clust_5="42.07720" pt_clust_6="30.26961"></scales>
<clustering>
<clus scale="   30.270">  2  6  1 -1</clus>
<clus scale="   42.077">  1  5  2 -1</clus>
<clus scale="  157.588">  2  4  1 -1</clus>
<clus scale="   42.077">  1  3  2 -1</clus>
</clustering>
</event>
<event>
 6    0  0.3042851E+002  0.1638641E+03  0.7546771E-02  0.1184402E+00
         21   -1    0    0  505  501  0.00000000000E+00  0.00000000000E+00  0.13389686021E+03  0.13389686021E+03  0.00000000000E+00 0.  1.
         21   -1    0    0  504  502 -0.00000000000E+00 -0.00000000000E+00 -0.95017829436E+03  0.95017829436E+03  0.00000000000E+00 0. -1.
         21    1    1    2  503  502 -0.61383915172E+01  0.57452837094E+02 -0.17483518651E+03  0.18413541426E+03  0.00000000000E+00 0. -1.
         21    1    1    2  504  506 -0.10947154833E+03 -0.97060744418E+02  0.22595523818E+02  0.14803839264E+03  0.00000000000E+00 0.  1.
         21    1    1    2  505  503  0.15332556500E+03  0.28023926792E+02 -0.68820567232E+03  0.70563525760E+03  0.00000000000E+00 0. -1.
         21    1    1    2  506  501 -0.37715625153E+02  0.11583980532E+02  0.24163900867E+02  0.46266090074E+02  0.00000000000E+00 0.  1.
<scales pt_clust_3="58.53637" pt_clust_4="14000.00000" pt_clust_5="163.86407" pt_clust_6="39.45449"></scales>
<clustering>
<clus scale="   39.454">  1  6  2 -1</clus>
<clus scale="   58.536">  2  3  1 -1</clus>
<clus scale="  163.864">  2  5  1 -1</clus>
<clus scale="   39.454">  1  3  2 -1</clus>
</clustering>
</event>
<event>
 6    0  0.3042851E+002  0.1747557E+03  0.7546771E-02  0.1172977E+00
         21   -1    0    0  504  501  0.00000000000E+00  0.00000000000E+00  0.12119145106E+04  0.12119145106E+04  0.00000000000E+00 0.  1.
         21   -1    0    0  505  502 -0.00000000000E+00 -0.00000000000E+00 -0.14934159271E+03  0.14934159271E+03  0.00000000000E+00 0. -1.
         21    1    1    2  503  502 -0.76406102692E+02  0.66674885995E+02 -0.93704008510E+02  0.13807198906E+03  0.00000000000E+00 0. -1.
         21    1    1    2  504  503  0.72631369416E+02 -0.17932191876E+03  0.10329270203E+04  0.10508900492E+04  0.00000000000E+00 0.  1.
         21    1    1    2  505  506 -0.40662014911E+01  0.38739287962E+02  0.16887307202E+02  0.42455241972E+02  0.00000000000E+00 0.  1.
         21    1    1    2  506  501  0.78409347671E+01  0.73907744808E+02  0.10646259898E+03  0.12983882309E+03  0.00000000000E+00 0.  1.
<scales pt_clust_3="101.40726" pt_clust_4="169.62641" pt_clust_5="30.42672" pt_clust_6="30.42672"></scales>
<clustering>
<clus scale="   30.427">  5  6 -1 -1</clus>
<clus scale="  101.407">  2  3  1 -1</clus>
<clus scale="  169.626">  1  4  2 -1</clus>
<clus scale="  169.626">  1  3  2 -1</clus>
</clustering>
</event>
<event>
 6    0  0.3042851E+002  0.1062589E+03  0.7546771E-02  0.1267659E+00
         21   -1    0    0  505  501  0.00000000000E+00  0.00000000000E+00  0.46429568781E+03  0.46429568781E+03  0.00000000000E+00 0. -1.
         21   -1    0    0  506  502 -0.00000000000E+00 -0.00000000000E+00 -0.92934469248E+02  0.92934469248E+02  0.00000000000E+00 0.  1.
         21    1    1    2  503  501  0.35062247156E+02  0.33761909648E+02  0.20655507498E+03  0.21221269217E+03  0.00000000000E+00 0. -1.
         21    1    1    2  504  503  0.78616955811E+01  0.60190181368E+02  0.16710314035E+03  0.17778673659E+03  0.00000000000E+00 0. -1.
         21    1    1    2  505  502  0.33054747483E+02 -0.75399972837E+02 -0.24560689328E+02  0.85912744662E+02  0.00000000000E+00 0.  1.
         21    1    1    2  506  504 -0.75978690220E+02 -0.18552118178E+02  0.22263692557E+02  0.81317983637E+02  0.00000000000E+00 0. -1.
<scales pt_clust_3="38.09319" pt_clust_4="38.09319" pt_clust_5="97.37211" pt_clust_6="78.21088"></scales>
<clustering>
<clus scale="   38.093">  3  4 -1 -1</clus>
<clus scale="   78.211">  2  6  1 -1</clus>
<clus scale="   97.372">  2  5  1 -1</clus>
<clus scale="  106.259">  1  3  2 -1</clus>
</clustering>
</event>
<event>
 6    0  0.3042851E+002  0.1528285E+03  0.7546771E-02  0.1197040E+00
         21   -1    0    0  506  501  0.00000000000E+00  0.00000000000E+00  0.71362498635E+02  0.71362498635E+02  0.00000000000E+00 0. -1.
         21   -1    0    0  504  502 -0.00000000000E+00 -0.00000000000E+00 -0.62382761182E+03  0.62382761182E+03  0.00000000000E+00 0.  1.
         21    1    1    2  503  501  0.10117092176E+03  0.14387021927E+02 -0.11763402730E+03  0.15582139195E+03  0.00000000000E+00 0. -1.
         21    1    1    2  504  505 -0.12969369794E+03 -0.29338130116E+02 -0.34663308632E+03  0.37126227616E+03  0.00000000000E+00 0.  1.
         21    1    1    2  505  503  0.82635764234E+02 -0.79450920063E+01 -0.40207598678E+02  0.92241232695E+02  0.00000000000E+00 0. -1.
         21    1    1    2  506  502 -0.54112988047E+02  0.22896200196E+02 -0.47990400878E+02  0.75865209650E+02  0.00000000000E+00 0.  1.
<scales pt_clust_3="47.64841" pt_clust_4="143.39409" pt_clust_5="47.64841" pt_clust_6="58.75757"></scales>
<clustering>
<clus scale="   47.648">  3  5 -1 -1</clus>
<clus scale="   58.758">  1  6  2 -1</clus>
<clus scale="  143.394">  2  4  1 -1</clus>
<clus scale="   58.758">  1  3  2 -1</clus>
</clustering>
</event>
<event>
 6    0  0.3042851E+002  0.8781728E+02  0.7546771E-02  0.1308225E+00
         21   -1    0    0  506  501  0.00000000000E+00  0.00000000000E+00  0.29913753425E+03  0.29913753425E+03  0.00000000000E+00 0.  1.
         21   -1    0    0  504  502 -0.00000000000E+00 -0.00000000000E+00 -0.87637891913E+02  0.87637891913E+02  0.00000000000E+00 0.  1.
         21    1    1    2  503  502  0.23571963026E+02  0.85880932814E+02 -0.28666157604E+02  0.93557044918E+02  0.00000000000E+00 0.  1.
         21    1    1    2  504  501 -0.42913754484E+02 -0.50464260729E+01  0.53238448126E+02  0.68566676300E+02  0.00000000000E+00 0.  1.
         21    1    1    2  505  503 -0.22369216772E+02 -0.79146642474E+02  0.13422109873E+03  0.15741625144E+03  0.00000000000E+00 0.  1.
         21    1    1    2  506  505  0.41711008230E+02 -0.16878642671E+01  0.52706253085E+02  0.67235453502E+02  0.00000000000E+00 0.  1.
<scales pt_clust_3="14000.00000" pt_clust_4="32.75331" pt_clust_5="87.81728" pt_clust_6="41.74514"></scales>
<clustering>
<clus scale="   41.745">  1  6  2 -1</clus>
<clus scale="   32.753">  1  4  2 -1</clus>
<clus scale="   87.817">  1  5  2 -1</clus>
<clus scale="   41.745">  1  3  2 -1</clus>
</clustering>
</event>
<event>
 6    0  0.3042851E+002  0.1392513E+03  0.7546771E-02  0.1214340E+00
         21   -1    0    0  504  501  0.00000000000E+00  0.00000000000E+00  0.35308803883E+02  0.35308803883E+02  0.00000000000E+00 0. -1.
         21   -1    0    0  505  502 -0.00000000000E+00 -0.00000000000E+00 -0.80699599678E+03  0.80699599678E+03  0.00000000000E+00 0. -1.
         21    1    1    2  503  501  0.63798493143E+02 -0.59705098137E+02 -0.29710115675E+03  0.30968378035E+03  0.00000000000E+00 0. -1.
         21    1    1    2  504  506 -0.58466222880E+02  0.29432658145E+02 -0.63896130775E+02  0.91472925564E+02  0.00000000000E+00 0. -1.
         21    1    1    2  505  503  0.31190362226E+02 -0.25162343428E+02 -0.34648385020E+03  0.34879369357E+03  0.00000000000E+00 0. -1.
         21    1    1    2  506  502 -0.36522632490E+02  0.55434783420E+02 -0.64206055175E+02  0.92354401184E+02  0.00000000000E+00 0. -1.
<scales pt_clust_3="38.10296" pt_clust_4="33.77542" pt_clust_5="38.10296" pt_clust_6="131.84201"></scales>
<clustering>
<clus scale="   33.775">  4  6 -1 -1</clus>
<clus scale="   38.103">  3  5 -1 -1</clus>
<clus scale="  131.842">  1  4  2 -1</clus>
<clus scale="  131.842">  1  3  2 -1</clus>
</clustering>
</event>
<event>
 6    0  0.3042851E+002  0.2471883E+03  0.7546771E-02  0.1115095E+00
         21   -1    0    0  506  501  0.00000000000E+00  0.00000000000E+00  0.75103025450E+03  0.75103025450E+03  0.00000000000E+00 0.  1.
         21   -1    0    0  503  502 -0.00000000000E+00 -0.00000000000E+00 -0.15485365518E+03  0.15485365518E+03  0.00000000000E+00 0. -1.
         21    1    1    2  503  505  0.34056357944E+02  0.15563577635E+03 -0.35998443516E+02  0.16333468196E+03  0.00000000000E+00 0. -1.
         21    1    1    2  504  501 -0.93810355108E+02 -0.17814461230E+03  0.46675251771E+03  0.50832450109E+03  0.00000000000E+00 0.  1.
         21    1    1    2  505  504  0.16557685486E+01 -0.61877526717E+02  0.77745223880E+02  0.99377511130E+02  0.00000000000E+00 0. -1.
         21    1    1    2  506  502  0.58098228615E+02  0.84386362666E+02  0.87677301250E+02  0.13484721550E+03  0.00000000000E+00 0. -1.
<scales pt_clust_3="233.19779" pt_clust_4="45.45654" pt_clust_5="45.45654" pt_clust_6="102.45224"></scales>
<clustering>
<clus scale="   45.457">  4  5 -1 -1</clus>
<clus scale="  102.452">  2  6  1 -1</clus>
<clus scale="  233.198">  2  3  1 -1</clus>
<clus scale="  247.188">  1  3  2 -1</clus>
</clustering>
</event>
<event>
 6    0  0.3042851E+002  0.2018854E+03  0.7546771E-02  0.1148158E+00
         21   -1    0    0  506  501  0.00000000000E+00  0.00000000000E+00  0.34731890670E+03  0.34731890670E+03  0.00000000000E+00 0. -1.
         21   -1    0    0  503  502 -0.00000000000E+00 -0.00000000000E+00 -0.59001269800E+03  0.59001269800E+03  0.00000000000E+00 0. -1.
         21    1    1    2  503  504 -0.41062109297E+02  0.74521961637E+00 -0.50869150413E+02  0.65378304015E+02  0.00000000000E+00 0. -1.
         21    1    1    2  504  505  0.16809792866E+00  0.11551001290E+03  0.13498141904E+03  0.17765859063E+03  0.00000000000E+00 0. -1.
         21    1    1    2  505  501 -0.24198175405E+01  0.82880915608E+02  0.15243285824E+03  0.17352486266E+03  0.00000000000E+00 0. -1.
         21    1    1    2  506  502  0.43313828909E+02 -0.19913614813E+03 -0.47923891818E+03  0.52076984740E+03  0.00000000000E+00 0. -1.
<scales pt_clust_3="41.06887" pt_clust_4="31.23135" pt_clust_5="31.23135" pt_clust_6="198.49157"></scales>
<clustering>
<clus scale="   31.231">  4  5 -1 -1</clus>
<clus scale="   41.069">  2  3  1 -1</clus>
<clus scale="  198.492">  2  6  1 -1</clus>
<clus scale="  201.885">  1  3  2 -1</clus>
</clustering>
</event>
<event>
 6    0  0.3042851E+002  0.1510765E+03  0.7546771E-02  0.1199156E+00
         21   -1    0    0  504  501  0.00000000000E+00  0.00000000000E+00  0.24682878690E+03  0.24682878690E+03  0.00000000000E+00 0. -1.
         21   -1    0    0  503  502 -0.00000000000E+00 -0.00000000000E+00 -0.28415196738E+03  0.28415196738E+03  0.00000000000E+00 0.  1.
         21    1    1    2  503  501  0.13700348505E+02  0.10732658874E+03  0.18053292480E+03  0.21047287981E+03  0.00000000000E+00 0. -1.
         21    1    1    2  504  505  0.29449100686E+02  0.29805789058E+02  0.11824309496E+02  0.43536753297E+02  0.00000000000E+00 0. -1.
         21    1    1    2  505  506 -0.21709326664E+02 -0.45496294426E+02 -0.13215132774E+03  0.14143967299E+03  0.00000000000E+00 0.  1.
         21    1    1    2  506  502 -0.21440122527E+02 -0.91636083376E+02 -0.97529087030E+02  0.13553144819E+03  0.00000000000E+00 0.  1.
<scales pt_clust_3="139.75468" pt_clust_4="41.90029" pt_clust_5="42.34486" pt_clust_6="42.34486"></scales>
<clustering>
<clus scale="   41.900">  1  4  2 -1</clus>
<clus scale="   42.345">  5  6 -1 -1</clus>
<clus scale="  139.755">  1  3  2 -1</clus>
<clus scale="   41.900">  1  3  2 -1</clus>
</clustering>
</event>
<event>
 6    0  0.3042851E+002  0.1168686E+03  0.7546771E-02  0.1248354E+00
         21   -1    0    0  504  501  0.00000000000E+00  0.00000000000E+00  0.26864139971E+03  0.26864139971E+03  0.00000000000E+00 0. -1.
         21   -1    0    0  505  502 -0.00000000000E+00 -0.00000000000E+00 -0.14930905964E+03  0.14930905964E+03  0.00000000000E+00 0. -1.
         21    1    1    2  503  501 -0.59702275259E+02  0.56071636184E+02  0.17410792192E+03  0.19241091063E+03  0.00000000000E+00 0. -1.
         21    1    1    2  504  502  0.18440078702E+02  0.49236067964E+02  0.44181509324E+02  0.68674832779E+02  0.00000000000E+00 0. -1.
         21    1    1    2  505  506  0.31563123572E+02 -0.42141910964E+02 -0.22608618978E+02  0.57300271215E+02  0.00000000000E+00 0. -1.
         21    1    1    2  506  503  0.96990729852E+01 -0.63165793185E+02 -0.76348472202E+02  0.99564444723E+02  0.00000000000E+00 0. -1.
<scales pt_clust_3="107.87272" pt_clust_4="52.57592" pt_clust_5="40.81293" pt_clust_6="40.81293"></scales>
<clustering>
<clus scale="   40.813">  5  6 -1 -1</clus>
<clus scale="   52.576">  1  4  2 -1</clus>
<clus scale="  107.873">  1  3  2 -1</clus>
<clus scale="   52.576">  1  3  2 -1</clus>
</clustering>
</event>
<event>
 6    0  0.3042851E+002  0.1104831E+03  0.7546771E-02  0.1259678E+00
         21   -1    0    0  505  501  0.00000000000E+00  0.00000000000E+00  0.37292697495E+03  0.37292697495E+03  0.00000000000E+00 0.  1.
         21   -1    0    0  504  502 -0.00000000000E+00 -0.00000000000E+00 -0.32283708566E+03  0.32283708566E+03  0.00000000000E+00 0.  1.
         21    1    1    2  503  501  0.10064480749E+02 -0.62244429898E+02  0.89124798790E+02  0.10917368083E+03  0.00000000000E+00 0.  1.
         21    1    1    2  504  506  0.40622612105E+02  0.73728710377E+02 -0.26340919320E+03  0.27653304036E+03  0.00000000000E+00 0.  1.
         21    1    1    2  505  502  0.29988044275E+02  0.17719871837E+02 -0.27238879586E+02  0.44218019160E+02  0.00000000000E+00 0.  1.
         21    1    1    2  506  503 -0.80675137129E+02 -0.29204152316E+02  0.25161316328E+03  0.26583932027E+03  0.00000000000E+00 0.  1.
<scales pt_clust_3="62.61947" pt_clust_4="14000.00000" pt_clust_5="34.83212" pt_clust_6="110.48312"></scales>
<clustering>
<clus scale="   34.832">  2  5  1 -1</clus>
<clus scale="   62.619">  1  3  2 -1</clus>
<clus scale="  110.483">  1  6  2 -1</clus>
<clus scale="   62.619">  1  3  2 -1</clus>
</clustering>
</event>
<event>
 6    0  0.3042851E+002  0.1097303E+03  0.7546771E-02  0.1261070E+00
         21   -1    0    0  504  501  0.00000000000E+00  0.00000000000E+00  0.32931345419E+03  0.32931345419E+03  0.00000000000E+00 0.  1.
         21   -1    0    0  503  502 -0.00000000000E+00 -0.00000000000E+00 -0.81532153151E+03  0.81532153151E+03  0.00000000000E+00 0.  1.
         21    1    1    2  503  505  0.22179064079E+02 -0.32333226528E+02 -0.59786465958E+03  0.59914897946E+03  0.00000000000E+00 0.  1.
         21    1    1    2  504  506 -0.81551079455E+02 -0.65083488021E+02  0.20959843020E+03  0.23413231498E+03  0.00000000000E+00 0.  1.
         21    1    1    2  505  501  0.12716572130E+03  0.48066864451E+02  0.47196685898E+02  0.14390646716E+03  0.00000000000E+00 0.  1.
         21    1    1    2  506  502 -0.67793705920E+02  0.49349850098E+02 -0.14493853384E+03  0.16744722410E+03  0.00000000000E+00 0.  1.
<scales pt_clust_3="39.20903" pt_clust_4="14000.00000" pt_clust_5="109.73035" pt_clust_6="57.99882"></scales>
<clustering>
<clus scale="   39.209">  2  3  1 -1</clus>
<clus scale="   57.999">  2  6  1 -1</clus>
<clus scale="  109.730">  2  5  1 -1</clus>
<clus scale="  109.730">  1  3  2 -1</clus>
</clustering>
</event>
<event>
 6    0  0.3042851E+002  0.1564949E+03  0.7546771E-02  0.1192712E+00
         21   -1    0    0  503  501  0.00000000000E+00  0.00000000000E+00  0.53560846740E+03  0.53560846740E+03  0.00000000000E+00 0. -1.
         21   -1    0    0  504  502 -0.00000000000E+00 -0.00000000000E+00 -0.37198020259E+03  0.37198020259E+03  0.00000000000E+00 0. -1.
         21    1    1    2  503  505  0.81625753996E+02 -0.46881262993E+02  0.33041455885E+03  0.34356134421E+03  0.00000000000E+00 0. -1.
         21    1    1    2  504  501 -0.84815712601E+01 -0.29683558456E+02 -0.26105280085E+02  0.40429399476E+02  0.00000000000E+00 0. -1.
         21    1    1    2  505  506  0.60668702201E+02  0.93332009672E+01  0.16889511092E+03  0.17970352963E+03  0.00000000000E+00 0. -1.
         21    1    1    2  506  502 -0.13381288494E+03  0.67231620482E+02 -0.30957612488E+03  0.34389439667E+03  0.00000000000E+00 0. -1.
<scales pt_clust_3="42.91745" pt_clust_4="30.87152" pt_clust_5="42.91745" pt_clust_6="147.14697"></scales>
<clustering>
<clus scale="   30.872">  2  4  1 -1</clus>
<clus scale="   42.917">  3  5 -1 -1</clus>
<clus scale="  147.147">  2  6  1 -1</clus>
<clus scale="  156.495">  1  3  2 -1</clus>
</clustering>
</event>
<event>
 6    0  0.3042851E+002  0.1731046E+03  0.7546771E-02  0.1174648E+00
         21   -1    0    0  503  501  0.00000000000E+00  0.00000000000E+00  0.64681639766E+03  0.64681639766E+03  0.00000000000E+00 0.  1.
         21   -1    0    0  506  502 -0.00000000000E+00 -0.00000000000E+00 -0.11462090961E+04  0.11462090961E+04  0.00000000000E+00 0. -1.
         21    1    1    2  503  505  0.71595172257E+02 -0.70390695751E+02 -0.73910446944E+02  0.12467346513E+03  0.00000000000E+00 0. -1.
         21    1    1    2  504  501 -0.16611025253E+03 -0.52132233510E+02  0.59338276664E+03  0.61839590353E+03  0.00000000000E+00 0.  1.
         21    1    1    2  505  502  0.24112954267E+02  0.34359787309E+02 -0.23282353812E+02  0.48001016098E+02  0.00000000000E+00 0. -1.
         21    1    1    2  506  504  0.70402126009E+02  0.88163141952E+02 -0.99558266435E+03  0.10019551090E+04  0.00000000000E+00 0. -1.
<scales pt_clust_3="99.85501" pt_clust_4="14000.00000" pt_clust_5="41.97654" pt_clust_6="173.10464"></scales>
<clustering>
<clus scale="   41.977">  2  5  1 -1</clus>
<clus scale="   99.855">  2  3  1 -1</clus>
<clus scale="  173.105">  2  6  1 -1</clus>
<clus scale="  173.105">  1  3  2 -1</clus>
</clustering>
</event>
<event>
 6    0  0.3042851E+002  0.1335423E+03  0.7546771E-02  0.1222292E+00
         21   -1    0    0  502  501  0.00000000000E+00  0.00000000000E+00  0.12950733066E+04  0.12950733066E+04  0.00000000000E+00 0. -1.
         21   -1    0    0  503  502 -0.00000000000E+00 -0.00000000000E+00 -0.34775861438E+03  0.34775861438E+03  0.00000000000E+00 0.  1.
         21    1    1    2  503  505  0.23405992152E+02  0.51453175771E+02 -0.26396921331E+03  0.26995372815E+03  0.00000000000E+00 0.  1.
         21    1    1    2  504  506 -0.34700537884E+01 -0.38529276484E+02  0.52116788589E+03  0.52260167595E+03  0.00000000000E+00 0. -1.
         21    1    1    2  505  504  0.39417147377E+02  0.59389824660E+02 -0.60718964136E+02  0.93635759122E+02  0.00000000000E+00 0. -1.
         21    1    1    2  506  501 -0.59353085741E+02 -0.72313723947E+02  0.75083498381E+03  0.75664075780E+03  0.00000000000E+00 0. -1.
<scales pt_clust_3="56.52672" pt_clust_4="30.41421" pt_clust_5="124.88618" pt_clust_6="30.41421"></scales>
<clustering>
<clus scale="   30.414">  4  6 -1 -1</clus>
<clus scale="   56.527">  2  3  1 -1</clus>
<clus scale="  124.886">  2  5  1 -1</clus>
<clus scale="  133.542">  1  3  2 -1</clus>
</clustering>
</event>
<event>
 6    0  0.3042851E+002  0.1542192E+03  0.7546771E-02  0.1195382E+00
         21   -1    0    0  506  501  0.00000000000E+00  0.00000000000E+00  0.80747788917E+03  0.80747788917E+03  0.00000000000E+00 0. -1.
         21   -1    0    0  501  502 -0.00000000000E+00 -0.00000000000E+00 -0.76661195795E+02  0.76661195795E+02  0.00000000000E+00 0.  1.
         21    1    1    2  503  505 -0.48179111181E+02  0.13115230640E+03  0.28849143662E+02  0.14266894308E+03  0.00000000000E+00 0.  1.
         21    1    1    2  504  503  0.15666287759E+02 -0.55115987704E+02  0.18448598982E+03  0.19317941172E+03  0.00000000000E+00 0. -1.
         21    1    1    2  505  502  0.31962010637E+02  0.18771196270E+02  0.20522312692E+02  0.42368540825E+02  0.00000000000E+00 0.  1.
         21    1    1    2  506  504  0.55081278484E+00 -0.94807514969E+02  0.49695924720E+03  0.50592218934E+03  0.00000000000E+00 0. -1.
<scales pt_clust_3="148.82264" pt_clust_4="31.43834" pt_clust_5="37.06653" pt_clust_6="31.43834"></scales>
<clustering>
<clus scale="   31.438">  4  6 -1 -1</clus>
<clus scale="   37.067">  2  5  1 -1</clus>
<clus scale="  148.823">  2  3  1 -1</clus>
<clus scale="  154.219">  1  3  2 -1</clus>
</clustering>
</event>
<event>
 6    0  0.3042851E+002  0.8266190E+02  0.7546771E-02  0.1321663E+00
         21   -1    0    0  503  501  0.00000000000E+00  0.00000000000E+00  0.22240444242E+03  0.22240444242E+03  0.00000000000E+00 0.  1.
         21   -1    0    0  506  502 -0.00000000000E+00 -0.00000000000E+00 -0.62154666471E+03  0.62154666471E+03  0.00000000000E+00 0.  1.
         21    1    1    2  503  502  0.55589750297E+02  0.60179766054E+02  0.14844876824E+03  0.16955489191E+03  0.00000000000E+00 0.  1.
         21    1    1    2  504  501 -0.82071527763E+02 -0.41386123222E+02 -0.28229441041E+02  0.96153253748E+02  0.00000000000E+00 0. -1.
         21    1    1    2  505  504  0.80789699690E+02  0.35784544680E+02 -0.47846123950E+02  0.10048263925E+03  0.00000000000E+00 0.  1.
         21    1    1    2  506  505 -0.54307922224E+02 -0.54578187513E+02 -0.47151542553E+03  0.47776032221E+03  0.00000000000E+00 0.  1.
<scales pt_clust_3="14000.00000" pt_clust_4="82.66190" pt_clust_5="54.00433" pt_clust_6="76.99434"></scales>
<clustering>
<clus scale="   76.994">  2  6  1 -1</clus>
<clus scale="   54.004">  2  5  1 -1</clus>
<clus scale="   82.662">  2  4  1 -1</clus>
<clus scale="   82.662">  1  3  2 -1</clus>
</clustering>
</event>
<event>
 6    0  0.3042851E+002  0.1460884E+03  0.7546771E-02  0.1205364E+00
         21   -1    0    0  503  501  0.00000000000E+00  0.00000000000E+00  0.25497437474E+04  0.25497437474E+04  0.00000000000E+00 0. -1.
         21   -1    0    0  505  502 -0.00000000000E+00 -0.00000000000E+00 -0.23928367263E+03  0.23928367263E+03  0.00000000000E+00 0.  1.
         21    1    1    2  503  502 -0.31271004219E+02 -0.32274193016E+02  0.27144439705E+03  0.27513916466E+03  0.00000000000E+00 0. -1.
         21    1    1    2  504  501 -0.72258150327E+02 -0.62980391654E+02  0.22527319365E+04  0.22547702650E+04  0.00000000000E+00 0. -1.
         21    1    1    2  505  506  0.48744974850E+02  0.59032062414E+02 -0.14558019346E+03  0.16448236895E+03  0.00000000000E+00 0.  1.
         21    1    1    2  506  504  0.54784179695E+02  0.36222522256E+02 -0.68136065289E+02  0.94635621499E+02  0.00000000000E+00 0.  1.
<scales pt_clust_3="44.93884" pt_clust_4="140.23566" pt_clust_5="37.91592" pt_clust_6="37.91592"></scales>
<clustering>
<clus scale="   37.916">  5  6 -1 -1</clus>
<clus scale="   44.939">  1  3  2 -1</clus>
<clus scale="  140.236">  1  4  2 -1</clus>
<clus scale="   44.939">  1  3  2 -1</clus>
</clustering>
</event>
<event>
 6    0  0.3042851E+002  0.1216195E+03  0.7546771E-02  0.1240449E+00
         21   -1    0    0  504  501  0.00000000000E+00  0.00000000000E+00  0.11921910742E+03  0.11921910742E+03  0.00000000000E+00 0. -1.
         21   -1    0    0  505  502 -0.00000000000E+00 -0.00000000000E+00 -0.23851916073E+03  0.23851916073E+03  0.00000000000E+00 0. -1.
         21    1    1    2  503  502  0.36347405250E+02 -0.40801638594E+02 -0.39567155262E+02  0.67464563705E+02  0.00000000000E+00 0. -1.
         21    1    1    2  504  503  0.19320555386E+02 -0.59243068286E+02  0.72101124013E+01  0.62729663806E+02  0.00000000000E+00 0. -1.
         21    1    1    2  505  506 -0.86455077365E+02  0.68090599261E+02 -0.12680237629E+03  0.16789774490E+03  0.00000000000E+00 0. -1.
         21    1    1    2  506  501  0.30787116729E+02  0.31954107619E+02  0.39859365840E+02  0.59646295739E+02  0.00000000000E+00 0. -1.
<scales pt_clust_3="52.51032" pt_clust_4="52.51032" pt_clust_5="109.52447" pt_clust_6="44.37242"></scales>
<clustering>
<clus scale="   44.372">  1  6  2 -1</clus>
<clus scale="   52.510">  3  4 -1 -1</clus>
<clus scale="  109.524">  2  5  1 -1</clus>
<clus scale="   44.372">  1  3  2 -1</clus>
</clustering>
</event>
<event>
 6    0  0.3042851E+002  0.2407790E+03  0.7546771E-02  0.1119275E+00
         21   -1    0    0  503  501  0.00000000000E+00  0.00000000000E+00  0.17068910012E+03  0.17068910012E+03  0.00000000000E+00 0.  1.
         21   -1    0    0  506  502 -0.00000000000E+00 -0.00000000000E+00 -0.84430288745E+03  0.84430288745E+03  0.00000000000E+00 0.  1.
         21    1    1    2  503  504  0.63739980464E+02 -0.19998125258E+02 -0.32624664660E+03  0.33301589232E+03  0.00000000000E+00 0. -1.
         21    1    1    2  504  502  0.15666046113E+03 -0.47700389497E+02 -0.40516942681E+03  0.43701269051E+03  0.00000000000E+00 0.  1.
         21    1    1    2  505  501 -0.87656329244E+02  0.55951705315E+02  0.15453087247E+02  0.10513335955E+03  0.00000000000E+00 0.  1.
         21    1    1    2  506  505 -0.13274411235E+03  0.11746809441E+02  0.42349198835E+02  0.13983004519E+03  0.00000000000E+00 0.  1.
<scales pt_clust_3="44.31967" pt_clust_4="44.31967" pt_clust_5="52.30974" pt_clust_6="238.04614"></scales>
<clustering>
<clus scale="   44.320">  3  4 -1 -1</clus>
<clus scale="   52.310">  5  6 -1 -1</clus>
<clus scale="  238.046">  1  5  2 -1</clus>
<clus scale="  238.046">  1  3  2 -1</clus>
</clustering>
</event>
<event>
 6    0  0.3042851E+002  0.2228370E+03  0.7546771E-02  0.1131785E+00
         21   -1    0    0  505  501  0.00000000000E+00  0.00000000000E+00  0.15175984022E+03  0.15175984022E+03  0.00000000000E+00 0.  1.
         21   -1    0    0  503  502 -0.00000000000E+00 -0.00000000000E+00 -0.49263646284E+03  0.49263646284E+03  0.00000000000E+00 0.  1.
         21    1    1    2  503  504 -0.22393149689E+03  0.38275582544E+02 -0.15911002236E+03  0.27735597116E+03  0.00000000000E+00 0.  1.
         21    1    1    2  504  506 -0.25546978319E+02 -0.27270068365E+02 -0.37002678279E+02  0.52588049305E+02  0.00000000000E+00 0.  1.
         21    1    1    2  505  502  0.65209946631E+02 -0.20495741935E+02 -0.10565751965E+03  0.12584086790E+03  0.00000000000E+00 0.  1.
         21    1    1    2  506  501  0.18426852858E+03  0.94902277564E+01 -0.39106402330E+02  0.18861141469E+03  0.00000000000E+00 0.  1.
<scales pt_clust_3="36.37050" pt_clust_4="36.37050" pt_clust_5="68.35505" pt_clust_6="203.99534"></scales>
<clustering>
<clus scale="   36.370">  3  4 -1 -1</clus>
<clus scale="   68.355">  2  5  1 -1</clus>
<clus scale="  203.995">  1  6  2 -1</clus>
<clus scale="  203.995">  1  3  2 -1</clus>
</clustering>
</event>
<event>
 6    0  0.3042851E+002  0.1211035E+03  0.7546771E-02  0.1241288E+00
         21   -1    0    0  506  501  0.00000000000E+00  0.00000000000E+00  0.20239607834E+03  0.20239607834E+03  0.00000000000E+00 0. -1.
         21   -1    0    0  503  502 -0.00000000000E+00 -0.00000000000E+00 -0.90469967554E+03  0.90469967554E+03  0.00000000000E+00 0. -1.
         21    1    1    2  503  504 -0.17726713203E+02  0.56884033933E+02 -0.65645925841E+03  0.65915763488E+03  0.00000000000E+00 0. -1.
         21    1    1    2  504  505 -0.13283645471E+03 -0.74748162848E+02  0.96915893482E+02  0.18062530819E+03  0.00000000000E+00 0. -1.
         21    1    1    2  505  501  0.88566920798E+02  0.29215242323E+02  0.17693225448E+02  0.94924602029E+02  0.00000000000E+00 0. -1.
         21    1    1    2  506  502  0.61996247110E+02 -0.11351113407E+02 -0.16045345772E+03  0.17238820878E+03  0.00000000000E+00 0. -1.
<scales pt_clust_3="59.58213" pt_clust_4="121.10354" pt_clust_5="14000.00000" pt_clust_6="56.86231"></scales>
<clustering>
<clus scale="   59.582">  2  3  1 -1</clus>
<clus scale="   56.862">  2  6  1 -1</clus>
<clus scale="  121.104">  2  4  1 -1</clus>
<clus scale="  121.104">  1  3  2 -1</clus>
</clustering>
</event>
<event>
 6    0  0.3042851E+002  0.1184309E+03  0.7546771E-02  0.1245708E+00
         21   -1    0    0  506  501  0.00000000000E+00  0.00000000000E+00  0.71575506798E+02  0.71575506798E+02  0.00000000000E+00 0. -1.
         21   -1    0    0  505  502 -0.00000000000E+00 -0.00000000000E+00 -0.40551159244E+03  0.40551159244E+03  0.00000000000E+00 0. -1.
         21    1    1    2  503  501 -0.76991318369E+02 -0.53498322972E+02 -0.11488417730E+03  0.14828387592E+03  0.00000000000E+00 0. -1.
         21    1    1    2  504  502  0.37385622626E+02  0.64589007911E+02 -0.16530861113E+02  0.76437517564E+02  0.00000000000E+00 0. -1.
         21    1    1    2  505  503 -0.10099860899E+02 -0.30484576356E+02 -0.19600012628E+03  0.19861361003E+03  0.00000000000E+00 0.  1.
         21    1    1    2  506  504  0.49705556641E+02  0.19393891417E+02 -0.65209209552E+01  0.53752095731E+02  0.00000000000E+00 0. -1.
<scales pt_clust_3="110.66137" pt_clust_4="36.46434" pt_clust_5="32.11412" pt_clust_6="36.46434"></scales>
<clustering>
<clus scale="   32.114">  2  5  1 -1</clus>
<clus scale="   36.464">  4  6 -1 -1</clus>
<clus scale="  110.661">  2  3  1 -1</clus>
<clus scale="  118.431">  1  3  2 -1</clus>
</clustering>
</event>
<event>
 6    0  0.3042851E+002  0.9479514E+02  0.7546771E-02  0.1291638E+00
         21   -1    0    0  505  501  0.00000000000E+00  0.00000000000E+00  0.22234482998E+04  0.22234482998E+04  0.00000000000E+00 0.  1.
         21   -1    0    0  503  502 -0.00000000000E+00 -0.00000000000E+00 -0.11227513655E+03  0.11227513655E+03  0.00000000000E+00 0. -1.
         21    1    1    2  503  504 -0.39182883285E+02 -0.27155785335E+02  0.32218858374E+01  0.47781958604E+02  0.00000000000E+00 0. -1.
         21    1    1    2  504  501 -0.58142832405E+02  0.53548710880E+02  0.92117068060E+03  0.92455582643E+03  0.00000000000E+00 0.  1.
         21    1    1    2  505  506  0.97234911556E+02  0.35866427342E+02  0.12617135678E+04  0.12659629362E+04  0.00000000000E+00 0.  1.
         21    1    1    2  506  502  0.90804133870E-01 -0.62259352887E+02 -0.74932971026E+02  0.97422715083E+02  0.00000000000E+00 0. -1.
<scales pt_clust_3="47.67321" pt_clust_4="79.24553" pt_clust_5="14000.00000" pt_clust_6="94.79514"></scales>
<clustering>
<clus scale="   47.673">  2  3  1 -1</clus>
<clus scale="   79.246">  1  4  2 -1</clus>
<clus scale="   94.795">  2  6  1 -1</clus>
<clus scale="   79.246">  1  3  2 -1</clus>
</clustering>
</event>
<event>
 6    0  0.3042851E+002  0.1902402E+03  0.7546771E-02  0.1158245E+00
         21   -1    0    0  506  501  0.00000000000E+00  0.00000000000E+00  0.46013531864E+03  0.46013531864E+03  0.00000000000E+00 0. -1.
         21   -1    0    0  505  502 -0.00000000000E+00 -0.00000000000E+00 -0.24638287960E+03  0.24638287960E+03  0.00000000000E+00 0.  1.
         21    1    1    2  503  502 -0.96835123994E+02 -0.98659764614E+01 -0.44197188320E+02  0.10690074923E+03  0.00000000000E+00 0.  1.
         21    1    1    2  504  503 -0.13173204847E+03  0.11845635808E+03 -0.39754943178E+02  0.18156458044E+03  0.00000000000E+00 0.  1.
         21    1    1    2  505  501  0.76676518593E+02  0.11992919251E+02  0.21445193286E+02  0.80517171651E+02  0.00000000000E+00 0. -1.
         21    1    1    2  506  504  0.15189065387E+03 -0.12058330087E+03  0.27625937725E+03  0.33753569692E+03  0.00000000000E+00 0. -1.
<scales pt_clust_3="70.35149" pt_clust_4="190.24024" pt_clust_5="77.60875" pt_clust_6="14000.00000"></scales>
<clustering>
<clus scale="   77.609">  2  5  1 -1</clus>
<clus scale="   70.351">  2  3  1 -1</clus>
<clus scale="  190.240">  2  4  1 -1</clus>
<clus scale="  190.240">  1  3  2 -1</clus>
</clustering>
</event>
<event>
 6    0  0.3042851E+002  0.1030532E+03  0.7546771E-02  0.1274003E+00
         21   -1    0    0  504  501  0.00000000000E+00  0.00000000000E+00  0.54235089039E+03  0.54235089039E+03  0.00000000000E+00 0. -1.
         21   -1    0    0  503  502 -0.00000000000E+00 -0.00000000000E+00 -0.87726654379E+02  0.87726654379E+02  0.00000000000E+00 0.  1.
         21    1    1    2  503  506  0.41504753488E+02  0.28255149448E+02 -0.22282976166E+02  0.54932040371E+02  0.00000000000E+00 0.  1.
         21    1    1    2  504  502  0.26529165280E+01 -0.75646666033E+02  0.38094864991E+03  0.38839584178E+03  0.00000000000E+00 0. -1.
         21    1    1    2  505  501  0.12553516005E+02 -0.38162295472E+02  0.70265934960E+02  0.80939812055E+02  0.00000000000E+00 0. -1.
         21    1    1    2  506  505 -0.56711186022E+02  0.85553812057E+02  0.25692627310E+02  0.10580985056E+03  0.00000000000E+00 0.  1.
<scales pt_clust_3="49.83967" pt_clust_4="103.05322" pt_clust_5="40.17402" pt_clust_6="14000.00000"></scales>
<clustering>
<clus scale="   40.174">  1  5  2 -1</clus>
<clus scale="   49.840">  2  3  1 -1</clus>
<clus scale="  103.053">  1  4  2 -1</clus>
<clus scale="   40.174">  1  3  2 -1</clus>
</clustering>
</event>
<event>
 6    0  0.3042851E+002  0.8158111E+02  0.7546771E-02  0.1324623E+00
         21   -1    0    0  503  501  0.00000000000E+00  0.00000000000E+00  0.80842919808E+03  0.80842919808E+03  0.00000000000E+00 0. -1.
         21   -1    0    0  504  502 -0.00000000000E+00 -0.00000000000E+00 -0.26482544726E+03  0.26482544726E+03  0.00000000000E+00 0. -1.
         21    1    1    2  503  505 -0.15494688962E+02 -0.73824856740E+02  0.98688540740E+02  0.12421603331E+03  0.00000000000E+00 0. -1.
         21    1    1    2  504  506  0.43307998191E+01  0.81677893875E+02 -0.22378966337E+03  0.23826843603E+03  0.00000000000E+00 0. -1.
         21    1    1    2  505  502  0.62704379689E+02  0.53465594109E+02  0.74182595823E+02  0.11087590590E+03  0.00000000000E+00 0. -1.
         21    1    1    2  506  501 -0.51540490546E+02 -0.61318631244E+02  0.59452227762E+03  0.59989427010E+03  0.00000000000E+00 0. -1.
<scales pt_clust_3="75.43338" pt_clust_4="14000.00000" pt_clust_5="74.73092" pt_clust_6="81.58111"></scales>
<clustering>
<clus scale="   75.433">  1  3  2 -1</clus>
<clus scale="   74.731">  1  5  2 -1</clus>
<clus scale="   81.581">  1  6  2 -1</clus>
<clus scale="   75.433">  1  3  2 -1</clus>
</clustering>
</event>
<event>
 6    0  0.3042851E+002  0.9317688E+02  0.7546771E-02  0.1295336E+00
         21   -1    0    0  505  501  0.00000000000E+00  0.00000000000E+00  0.80274236324E+03  0.80274236324E+03  0.00000000000E+00 0.  1.
         21   -1    0    0  503  502 -0.00000000000E+00 -0.00000000000E+00 -0.21587731902E+03  0.21587731902E+03  0.00000000000E+00 0.  1.
         21    1    1    2  503  501 -0.24804792667E+02 -0.30481000138E+02  0.54219126881E+02  0.66963294635E+02  0.00000000000E+00 0.  1.
         21    1    1    2  504  502 -0.29775496522E+02 -0.32997016269E+02 -0.12555003515E+03  0.13318481370E+03  0.00000000000E+00 0.  1.
         21    1    1    2  505  506  0.61843068433E+02  0.12041022809E+03  0.72088155819E+03  0.73348033995E+03  0.00000000000E+00 0.  1.
         21    1    1    2  506  504 -0.72627792438E+01 -0.56932211682E+02 -0.62685605714E+02  0.84991233978E+02  0.00000000000E+00 0.  1.
<scales pt_clust_3="39.29846" pt_clust_4="44.64716" pt_clust_5="14000.00000" pt_clust_6="93.17688"></scales>
<clustering>
<clus scale="   39.298">  1  3  2 -1</clus>
<clus scale="   44.647">  2  4  1 -1</clus>
<clus scale="   93.177">  2  6  1 -1</clus>
<clus scale="   39.298">  1  3  2 -1</clus>
</clustering>
</event>
<event>
 6    0  0.3042851E+002  0.1005396E+03  0.7546771E-02  0.1279165E+00
         21   -1    0    0  505  501  0.00000000000E+00  0.00000000000E+00  0.54502447619E+02  0.54502447619E+02  0.00000000000E+00 0. -1.
         21   -1    0    0  504  502 -0.00000000000E+00 -0.00000000000E+00 -0.12927884485E+04  0.12927884485E+04  0.00000000000E+00 0.  1.
         21    1    1    2  503  501  0.47415808071E+02  0.11831650018E+02 -0.54572961438E+02  0.73256091332E+02  0.00000000000E+00 0.  1.
         21    1    1    2  504  503  0.15582965966E+02 -0.30516255972E+02 -0.89404279702E+02  0.95745474754E+02  0.00000000000E+00 0.  1.
         21    1    1    2  505  506  0.19849322954E+02  0.70601338900E+02  0.60572081174E+01  0.73588276555E+02  0.00000000000E+00 0. -1.
         21    1    1    2  506  502 -0.82848096990E+02 -0.51916732946E+02 -0.11003659678E+04  0.11047010535E+04  0.00000000000E+00 0.  1.
<scales pt_clust_3="49.31345" pt_clust_4="34.26472" pt_clust_5="100.53962" pt_clust_6="14000.00000"></scales>
<clustering>
<clus scale="   34.265">  2  4  1 -1</clus>
<clus scale="   49.313">  1  3  2 -1</clus>
<clus scale="  100.540">  1  5  2 -1</clus>
<clus scale="   49.313">  1  3  2 -1</clus>
</clustering>
</event>
<event>
 6    0  0.3042851E+002  0.1410393E+03  0.7546771E-02  0.1211937E+00
         21   -1    0    0  505  501  0.00000000000E+00  0.00000000000E+00  0.17429934222E+03  0.17429934222E+03  0.00000000000E+00 0. -1.
         21   -1    0    0  506  502 -0.00000000000E+00 -0.00000000000E+00 -0.38911534654E+04  0.38911534654E+04  0.00000000000E+00 0.  1.
         21    1    1    2  503  504 -0.46107592037E+02  0.81238411213E+02 -0.15355975456E+04  0.15384360277E+04  0.00000000000E+00 0.  1.
         21    1    1    2  504  501  0.10593721886E+03 -0.21904992347E+03  0.63656799211E+01  0.24340518728E+03  0.00000000000E+00 0. -1.
         21    1    1    2  505  502 -0.18707632282E+02  0.10523644293E+03 -0.12226456504E+02  0.10758331964E+03  0.00000000000E+00 0. -1.
         21    1    1    2  506  503 -0.41121994543E+02  0.32575069325E+02 -0.21753958010E+04  0.21760282729E+04  0.00000000000E+00 0.  1.
<scales pt_clust_3="141.03935" pt_clust_4="14000.00000" pt_clust_5="108.26446" pt_clust_6="52.46097"></scales>
<clustering>
<clus scale="   52.461">  2  6  1 -1</clus>
<clus scale="  108.264">  1  5  2 -1</clus>
<clus scale="  141.039">  2  3  1 -1</clus>
<clus scale="  108.264">  1  3  2 -1</clus>
</clustering>
</event>
<event>
 6    0  0.3042851E+002  0.1499590E+03  0.7546771E-02  0.1200523E+00
         21   -1    0    0  502  501  0.00000000000E+00  0.00000000000E+00  0.53163768214E+03  0.53163768214E+03  0.00000000000E+00 0.  1.
         21   -1    0    0  506  502 -0.00000000000E+00 -0.00000000000E+00 -0.42034361562E+02  0.42034361562E+02  0.00000000000E+00 0.  1.
         21    1    1    2  503  505 -0.65329395327E+02  0.13575110248E+02  0.90451457844E+02  0.11239964296E+03  0.00000000000E+00 0.  1.
         21    1    1    2  504  501  0.10053760187E+03  0.14239573973E+02  0.14492889767E+03  0.17696033520E+03  0.00000000000E+00 0.  1.
         21    1    1    2  505  504  0.40499559914E+02 -0.14860913363E+00  0.13057484481E+03  0.13671147185E+03  0.00000000000E+00 0.  1.
         21    1    1    2  506  503 -0.75707766459E+02 -0.27666075088E+02  0.12364812026E+03  0.14760059368E+03  0.00000000000E+00 0. -1.
<scales pt_clust_3="37.19736" pt_clust_4="30.92425" pt_clust_5="30.92425" pt_clust_6="147.51777"></scales>
<clustering>
<clus scale="   30.924">  4  5 -1 -1</clus>
<clus scale="   37.197">  3  6 -1 -1</clus>
<clus scale="  147.518">  2  3  1 -1</clus>
<clus scale="  149.959">  1  3  2 -1</clus>
</clustering>
</event>
<event>
 6    0  0.3042851E+002  0.2431313E+03  0.7546771E-02  0.1117724E+00
         21   -1    0    0  503  501  0.00000000000E+00  0.00000000000E+00  0.15427867699E+03  0.15427867699E+03  0.00000000000E+00 0.  1.
         21   -1    0    0  505  502 -0.00000000000E+00 -0.00000000000E+00 -0.37069824841E+03  0.37069824841E+03  0.00000000000E+00 0.  1.
         21    1    1    2  503  504  0.82923485480E+02 -0.84478191022E+02 -0.20019223681E+02  0.12005681371E+03  0.00000000000E+00 0.  1.
         21    1    1    2  504  502  0.46648209920E+02 -0.10059224768E+03 -0.57367810988E+02  0.12484358822E+03  0.00000000000E+00 0.  1.
         21    1    1    2  505  506 -0.94312845959E+02  0.85578846417E+02 -0.11550784085E+03  0.17193229238E+03  0.00000000000E+00 0.  1.
         21    1    1    2  506  501 -0.35258849441E+02  0.99491592286E+02 -0.23524695903E+02  0.10814423108E+03  0.00000000000E+00 0.  1.
<scales pt_clust_3="232.35200" pt_clust_4="52.54490" pt_clust_5="81.79941" pt_clust_6="81.79941"></scales>
<clustering>
<clus scale="   52.545">  3  4 -1 -1</clus>
<clus scale="   81.799">  5  6 -1 -1</clus>
<clus scale="  232.352">  1  3  2 -1</clus>
<clus scale="  232.352">  1  3  2 -1</clus>
</clustering>
</event>
<event>
 6    0  0.3042851E+002  0.2574851E+03  0.7546771E-02  0.1108664E+00
         21   -1    0    0  504  501  0.00000000000E+00  0.00000000000E+00  0.55413384207E+03  0.55413384207E+03  0.00000000000E+00 0.  1.
         21   -1    0    0  503  502 -0.00000000000E+00 -0.00000000000E+00 -0.24665106740E+03  0.24665106740E+03  0.00000000000E+00 0. -1.
         21    1    1    2  503  505  0.12309118730E+03  0.26024865402E+02 -0.30828187908E+02  0.12953420853E+03  0.00000000000E+00 0. -1.
         21    1    1    2  504  506 -0.12545251069E+03  0.35042725030E+01  0.16126416352E+03  0.20434466667E+03  0.00000000000E+00 0.  1.
         21    1    1    2  505  501  0.77691182624E+02 -0.15885602693E+03 -0.59851324017E+02  0.18669048753E+03  0.00000000000E+00 0. -1.
         21    1    1    2  506  502 -0.75329859236E+02  0.12932688902E+03  0.23689812308E+03  0.28021554674E+03  0.00000000000E+00 0.  1.
<scales pt_clust_3="125.81230" pt_clust_4="123.90228" pt_clust_5="219.06819" pt_clust_6="123.90228"></scales>
<clustering>
<clus scale="  123.902">  4  6 -1 -1</clus>
<clus scale="  125.812">  2  3  1 -1</clus>
<clus scale="  219.068">  2  5  1 -1</clus>
<clus scale="  257.485">  1  3  2 -1</clus>
</clustering>
</event>
<event>
 6    0  0.3042851E+002  0.1523850E+03  0.7546771E-02  0.1197573E+00
         21   -1    0    0  505  501  0.00000000000E+00  0.00000000000E+00  0.42316896719E+03  0.42316896719E+03  0.00000000000E+00 0.  1.
         21   -1    0    0  503  502 -0.00000000000E+00 -0.00000000000E+00 -0.80345819127E+02  0.80345819127E+02  0.00000000000E+00 0.  1.
         21    1    1    2  503  504 -0.17012515523E+02 -0.13360851697E+03  0.46387146235E+02  0.14245149640E+03  0.00000000000E+00 0.  1.
         21    1    1    2  504  501  0.29858275882E+02 -0.21864677052E+02  0.38491454640E+02  0.53396374611E+02  0.00000000000E+00 0. -1.
         21    1    1    2  505  506 -0.33378875141E+01  0.33903133733E+02  0.11416992975E+03  0.11914418504E+03  0.00000000000E+00 0. -1.
         21    1    1    2  506  502 -0.95078728446E+01  0.12157006029E+03  0.14377461743E+03  0.18852273026E+03  0.00000000000E+00 0.  1.
<scales pt_clust_3="139.40798" pt_clust_4="37.00785" pt_clust_5="32.52501" pt_clust_6="32.52501"></scales>
<clustering>
<clus scale="   32.525">  5  6 -1 -1</clus>
<clus scale="   37.008">  1  4  2 -1</clus>
<clus scale="  139.408">  2  3  1 -1</clus>
<clus scale="   37.008">  1  3  2 -1</clus>
</clustering>
</event>
<event>
 6    0  0.3042851E+002  0.1876805E+03  0.7546771E-02  0.1160570E+00
         21   -1    0    0  506  501  0.00000000000E+00  0.00000000000E+00  0.79118182787E+03  0.79118182787E+03  0.00000000000E+00 0. -1.
         21   -1    0    0  505  502 -0.00000000000E+00 -0.00000000000E+00 -0.24557910720E+03  0.24557910720E+03  0.00000000000E+00 0. -1.
         21    1    1    2  503  501  0.28463274362E+02 -0.32745937293E+02  0.33122496919E+02  0.54585292879E+02  0.00000000000E+00 0.  1.
         21    1    1    2  504  502 -0.68568347455E+02  0.84788397725E+02  0.24215992975E+03  0.26557884374E+03  0.00000000000E+00 0.  1.
         21    1    1    2  505  503  0.76304088235E+02 -0.15110290490E+03 -0.18410209227E+03  0.25009594584E+03  0.00000000000E+00 0. -1.
         21    1    1    2  506  504 -0.36199015142E+02  0.99060444464E+02  0.45442238626E+03  0.46650085261E+03  0.00000000000E+00 0. -1.
<scales pt_clust_3="43.38726" pt_clust_4="71.43372" pt_clust_5="171.13387" pt_clust_6="71.43372"></scales>
<clustering>
<clus scale="   43.387">  1  3  2 -1</clus>
<clus scale="   71.434">  4  6 -1 -1</clus>
<clus scale="  171.134">  2  5  1 -1</clus>
<clus scale="   43.387">  1  3  2 -1</clus>
</clustering>
</event>
<event>
 6    0  0.3042851E+002  0.1624237E+03  0.7546771E-02  0.1185987E+00
         21   -1    0    0  503  501  0.00000000000E+00  0.00000000000E+00  0.75655410117E+03  0.75655410117E+03  0.00000000000E+00 0.  1.
         21   -1    0    0  504  502 -0.00000000000E+00 -0.00000000000E+00 -0.87755200530E+02  0.87755200530E+02  0.00000000000E+00 0.  1.
         21    1    1    2  503  502  0.10338121513E+03 -0.14073468646E+03  0.23488168651E+03  0.29268299280E+03  0.00000000000E+00 0.  1.
         21    1    1    2  504  506 -0.15624059704E+03  0.56476801190E+02  0.13449803527E+03  0.21375330342E+03  0.00000000000E+00 0.  1.
         21    1    1    2  505  501  0.45147304261E+02 -0.36079830085E+01  0.19957029085E+03  0.20464505274E+03  0.00000000000E+00 0.  1.
         21    1    1    2  506  505  0.77120776432E+01  0.87865868284E+02  0.99848888012E+02  0.13322795273E+03  0.00000000000E+00 0.  1.
<scales pt_clust_3="14000.00000" pt_clust_4="162.42374" pt_clust_5="45.29124" pt_clust_6="88.78970"></scales>
<clustering>
<clus scale="   45.291">  1  5  2 -1</clus>
<clus scale="   88.790">  1  6  2 -1</clus>
<clus scale="  162.424">  2  4  1 -1</clus>
<clus scale="   45.291">  1  3  2 -1</clus>
</clustering>
</event>
<event>
 6    0  0.3042851E+002  0.1125507E+03  0.7546771E-02  0.1255918E+00
         21   -1    0    0  503  501  0.00000000000E+00  0.00000000000E+00  0.12317811667E+04  0.12317811667E+04  0.00000000000E+00 0.  1.
         21   -1    0    0  506  502 -0.00000000000E+00 -0.00000000000E+00 -0.11119645820E+03  0.11119645820E+03  0.00000000000E+00 0.  1.
         21    1    1    2  503  504  0.86837485790E+02  0.31907240350E+01  0.82085534457E+03  0.82544195821E+03  0.00000000000E+00 0.  1.
         21    1    1    2  504  505 -0.11683334048E+03  0.83074850015E+02 -0.33635350271E+02  0.14725079606E+03  0.00000000000E+00 0.  1.
         21    1    1    2  505  502  0.31875756344E+02 -0.74894641652E+01  0.56473940017E+01  0.33227232430E+02  0.00000000000E+00 0.  1.
         21    1    1    2  506  501 -0.18799016579E+01 -0.78776109885E+02  0.32771732018E+03  0.33705763819E+03  0.00000000000E+00 0.  1.
<scales pt_clust_3="112.55074" pt_clust_4="14000.00000" pt_clust_5="32.74379" pt_clust_6="79.13597"></scales>
<clustering>
<clus scale="   32.744">  2  5  1 -1</clus>
<clus scale="   79.136">  1  6  2 -1</clus>
<clus scale="  112.551">  1  3  2 -1</clus>
<clus scale="   79.136">  1  3  2 -1</clus>
</clustering>
</event>
<event>
 6    0  0.3042851E+002  0.1185893E+03  0.7546771E-02  0.1245443E+00
         21   -1    0    0  504  501  0.00000000000E+00  0.00000000000E+00  0.45206762961E+03  0.45206762961E+03  0.00000000000E+00 0. -1.
         21   -1    0    0  505  502 -0.00000000000E+00 -0.00000000000E+00 -0.11117109041E+04  0.11117109041E+04  0.00000000000E+00 0.  1.
         21    1    1    2  503  501  0.55434315004E+02  0.39635802498E+02  0.33201797983E+03  0.33893937371E+03  0.00000000000E+00 0. -1.
         21    1    1    2  504  502 -0.10125580869E+03 -0.61864186218E+02 -0.95983169232E+03  0.96713845643E+03  0.00000000000E+00 0.  1.
         21    1    1    2  505  506  0.25776089981E+02 -0.17240499452E+02 -0.13864762679E+03  0.14207324186E+03  0.00000000000E+00 0. -1.
         21    1    1    2  506  503  0.20045403705E+02  0.39468883172E+02  0.10681806476E+03  0.11562746174E+03  0.00000000000E+00 0. -1.
<scales pt_clust_3="36.90975" pt_clust_4="109.38109" pt_clust_5="31.01035" pt_clust_6="36.90975"></scales>
<clustering>
<clus scale="   31.010">  2  5  1 -1</clus>
<clus scale="   36.910">  3  6 -1 -1</clus>
<clus scale="  109.381">  2  4  1 -1</clus>
<clus scale="  118.589">  1  3  2 -1</clus>
</clustering>
</event>
<event>
 6    0  0.3042851E+002  0.1018647E+03  0.7546771E-02  0.1276423E+00
         21   -1    0    0  505  501  0.00000000000E+00  0.00000000000E+00  0.14222797683E+04  0.14222797683E+04  0.00000000000E+00 0.  1.
         21   -1    0    0  506  502 -0.00000000000E+00 -0.00000000000E+00 -0.42757438683E+02  0.42757438683E+02  0.00000000000E+00 0.  1.
         21    1    1    2  503  502  0.33827191545E+02  0.10359384485E+03  0.36294966048E+03  0.37895701553E+03  0.00000000000E+00 0.  1.
         21    1    1    2  504  501 -0.67511673179E+02 -0.79514998044E+02  0.25743208148E+03  0.27776201595E+03  0.00000000000E+00 0.  1.
         21    1    1    2  505  503  0.89581653376E+02  0.18268411895E+02  0.72423781505E+03  0.72998563016E+03  0.00000000000E+00 0.  1.
         21    1    1    2  506  504 -0.55897171742E+02 -0.42347258696E+02  0.34902772655E+02  0.78332545387E+02  0.00000000000E+00 0.  1.
<scales pt_clust_3="101.86471" pt_clust_4="14000.00000" pt_clust_5="82.89302" pt_clust_6="70.12691"></scales>
<clustering>
<clus scale="   70.127">  2  6  1 -1</clus>
<clus scale="   82.893">  1  5  2 -1</clus>
<clus scale="  101.865">  2  3  1 -1</clus>
<clus scale="   82.893">  1  3  2 -1</clus>
</clustering>
</event>
<event>
 6    0  0.3042851E+002  0.7760589E+02  0.7546771E-02  0.1335986E+00
         21   -1    0    0  505  501  0.00000000000E+00  0.00000000000E+00  0.11694120167E+04  0.11694120167E+04  0.00000000000E+00 0.  1.
         21   -1    0    0  506  502 -0.00000000000E+00 -0.00000000000E+00 -0.19925952714E+03  0.19925952714E+03  0.00000000000E+00 0.  1.
         21    1    1    2  503  502  0.13211487750E+02  0.59016413738E+02 -0.30753695564E+02  0.67847404445E+02  0.00000000000E+00 0.  1.
         21    1    1    2  504  503 -0.55719982506E+02 -0.61727241025E+02  0.86024960715E+03  0.86425942595E+03  0.00000000000E+00 0.  1.
         21    1    1    2  505  504 -0.23058302096E+02  0.68626154356E+02  0.26872569488E+03  0.27830690513E+03  0.00000000000E+00 0.  1.
         21    1    1    2  506  501  0.65566796852E+02 -0.65915327070E+02 -0.12806911690E+03  0.15825780832E+03  0.00000000000E+00 0.  1.
<scales pt_clust_3="60.47711" pt_clust_4="14000.00000" pt_clust_5="74.05586" pt_clust_6="77.60589"></scales>
<clustering>
<clus scale="   60.477">  2  3  1 -1</clus>
<clus scale="   74.056">  1  5  2 -1</clus>
<clus scale="   77.606">  2  6  1 -1</clus>
<clus scale="   74.056">  1  3  2 -1</clus>
</clustering>
</event>
<event>
 6    0  0.3042851E+002  0.7767871E+03  0.7546771E-02  0.9594238E-01
         21   -1    0    0  505  501  0.00000000000E+00  0.00000000000E+00  0.91498100767E+03  0.91498100767E+03  0.00000000000E+00 0.  1.
         21   -1    0    0  503  502 -0.00000000000E+00 -0.00000000000E+00 -0.12202876181E+04  0.12202876181E+04  0.00000000000E+00 0.  1.
         21    1    1    2  503  506 -0.53686677980E+03  0.63606688712E+03 -0.38466487512E+03  0.91693734262E+03  0.00000000000E+00 0.  1.
         21    1    1    2  504  502  0.25194638515E+03  0.13652139064E+03 -0.91374147255E+02  0.30077284764E+03  0.00000000000E+00 0.  1.
         21    1    1    2  505  504  0.19166412728E+03 -0.72095888862E+03  0.37513658546E+02  0.74694319151E+03  0.00000000000E+00 0.  1.
         21    1    1    2  506  501  0.93256267376E+02 -0.51629389139E+02  0.13321875340E+03  0.17061524400E+03  0.00000000000E+00 0. -1.
<scales pt_clust_3="776.78713" pt_clust_4="294.69027" pt_clust_5="14000.00000" pt_clust_6="106.59421"></scales>
<clustering>
<clus scale="  106.594">  1  6  2 -1</clus>
<clus scale="  294.690">  2  4  1 -1</clus>
<clus scale="  776.787">  2  3  1 -1</clus>
<clus scale="  106.594">  1  3  2 -1</clus>
</clustering>
</event>
<event>
 6    0  0.3042851E+002  0.1584720E+03  0.7546771E-02  0.1190433E+00
         21   -1    0    0  505  501  0.00000000000E+00  0.00000000000E+00  0.62628916575E+03  0.62628916575E+03  0.00000000000E+00 0. -1.
         21   -1    0    0  503  502 -0.00000000000E+00 -0.00000000000E+00 -0.98501570377E+02  0.98501570377E+02  0.00000000000E+00 0.  1.
         21    1    1    2  503  504  0.12142047528E+03 -0.76422821032E+01 -0.25037381599E+02  0.12421033279E+03  0.00000000000E+00 0.  1.
         21    1    1    2  504  506 -0.88062675844E+02  0.19819294880E+02  0.20965311623E+03  0.22825921333E+03  0.00000000000E+00 0. -1.
         21    1    1    2  505  502  0.23432698310E+02 -0.47146676653E+02  0.53462691375E+02  0.75034391039E+02  0.00000000000E+00 0. -1.
         21    1    1    2  506  501 -0.56790497747E+02  0.34969663877E+02  0.28970916937E+03  0.29728679897E+03  0.00000000000E+00 0. -1.
<scales pt_clust_3="149.20362" pt_clust_4="45.90176" pt_clust_5="52.64884" pt_clust_6="45.90176"></scales>
<clustering>
<clus scale="   45.902">  4  6 -1 -1</clus>
<clus scale="   52.649">  2  5  1 -1</clus>
<clus scale="  149.204">  2  3  1 -1</clus>
<clus scale="  158.472">  1  3  2 -1</clus>
</clustering>
</event>
<event>
 6    0  0.3042851E+002  0.2065620E+03  0.7546771E-02  0.1144318E+00
         21   -1    0    0  504  501  0.00000000000E+00  0.00000000000E+00  0.27464925253E+03  0.27464925253E+03  0.00000000000E+00 0.  1.
         21   -1    0    0  501  502 -0.00000000000E+00 -0.00000000000E+00 -0.31732590161E+03  0.31732590161E+03  0.00000000000E+00 0. -1.
         21    1    1    2  503  506 -0.91943806212E+02  0.26516765532E+02 -0.12320216051E+03  0.15599863689E+03  0.00000000000E+00 0. -1.
         21    1    1    2  504  505  0.32361227113E+02  0.18360838336E+02  0.17701226936E+02  0.41203189678E+02  0.00000000000E+00 0.  1.
         21    1    1    2  505  503  0.16038472951E+03 -0.42813683068E+02  0.17685818150E+03  0.24255945514E+03  0.00000000000E+00 0.  1.
         21    1    1    2  506  502 -0.10080215041E+03 -0.20639208001E+01 -0.11403389699E+03  0.15221387243E+03  0.00000000000E+00 0. -1.
<scales pt_clust_3="30.26442" pt_clust_4="33.20421" pt_clust_5="33.20421" pt_clust_6="196.75875"></scales>
<clustering>
<clus scale="   30.264">  3  6 -1 -1</clus>
<clus scale="   33.204">  4  5 -1 -1</clus>
<clus scale="  196.759">  2  3  1 -1</clus>
<clus scale="  206.562">  1  3  2 -1</clus>
</clustering>
</event>
<event>
 6    0  0.3042851E+002  0.9866408E+02  0.7546771E-02  0.1283131E+00
         21   -1    0    0  504  501  0.00000000000E+00  0.00000000000E+00  0.18748622343E+04  0.18748622343E+04  0.00000000000E+00 0. -1.
         21   -1    0    0  505  502 -0.00000000000E+00 -0.00000000000E+00 -0.65163095364E+02  0.65163095364E+02  0.00000000000E+00 0.  1.
         21    1    1    2  503  506  0.24463810258E+02  0.38617474935E+02  0.25369233391E+01  0.45784531916E+02  0.00000000000E+00 0.  1.
         21    1    1    2  504  503 -0.72153751636E+02  0.11075446955E+01  0.55056895680E+03  0.55527791846E+03  0.00000000000E+00 0. -1.
         21    1    1    2  505  501  0.50105536180E+02 -0.90110839262E+02  0.12794392126E+04  0.12835868599E+04  0.00000000000E+00 0. -1.
         21    1    1    2  506  502 -0.24155948019E+01  0.50385819631E+02 -0.22845953824E+02  0.55376019397E+02  0.00000000000E+00 0. -1.
<scales pt_clust_3="35.78803" pt_clust_4="72.16225" pt_clust_5="91.22121" pt_clust_6="35.78803"></scales>
<clustering>
<clus scale="   35.788">  3  6 -1 -1</clus>
<clus scale="   72.162">  1  4  2 -1</clus>
<clus scale="   91.221">  1  5  2 -1</clus>
<clus scale="   72.162">  1  3  2 -1</clus>
</clustering>
</event>
<event>
 6    0  0.3042851E+002  0.1431053E+03  0.7546771E-02  0.1209211E+00
         21   -1    0    0  505  501  0.00000000000E+00  0.00000000000E+00  0.16245054459E+03  0.16245054459E+03  0.00000000000E+00 0. -1.
         21   -1    0    0  504  502 -0.00000000000E+00 -0.00000000000E+00 -0.78049389055E+03  0.78049389055E+03  0.00000000000E+00 0.  1.
         21    1    1    2  503  506 -0.56440654025E+02  0.52483142188E+02 -0.41203171099E+03  0.41917795565E+03  0.00000000000E+00 0.  1.
         21    1    1    2  504  503 -0.67252694732E+02  0.87966022865E+01 -0.31805454911E+03  0.32520609061E+03  0.00000000000E+00 0.  1.
         21    1    1    2  505  502  0.50519130358E+02  0.19493559667E+02  0.28200943965E+02  0.61053047763E+02  0.00000000000E+00 0. -1.
         21    1    1    2  506  501  0.73174218399E+02 -0.80773304141E+02  0.83841970176E+02  0.13750734112E+03  0.00000000000E+00 0. -1.
<scales pt_clust_3="42.22923" pt_clust_4="42.22923" pt_clust_5="54.14962" pt_clust_6="135.84075"></scales>
<clustering>
<clus scale="   42.229">  3  4 -1 -1</clus>
<clus scale="   54.150">  1  5  2 -1</clus>
<clus scale="  135.841">  1  6  2 -1</clus>
<clus scale="   54.150">  1  3  2 -1</clus>
</clustering>
</event>
<event>
 6    0  0.3042851E+002  0.1989098E+03  0.7546771E-02  0.1150662E+00
         21   -1    0    0  502  501  0.00000000000E+00  0.00000000000E+00  0.19415108057E+04  0.19415108057E+04  0.00000000000E+00 0.  1.
         21   -1    0    0  503  502 -0.00000000000E+00 -0.00000000000E+00 -0.36296552449E+02  0.36296552449E+02  0.00000000000E+00 0.  1.
         21    1    1    2  503  505  0.91920245675E+02 -0.14894354995E+02  0.15038006607E+03  0.17687661702E+03  0.00000000000E+00 0.  1.
         21    1    1    2  504  506 -0.11277414104E+03  0.10283145901E+03  0.92434551828E+03  0.93686015659E+03  0.00000000000E+00 0.  1.
         21    1    1    2  505  504  0.11385401222E+03 -0.54852410301E+02  0.31856988237E+03  0.34272188866E+03  0.00000000000E+00 0.  1.
         21    1    1    2  506  501 -0.93000116851E+02 -0.33084693712E+02  0.51191878656E+03  0.52134869591E+03  0.00000000000E+00 0.  1.
<scales pt_clust_3="45.91282" pt_clust_4="191.58341" pt_clust_5="45.91282" pt_clust_6="98.70977"></scales>
<clustering>
<clus scale="   45.913">  3  5 -1 -1</clus>
<clus scale="   98.710">  1  6  2 -1</clus>
<clus scale="  191.583">  1  4  2 -1</clus>
<clus scale="   98.710">  1  3  2 -1</clus>
</clustering>
</event>
<event>
 6    0  0.3042851E+002  0.3001105E+03  0.7546771E-02  0.1085185E+00
         21   -1    0    0  505  501  0.00000000000E+00  0.00000000000E+00  0.12154976552E+04  0.12154976552E+04  0.00000000000E+00 0. -1.
         21   -1    0    0  503  502 -0.00000000000E+00 -0.00000000000E+00 -0.79904984877E+02  0.79904984877E+02  0.00000000000E+00 0. -1.
         21    1    1    2  503  504 -0.57478883519E+02  0.76399114207E+02  0.19712078654E+03  0.21908274964E+03  0.00000000000E+00 0. -1.
         21    1    1    2  504  501 -0.20004338551E+03  0.71471812482E+01  0.61184350831E+03  0.64375532383E+03  0.00000000000E+00 0. -1.
         21    1    1    2  505  506  0.45199285942E+02  0.17419400816E+02  0.58844898031E+02  0.76217668547E+02  0.00000000000E+00 0. -1.
         21    1    1    2  506  502  0.21232298309E+03 -0.10096569627E+03  0.26778347743E+03  0.35634689806E+03  0.00000000000E+00 0. -1.
<scales pt_clust_3="89.49363" pt_clust_4="89.49363" pt_clust_5="38.32320" pt_clust_6="283.59480"></scales>
<clustering>
<clus scale="   38.323">  5  6 -1 -1</clus>
<clus scale="   89.494">  3  4 -1 -1</clus>
<clus scale="  283.595">  2  5  1 -1</clus>
<clus scale="  300.110">  1  3  2 -1</clus>
</clustering>
</event>
<event>
 6    0  0.3042851E+002  0.8815745E+02  0.7546771E-02  0.1307376E+00
         21   -1    0    0  505  501  0.00000000000E+00  0.00000000000E+00  0.69462125161E+02  0.69462125161E+02  0.00000000000E+00 0.  1.
         21   -1    0    0  503  502 -0.00000000000E+00 -0.00000000000E+00 -0.76743985778E+03  0.76743985778E+03  0.00000000000E+00 0.  1.
         21    1    1    2  503  506  0.35571669233E+02  0.77481832665E+02 -0.51623977873E+02  0.99668516275E+02  0.00000000000E+00 0.  1.
         21    1    1    2  504  502  0.93156273268E+01 -0.89653633608E+02 -0.56860762848E+03  0.57570755605E+03  0.00000000000E+00 0.  1.
         21    1    1    2  505  504 -0.36130031390E+02 -0.31850722345E+02 -0.10032057597E+03  0.11128371689E+03  0.00000000000E+00 0.  1.
         21    1    1    2  506  501 -0.87572651695E+01  0.44022523289E+02  0.22574449706E+02  0.50242193717E+02  0.00000000000E+00 0. -1.
<scales pt_clust_3="88.15745" pt_clust_4="14000.00000" pt_clust_5="44.89030" pt_clust_6="44.88510"></scales>
<clustering>
<clus scale="   44.885">  1  6  2 -1</clus>
<clus scale="   44.890">  1  5  2 -1</clus>
<clus scale="   88.157">  1  3  2 -1</clus>
<clus scale="   44.885">  1  3  2 -1</clus>
</clustering>
</event>
<event>
 6    0  0.3042851E+002  0.1584177E+03  0.7546771E-02  0.1190495E+00
         21   -1    0    0  505  501  0.00000000000E+00  0.00000000000E+00  0.12518167808E+03  0.12518167808E+03  0.00000000000E+00 0. -1.
         21   -1    0    0  504  502 -0.00000000000E+00 -0.00000000000E+00 -0.82642732026E+03  0.82642732026E+03  0.00000000000E+00 0.  1.
         21    1    1    2  503  502  0.87921830124E+02 -0.45186916204E+02 -0.32700578104E+03  0.34162096897E+03  0.00000000000E+00 0.  1.
         21    1    1    2  504  501 -0.90586631748E+02  0.19833368929E+03 -0.40844885721E+02  0.22183438608E+03  0.00000000000E+00 0. -1.
         21    1    1    2  505  506 -0.25090896739E+02 -0.10750819279E+03 -0.10076411750E+03  0.14946896665E+03  0.00000000000E+00 0. -1.
         21    1    1    2  506  503  0.27755698362E+02 -0.45638580296E+02 -0.23263085792E+03  0.23868467664E+03  0.00000000000E+00 0.  1.
<scales pt_clust_3="32.30127" pt_clust_4="152.20133" pt_clust_5="110.39730" pt_clust_6="32.30127"></scales>
<clustering>
<clus scale="   32.301">  3  6 -1 -1</clus>
<clus scale="  110.397">  1  5  2 -1</clus>
<clus scale="  152.201">  1  4  2 -1</clus>
<clus scale="  110.397">  1  3  2 -1</clus>
</clustering>
</event>
<event>
 6    0  0.3042851E+002  0.9722781E+02  0.7546771E-02  0.1286236E+00
         21   -1    0    0  506  501  0.00000000000E+00  0.00000000000E+00  0.12087597558E+04  0.12087597558E+04  0.00000000000E+00 0. -1.
         21   -1    0    0  505  502 -0.00000000000E+00 -0.00000000000E+00 -0.24942947954E+03  0.24942947954E+03  0.00000000000E+00 0. -1.
         21    1    1    2  503  501 -0.46490451052E+02  0.77332479673E+02  0.87167462734E+03  0.87633231733E+03  0.00000000000E+00 0. -1.
         21    1    1    2  504  502  0.13675201655E+02  0.38209768696E+02 -0.83554298282E+00  0.40591818094E+02  0.00000000000E+00 0.  1.
         21    1    1    2  505  503 -0.45799354937E+02  0.18419893884E+02 -0.20410879776E+03  0.20999351115E+03  0.00000000000E+00 0. -1.
         21    1    1    2  506  504  0.78614604334E+02 -0.13396214225E+03  0.29259998961E+03  0.33127158872E+03  0.00000000000E+00 0. -1.
<scales pt_clust_3="97.22781" pt_clust_4="40.58322" pt_clust_5="62.66544" pt_clust_6="14000.00000"></scales>
<clustering>
<clus scale="   40.583">  2  4  1 -1</clus>
<clus scale="   62.665">  2  5  1 -1</clus>
<clus scale="   97.228">  1  3  2 -1</clus>
<clus scale="   97.228">  1  3  2 -1</clus>
</clustering>
</event>
<event>
 6    0  0.3042851E+002  0.1661229E+03  0.7546771E-02  0.1181952E+00
         21   -1    0    0  506  501  0.00000000000E+00  0.00000000000E+00  0.98355001535E+02  0.98355001535E+02  0.00000000000E+00 0. -1.
         21   -1    0    0  505  502 -0.00000000000E+00 -0.00000000000E+00 -0.55462103142E+03  0.55462103142E+03  0.00000000000E+00 0. -1.
         21    1    1    2  503  502  0.37842116852E+02 -0.10225726294E+01 -0.20475311564E+03  0.20822322115E+03  0.00000000000E+00 0. -1.
         21    1    1    2  504  501 -0.71579494724E+02 -0.44772505071E+01 -0.21257683581E+02  0.74803468825E+02  0.00000000000E+00 0. -1.
         21    1    1    2  505  504 -0.83191674542E+02  0.57198937044E+02  0.61953171275E+01  0.10114818370E+03  0.00000000000E+00 0. -1.
         21    1    1    2  506  503  0.11692905241E+03 -0.51699113908E+02 -0.23645054779E+03  0.26880115928E+03  0.00000000000E+00 0. -1.
<scales pt_clust_3="37.85593" pt_clust_4="52.45378" pt_clust_5="52.45378" pt_clust_6="153.61775"></scales>
<clustering>
<clus scale="   37.856">  2  3  1 -1</clus>
<clus scale="   52.454">  4  5 -1 -1</clus>
<clus scale="  153.618">  2  6  1 -1</clus>
<clus scale="  166.123">  1  3  2 -1</clus>
</clustering>
</event>
<event>
 6    0  0.3042851E+002  0.7364871E+02  0.7546771E-02  0.1348107E+00
         21   -1    0    0  505  501  0.00000000000E+00  0.00000000000E+00  0.20929456278E+03  0.20929456278E+03  0.00000000000E+00 0.  1.
         21   -1    0    0  504  502 -0.00000000000E+00 -0.00000000000E+00 -0.51756115203E+03  0.51756115203E+03  0.00000000000E+00 0.  1.
         21    1    1    2  503  501 -0.14205318386E+02  0.72068332195E+02  0.15359930240E+03  0.17025974648E+03  0.00000000000E+00 0.  1.
         21    1    1    2  504  503 -0.36787862638E+02  0.52100538510E+02 -0.36587514136E+03  0.37139255784E+03  0.00000000000E+00 0.  1.
         21    1    1    2  505  506  0.43898800267E+02 -0.66460176982E+02 -0.84275159061E+01  0.80094212111E+02  0.00000000000E+00 0.  1.
         21    1    1    2  506  502  0.70943807569E+01 -0.57708693723E+02 -0.87563234376E+02  0.10510919838E+03  0.00000000000E+00 0.  1.
<scales pt_clust_3="73.64871" pt_clust_4="30.62090" pt_clust_5="14000.00000" pt_clust_6="58.14313"></scales>
<clustering>
<clus scale="   58.143">  2  6  1 -1</clus>
<clus scale="   30.621">  2  4  1 -1</clus>
<clus scale="   73.649">  1  3  2 -1</clus>
<clus scale="   73.649">  1  3  2 -1</clus>
</clustering>
</event>
<event>
 6    0  0.3042851E+002  0.2156625E+03  0.7546771E-02  0.1137159E+00
         21   -1    0    0  504  501  0.00000000000E+00  0.00000000000E+00  0.16128957570E+03  0.16128957570E+03  0.00000000000E+00 0.  1.
         21   -1    0    0  503  502 -0.00000000000E+00 -0.00000000000E+00 -0.42219870081E+03  0.42219870081E+03  0.00000000000E+00 0.  1.
         21    1    1    2  503  506 -0.42097226791E+02 -0.54662126528E+01  0.14316027057E+02  0.44799605076E+02  0.00000000000E+00 0.  1.
         21    1    1    2  504  505  0.13414374095E+03 -0.56318816635E+02 -0.20390924199E+03  0.25049018207E+03  0.00000000000E+00 0.  1.
         21    1    1    2  505  502  0.26611632860E+02 -0.63331679545E+02 -0.91683807200E+02  0.11456439735E+03  0.00000000000E+00 0. -1.
         21    1    1    2  506  501 -0.11865814702E+03  0.12511670883E+03  0.20367897019E+02  0.17363409202E+03  0.00000000000E+00 0.  1.
<scales pt_clust_3="39.54362" pt_clust_4="214.21857" pt_clust_5="52.02001" pt_clust_6="39.54362"></scales>
<clustering>
<clus scale="   39.544">  3  6 -1 -1</clus>
<clus scale="   52.020">  4  5 -1 -1</clus>
<clus scale="  214.219">  2  4  1 -1</clus>
<clus scale="  215.662">  1  3  2 -1</clus>
</clustering>
</event>
<event>
 6    0  0.3042851E+002  0.1361137E+03  0.7546771E-02  0.1218656E+00
         21   -1    0    0  502  501  0.00000000000E+00  0.00000000000E+00  0.66124724456E+02  0.66124724456E+02  0.00000000000E+00 0.  1.
         21   -1    0    0  504  502 -0.00000000000E+00 -0.00000000000E+00 -0.37454006119E+03  0.37454006119E+03  0.00000000000E+00 0.  1.
         21    1    1    2  503  505  0.16699810746E+02  0.84605494085E+02 -0.69422316835E+02  0.11070876832E+03  0.00000000000E+00 0.  1.
         21    1    1    2  504  506  0.23610695929E+02 -0.31491307209E+02 -0.57771848990E+02  0.69905321169E+02  0.00000000000E+00 0.  1.
         21    1    1    2  505  501 -0.68609524079E+02 -0.10393542279E+03 -0.97791863423E+02  0.15834483717E+03  0.00000000000E+00 0.  1.
         21    1    1    2  506  503  0.28299017403E+02  0.50821235915E+02 -0.83429307485E+02  0.10170585899E+03  0.00000000000E+00 0.  1.
<scales pt_clust_3="30.63161" pt_clust_4="39.35946" pt_clust_5="130.90404" pt_clust_6="30.63161"></scales>
<clustering>
<clus scale="   30.632">  3  6 -1 -1</clus>
<clus scale="   39.359">  2  4  1 -1</clus>
<clus scale="  130.904">  1  5  2 -1</clus>
<clus scale="  130.904">  1  3  2 -1</clus>
</clustering>
</event>
<event>
 6    0  0.3042851E+002  0.1102380E+03  0.7546771E-02  0.1260130E+00
         21   -1    0    0  506  501  0.00000000000E+00  0.00000000000E+00  0.12793376245E+04  0.12793376245E+04  0.00000000000E+00 0. -1.
         21   -1    0    0  505  502 -0.00000000000E+00 -0.00000000000E+00 -0.24260031510E+02  0.24260031510E+02  0.00000000000E+00 0. -1.
         21    1    1    2  503  501  0.44806166283E+02  0.63957384174E+02  0.47179654199E+03  0.47821555450E+03  0.00000000000E+00 0. -1.
         21    1    1    2  504  503  0.16182361552E+02 -0.72533257311E+02  0.12317834821E+03  0.14386051476E+03  0.00000000000E+00 0. -1.
         21    1    1    2  505  504 -0.19754653975E+02 -0.43964807328E+02  0.56632000657E+02  0.74366216359E+02  0.00000000000E+00 0. -1.
         21    1    1    2  506  502 -0.41233873861E+02  0.52540680466E+02  0.60347070214E+03  0.60715537039E+03  0.00000000000E+00 0. -1.
<scales pt_clust_3="102.20487" pt_clust_4="33.26906" pt_clust_5="33.26906" pt_clust_6="66.78889"></scales>
<clustering>
<clus scale="   33.269">  4  5 -1 -1</clus>
<clus scale="   66.789">  1  6  2 -1</clus>
<clus scale="  102.205">  1  3  2 -1</clus>
<clus scale="   66.789">  1  3  2 -1</clus>
</clustering>
</event>
<event>
 6    0  0.3042851E+002  0.1936261E+03  0.7546771E-02  0.1155231E+00
         21   -1    0    0  505  501  0.00000000000E+00  0.00000000000E+00  0.29256840287E+03  0.29256840287E+03  0.00000000000E+00 0.  1.
         21   -1    0    0  503  502 -0.00000000000E+00 -0.00000000000E+00 -0.24122649083E+03  0.24122649083E+03  0.00000000000E+00 0.  1.
         21    1    1    2  503  506  0.26074671183E+02 -0.11312946011E+03 -0.12801421139E+03  0.17281724896E+03  0.00000000000E+00 0.  1.
         21    1    1    2  504  501  0.30723146482E+02  0.43067271769E+02  0.47785081221E+02  0.71288958575E+02  0.00000000000E+00 0.  1.
         21    1    1    2  505  502 -0.88951498551E+02  0.13355711310E+03  0.14613980561E+03  0.21704081261E+03  0.00000000000E+00 0.  1.
         21    1    1    2  506  504  0.32153680885E+02 -0.63494924759E+02 -0.14568763409E+02  0.72647873554E+02  0.00000000000E+00 0.  1.
<scales pt_clust_3="56.87328" pt_clust_4="52.90276" pt_clust_5="179.31697" pt_clust_6="56.87328"></scales>
<clustering>
<clus scale="   52.903">  1  4  2 -1</clus>
<clus scale="   56.873">  3  6 -1 -1</clus>
<clus scale="  179.317">  1  5  2 -1</clus>
<clus scale="   52.903">  1  3  2 -1</clus>
</clustering>
</event>
<event>
 6    0  0.3042851E+002  0.2287564E+03  0.7546771E-02  0.1127518E+00
         21   -1    0    0  504  501  0.00000000000E+00  0.00000000000E+00  0.55952232145E+03  0.55952232145E+03  0.00000000000E+00 0.  1.
         21   -1    0    0  506  502 -0.00000000000E+00 -0.00000000000E+00 -0.55960021133E+03  0.55960021133E+03  0.00000000000E+00 0.  1.
         21    1    1    2  503  502 -0.12608255667E+02  0.14236412546E+03 -0.38480210781E+03  0.41048650952E+03  0.00000000000E+00 0.  1.
         21    1    1    2  504  505 -0.37168181481E+02 -0.96878754412E+02  0.96845752106E+02  0.14193683973E+03  0.00000000000E+00 0.  1.
         21    1    1    2  505  503  0.55797685403E+02  0.61449987774E+02 -0.11948779316E+03  0.14548819680E+03  0.00000000000E+00 0.  1.
         21    1    1    2  506  501 -0.60212482551E+01 -0.10693535882E+03  0.40736625897E+03  0.42121098674E+03  0.00000000000E+00 0.  1.
<scales pt_clust_3="81.34618" pt_clust_4="103.76400" pt_clust_5="81.34618" pt_clust_6="202.32507"></scales>
<clustering>
<clus scale="   81.346">  3  5 -1 -1</clus>
<clus scale="  103.764">  1  4  2 -1</clus>
<clus scale="  202.325">  1  6  2 -1</clus>
<clus scale="  103.764">  1  3  2 -1</clus>
</clustering>
</event>
<event>
 6    0  0.3042851E+002  0.1440548E+03  0.7546771E-02  0.1207975E+00
         21   -1    0    0  504  501  0.00000000000E+00  0.00000000000E+00  0.43165853413E+02  0.43165853413E+02  0.00000000000E+00 0. -1.
         21   -1    0    0  506  502 -0.00000000000E+00 -0.00000000000E+00 -0.50100395339E+03  0.50100395339E+03  0.00000000000E+00 0. -1.
         21    1    1    2  503  502  0.32629452772E+02 -0.66492257204E+02 -0.17564963249E+03  0.19062710943E+03  0.00000000000E+00 0. -1.
         21    1    1    2  504  503  0.58452384696E+01 -0.67357717218E+02 -0.10909436958E+03  0.12834644661E+03  0.00000000000E+00 0. -1.
         21    1    1    2  505  501 -0.33676905931E+02  0.62432091822E+02 -0.69744551001E+02  0.99479658608E+02  0.00000000000E+00 0. -1.
         21    1    1    2  506  505 -0.47977853104E+01  0.71417882601E+02 -0.10334954690E+03  0.12571659216E+03  0.00000000000E+00 0. -1.
<scales pt_clust_3="143.75320" pt_clust_4="34.03329" pt_clust_5="36.65364" pt_clust_6="36.65364"></scales>
<clustering>
<clus scale="   34.033">  3  4 -1 -1</clus>
<clus scale="   36.654">  5  6 -1 -1</clus>
<clus scale="  143.753">  2  3  1 -1</clus>
<clus scale="  144.055">  1  3  2 -1</clus>
</clustering>
</event>
<event>
 6    0  0.3042851E+002  0.1249735E+03  0.7546771E-02  0.1235111E+00
         21   -1    0    0  506  501  0.00000000000E+00  0.00000000000E+00  0.13817126882E+03  0.13817126882E+03  0.00000000000E+00 0. -1.
         21   -1    0    0  503  502 -0.00000000000E+00 -0.00000000000E+00 -0.44577473985E+03  0.44577473985E+03  0.00000000000E+00 0. -1.
         21    1    1    2  503  504 -0.25157132663E+02 -0.18858773315E+02 -0.41293809106E+02  0.51900995417E+02  0.00000000000E+00 0. -1.
         21    1    1    2  504  505 -0.50699982692E+02 -0.76596071596E+02  0.10768481293E+02  0.92484629092E+02  0.00000000000E+00 0. -1.
         21    1    1    2  505  501 -0.31666189637E+02 -0.25087624063E+02  0.56192415236E+02  0.69207831763E+02  0.00000000000E+00 0. -1.
         21    1    1    2  506  502  0.10752330499E+03  0.12054246897E+03 -0.33327055845E+03  0.37035255241E+03  0.00000000000E+00 0. -1.
<scales pt_clust_3="31.44097" pt_clust_4="124.97354" pt_clust_5="40.91210" pt_clust_6="14000.00000"></scales>
<clustering>
<clus scale="   31.441">  2  3  1 -1</clus>
<clus scale="   40.912">  1  5  2 -1</clus>
<clus scale="  124.974">  1  4  2 -1</clus>
<clus scale="   40.912">  1  3  2 -1</clus>
</clustering>
</event>
<event>
 6    0  0.3042851E+002  0.1341780E+03  0.7546771E-02  0.1221385E+00
         21   -1    0    0  506  501  0.00000000000E+00  0.00000000000E+00  0.11250443008E+03  0.11250443008E+03  0.00000000000E+00 0.  1.
         21   -1    0    0  504  502 -0.00000000000E+00 -0.00000000000E+00 -0.28306908419E+03  0.28306908419E+03  0.00000000000E+00 0.  1.
         21    1    1    2  503  501  0.78652754921E+02 -0.83789123560E+02  0.26814201898E+02  0.11800794256E+03  0.00000000000E+00 0.  1.
         21    1    1    2  504  503  0.23992041296E+02 -0.25341184179E+02 -0.37926338060E+02  0.51538342812E+02  0.00000000000E+00 0. -1.
         21    1    1    2  505  502 -0.74697730040E+02  0.45685258759E+02 -0.65910141777E+02  0.10959489281E+03  0.00000000000E+00 0.  1.
         21    1    1    2  506  505 -0.27947066178E+02  0.63445048981E+02 -0.93542376171E+02  0.11643233609E+03  0.00000000000E+00 0.  1.
<scales pt_clust_3="121.59733" pt_clust_4="34.89690" pt_clust_5="48.54418" pt_clust_6="48.54418"></scales>
<clustering>
<clus scale="   34.897">  2  4  1 -1</clus>
<clus scale="   48.544">  5  6 -1 -1</clus>
<clus scale="  121.597">  1  3  2 -1</clus>
<clus scale="  121.597">  1  3  2 -1</clus>
</clustering>
</event>
<event>
 6    0  0.3042851E+002  0.9737914E+02  0.7546771E-02  0.1285906E+00
         21   -1    0    0  504  501  0.00000000000E+00  0.00000000000E+00  0.15017734666E+03  0.15017734666E+03  0.00000000000E+00 0.  1.
         21   -1    0    0  506  502 -0.00000000000E+00 -0.00000000000E+00 -0.20164494122E+03  0.20164494122E+03  0.00000000000E+00 0.  1.
         21    1    1    2  503  501 -0.37805199545E+02  0.43234420264E+02  0.72476687539E+02  0.92473339103E+02  0.00000000000E+00 0.  1.
         21    1    1    2  504  502 -0.41069486731E+02 -0.41199769295E+02 -0.39940326587E+02  0.70564533714E+02  0.00000000000E+00 0.  1.
         21    1    1    2  505  503 -0.33750480003E+02  0.62382290919E+01  0.16067127090E+02  0.37896740962E+02  0.00000000000E+00 0.  1.
         21    1    1    2  506  505  0.11262516628E+03 -0.82728800600E+01 -0.10007108260E+03  0.15088767410E+03  0.00000000000E+00 0.  1.
<scales pt_clust_3="30.81173" pt_clust_4="58.17322" pt_clust_5="30.81173" pt_clust_6="88.84877"></scales>
<clustering>
<clus scale="   30.812">  3  5 -1 -1</clus>
<clus scale="   58.173">  2  4  1 -1</clus>
<clus scale="   88.849">  2  6  1 -1</clus>
<clus scale="   97.379">  1  3  2 -1</clus>
</clustering>
</event>
<event>
 6    0  0.3042851E+002  0.1080868E+03  0.7546771E-02  0.1264154E+00
         21   -1    0    0  505  501  0.00000000000E+00  0.00000000000E+00  0.17268478186E+02  0.17268478186E+02  0.00000000000E+00 0.  1.
         21   -1    0    0  503  502 -0.00000000000E+00 -0.00000000000E+00 -0.23177333584E+04  0.23177333584E+04  0.00000000000E+00 0.  1.
         21    1    1    2  503  504 -0.46139121124E+02 -0.60544819710E+02 -0.12259166145E+04  0.12282776720E+04  0.00000000000E+00 0.  1.
         21    1    1    2  504  501  0.40287374260E+02  0.11012524186E+01 -0.17316408760E+03  0.17779225662E+03  0.00000000000E+00 0. -1.
         21    1    1    2  505  506 -0.12012369536E+02  0.12048256297E+03 -0.29018010347E+03  0.31442779370E+03  0.00000000000E+00 0.  1.
         21    1    1    2  506  502  0.17864116400E+02 -0.61038995676E+02 -0.61120407455E+03  0.61450411422E+03  0.00000000000E+00 0.  1.
<scales pt_clust_3="108.08680" pt_clust_4="40.30242" pt_clust_5="14000.00000" pt_clust_6="64.87407"></scales>
<clustering>
<clus scale="   40.302">  1  4  2 -1</clus>
<clus scale="   64.874">  2  6  1 -1</clus>
<clus scale="  108.087">  2  3  1 -1</clus>
<clus scale="   40.302">  1  3  2 -1</clus>
</clustering>
</event>
<event>
 6    0  0.3042851E+002  0.1333900E+03  0.7546771E-02  0.1222511E+00
         21   -1    0    0  503  501  0.00000000000E+00  0.00000000000E+00  0.46530618283E+03  0.46530618283E+03  0.00000000000E+00 0. -1.
         21   -1    0    0  504  502 -0.00000000000E+00 -0.00000000000E+00 -0.38209469589E+03  0.38209469589E+03  0.00000000000E+00 0. -1.
         21    1    1    2  503  505  0.31021976693E+02  0.12378970146E+03  0.33511088380E+03  0.35858828434E+03  0.00000000000E+00 0. -1.
         21    1    1    2  504  501 -0.30389560332E+02  0.36676837384E+01  0.10415179081E+03  0.10855677229E+03  0.00000000000E+00 0. -1.
         21    1    1    2  505  506  0.29586670256E+01 -0.52064072351E+02 -0.93370405145E+02  0.10694603264E+03  0.00000000000E+00 0.  1.
         21    1    1    2  506  502 -0.35910833861E+01 -0.75393312844E+02 -0.26268078253E+03  0.27330978945E+03  0.00000000000E+00 0. -1.
<scales pt_clust_3="127.34451" pt_clust_4="30.61008" pt_clust_5="32.97610" pt_clust_6="32.97610"></scales>
<clustering>
<clus scale="   30.610">  1  4  2 -1</clus>
<clus scale="   32.976">  5  6 -1 -1</clus>
<clus scale="  127.345">  1  3  2 -1</clus>
<clus scale="   30.610">  1  3  2 -1</clus>
</clustering>
</event>
<event>
 6    0  0.3042851E+002  0.1849580E+03  0.7546771E-02  0.1163089E+00
         21   -1    0    0  505  501  0.00000000000E+00  0.00000000000E+00  0.22104057914E+03  0.22104057914E+03  0.00000000000E+00 0.  1.
         21   -1    0    0  506  502 -0.00000000000E+00 -0.00000000000E+00 -0.56210247529E+03  0.56210247529E+03  0.00000000000E+00 0. -1.
         21    1    1    2  503  502  0.63351509216E+02 -0.19363132760E+02 -0.28619724880E+03  0.29376386751E+03  0.00000000000E+00 0. -1.
         21    1    1    2  504  503  0.10050326348E+03 -0.44066869493E+02 -0.21511784981E+03  0.24149220332E+03  0.00000000000E+00 0. -1.
         21    1    1    2  505  504 -0.13048509928E+03  0.56822862858E+02  0.15963251870E+03  0.21386383496E+03  0.00000000000E+00 0.  1.
         21    1    1    2  506  501 -0.33369673422E+02  0.66071393957E+01  0.62068375702E+00  0.34023148644E+02  0.00000000000E+00 0.  1.
<scales pt_clust_3="51.27206" pt_clust_4="51.27206" pt_clust_5="172.91324" pt_clust_6="34.01749"></scales>
<clustering>
<clus scale="   34.017">  1  6  2 -1</clus>
<clus scale="   51.272">  3  4 -1 -1</clus>
<clus scale="  172.913">  1  5  2 -1</clus>
<clus scale="   34.017">  1  3  2 -1</clus>
</clustering>
</event>
<event>
 6    0  0.3042851E+002  0.1382239E+03  0.7546771E-02  0.1215739E+00
         21   -1    0    0  505  501  0.00000000000E+00  0.00000000000E+00  0.28561352458E+04  0.28561352458E+04  0.00000000000E+00 0.  1.
         21   -1    0    0  506  502 -0.00000000000E+00 -0.00000000000E+00 -0.36571738704E+02  0.36571738704E+02  0.00000000000E+00 0. -1.
         21    1    1    2  503  502  0.52044698491E+02 -0.79038504294E+02  0.98554242098E+02  0.13663335770E+03  0.00000000000E+00 0. -1.
         21    1    1    2  504  501  0.12504745060E+03  0.82017343607E+02  0.15176968149E+04  0.15250466654E+04  0.00000000000E+00 0.  1.
         21    1    1    2  505  503 -0.15021941270E+03  0.50446916073E+02  0.11023535064E+04  0.11136848820E+04  0.00000000000E+00 0.  1.
         21    1    1    2  506  504 -0.26872736399E+02 -0.53425755385E+02  0.10095894374E+03  0.11734207950E+03  0.00000000000E+00 0.  1.
<scales pt_clust_3="119.81091" pt_clust_4="14000.00000" pt_clust_5="138.22392" pt_clust_6="59.80347"></scales>
<clustering>
<clus scale="   59.803">  2  6  1 -1</clus>
<clus scale="  119.811">  2  3  1 -1</clus>
<clus scale="  138.224">  2  5  1 -1</clus>
<clus scale="  138.224">  1  3  2 -1</clus>
</clustering>
</event>
<event>
 6    0  0.3042851E+002  0.1154054E+03  0.7546771E-02  0.1250875E+00
         21   -1    0    0  503  501  0.00000000000E+00  0.00000000000E+00  0.10902846473E+04  0.10902846473E+04  0.00000000000E+00 0.  1.
         21   -1    0    0  506  502 -0.00000000000E+00 -0.00000000000E+00 -0.20424554195E+03  0.20424554195E+03  0.00000000000E+00 0.  1.
         21    1    1    2  503  502  0.54068066887E+02 -0.23863837241E+02  0.45759484756E+03  0.46139558201E+03  0.00000000000E+00 0.  1.
         21    1    1    2  504  505  0.11770041404E+02 -0.96838157161E+02  0.11151893692E+03  0.14816421919E+03  0.00000000000E+00 0.  1.
         21    1    1    2  505  501 -0.36878657529E+02  0.61820884149E+01  0.48119129650E+03  0.48264201789E+03  0.00000000000E+00 0.  1.
         21    1    1    2  506  504 -0.28959450762E+02  0.11451990599E+03 -0.16426597558E+03  0.20232837021E+03  0.00000000000E+00 0.  1.
<scales pt_clust_3="32.49001" pt_clust_4="14000.00000" pt_clust_5="37.39323" pt_clust_6="115.40543"></scales>
<clustering>
<clus scale="   37.393">  1  5  2 -1</clus>
<clus scale="   32.490">  1  3  2 -1</clus>
<clus scale="  115.405">  2  6  1 -1</clus>
<clus scale="   37.393">  1  3  2 -1</clus>
</clustering>
</event>
<event>
 6    0  0.3042851E+002  0.2078055E+03  0.7546771E-02  0.1143316E+00
         21   -1    0    0  506  501  0.00000000000E+00  0.00000000000E+00  0.63412877442E+03  0.63412877442E+03  0.00000000000E+00 0. -1.
         21   -1    0    0  503  502 -0.00000000000E+00 -0.00000000000E+00 -0.25719392021E+03  0.25719392021E+03  0.00000000000E+00 0.  1.
         21    1    1    2  503  501 -0.23115937474E+03 -0.66762817251E+02  0.51829240190E+03  0.57141836177E+03  0.00000000000E+00 0. -1.
         21    1    1    2  504  505  0.12138262503E+03  0.66186412508E+02 -0.10945687667E+03  0.17633828486E+03  0.00000000000E+00 0.  1.
         21    1    1    2  505  502  0.65919997793E+02 -0.24450822239E+01 -0.61807503597E+02  0.90396858557E+02  0.00000000000E+00 0.  1.
         21    1    1    2  506  504  0.43856751921E+02  0.30214869666E+01  0.29906832573E+02  0.53169189453E+02  0.00000000000E+00 0.  1.
<scales pt_clust_3="201.27646" pt_clust_4="35.69835" pt_clust_5="35.69835" pt_clust_6="43.96071"></scales>
<clustering>
<clus scale="   35.698">  4  5 -1 -1</clus>
<clus scale="   43.961">  1  6  2 -1</clus>
<clus scale="  201.276">  1  3  2 -1</clus>
<clus scale="   43.961">  1  3  2 -1</clus>
</clustering>
</event>
<event>
 6    0  0.3042851E+002  0.2219996E+03  0.7546771E-02  0.1132401E+00
         21   -1    0    0  504  501  0.00000000000E+00  0.00000000000E+00  0.39195168971E+03  0.39195168971E+03  0.00000000000E+00 0.  1.
         21   -1    0    0  503  502 -0.00000000000E+00 -0.00000000000E+00 -0.79495910792E+03  0.79495910792E+03  0.00000000000E+00 0.  1.
         21    1    1    2  503  501  0.13989697741E+03  0.11221748758E+03  0.22793623628E+03  0.29003250959E+03  0.00000000000E+00 0.  1.
         21    1    1    2  504  506  0.79584971179E+02 -0.84082462996E+02  0.86579968755E+02  0.14456735181E+03  0.00000000000E+00 0.  1.
         21    1    1    2  505  502 -0.89085858309E+02  0.29594913896E+01 -0.34763426138E+03  0.35887968517E+03  0.00000000000E+00 0.  1.
         21    1    1    2  506  505 -0.13039609028E+03 -0.31094515974E+02 -0.36988936187E+03  0.39343125106E+03  0.00000000000E+00 0.  1.
<scales pt_clust_3="217.06255" pt_clust_4="115.77404" pt_clust_5="37.96519" pt_clust_6="37.96519"></scales>
<clustering>
<clus scale="   37.965">  5  6 -1 -1</clus>
<clus scale="  115.774">  1  4  2 -1</clus>
<clus scale="  217.063">  1  3  2 -1</clus>
<clus scale="  115.774">  1  3  2 -1</clus>
</clustering>
</event>
<event>
 6    0  0.3042851E+002  0.1158683E+03  0.7546771E-02  0.1250073E+00
         21   -1    0    0  506  501  0.00000000000E+00  0.00000000000E+00  0.45881672212E+03  0.45881672212E+03  0.00000000000E+00 0.  1.
         21   -1    0    0  503  502 -0.00000000000E+00 -0.00000000000E+00 -0.27831280385E+03  0.27831280385E+03  0.00000000000E+00 0.  1.
         21    1    1    2  503  504  0.85524369206E+02  0.98084773328E+02 -0.21905296085E+03  0.25479254334E+03  0.00000000000E+00 0.  1.
         21    1    1    2  504  505 -0.93713891138E+02 -0.22698117860E+02  0.31546311815E+03  0.32987039403E+03  0.00000000000E+00 0.  1.
         21    1    1    2  505  501 -0.30620621098E+01 -0.43769288251E+02  0.10439746693E+03  0.11324291554E+03  0.00000000000E+00 0.  1.
         21    1    1    2  506  502  0.11251584042E+02 -0.31617367217E+02 -0.20303705960E+02  0.39223673068E+02  0.00000000000E+00 0. -1.
<scales pt_clust_3="115.86830" pt_clust_4="14000.00000" pt_clust_5="44.42417" pt_clust_6="33.55974"></scales>
<clustering>
<clus scale="   33.560">  2  6  1 -1</clus>
<clus scale="   44.424">  1  5  2 -1</clus>
<clus scale="  115.868">  2  3  1 -1</clus>
<clus scale="   44.424">  1  3  2 -1</clus>
</clustering>
</event>
<event>
 6    0  0.3042851E+002  0.9889965E+02  0.7546771E-02  0.1282627E+00
         21   -1    0    0  505  501  0.00000000000E+00  0.00000000000E+00  0.39126545751E+03  0.39126545751E+03  0.00000000000E+00 0.  1.
         21   -1    0    0  503  502 -0.00000000000E+00 -0.00000000000E+00 -0.12210950533E+03  0.12210950533E+03  0.00000000000E+00 0.  1.
         21    1    1    2  503  504 -0.15831055136E+02  0.64257199026E+02 -0.82677575546E+01  0.66693071217E+02  0.00000000000E+00 0.  1.
         21    1    1    2  504  506 -0.51054835213E+02 -0.44225843986E+02  0.23274842606E+03  0.24235170993E+03  0.00000000000E+00 0.  1.
         21    1    1    2  505  502  0.71986387288E+02  0.39862248719E+02 -0.46956625569E+02  0.94741561696E+02  0.00000000000E+00 0.  1.
         21    1    1    2  506  501 -0.51004969389E+01 -0.59893603759E+02  0.91631909246E+02  0.10958862000E+03  0.00000000000E+00 0.  1.
<scales pt_clust_3="60.48739" pt_clust_4="14000.00000" pt_clust_5="98.89965" pt_clust_6="60.11039"></scales>
<clustering>
<clus scale="   60.110">  1  6  2 -1</clus>
<clus scale="   60.487">  2  3  1 -1</clus>
<clus scale="   98.900">  2  5  1 -1</clus>
<clus scale="   60.110">  1  3  2 -1</clus>
</clustering>
</event>
<event>
 6    0  0.3042851E+002  0.9698426E+02  0.7546771E-02  0.1286769E+00
         21   -1    0    0  505  501  0.00000000000E+00  0.00000000000E+00  0.25507386646E+03  0.25507386646E+03  0.00000000000E+00 0. -1.
         21   -1    0    0  506  502 -0.00000000000E+00 -0.00000000000E+00 -0.16888589947E+03  0.16888589947E+03  0.00000000000E+00 0. -1.
         21    1    1    2  503  502 -0.10401944411E+03 -0.18608382702E+02 -0.81647923870E+02  0.13353913334E+03  0.00000000000E+00 0. -1.
         21    1    1    2  504  503  0.85337542607E+02 -0.49664349980E+00 -0.11018544756E+02  0.86047377423E+02  0.00000000000E+00 0. -1.
         21    1    1    2  505  504 -0.37719561358E+02  0.14838477203E+02  0.94323125382E+02  0.10266351687E+03  0.00000000000E+00 0. -1.
         21    1    1    2  506  501  0.56401462861E+02  0.42665489987E+01  0.84531310233E+02  0.10170973829E+03  0.00000000000E+00 0. -1.
<scales pt_clust_3="14000.00000" pt_clust_4="96.98426" pt_clust_5="40.53327" pt_clust_6="36.40442"></scales>
<clustering>
<clus scale="   40.533">  1  5  2 -1</clus>
<clus scale="   36.404">  1  6  2 -1</clus>
<clus scale="   96.984">  1  4  2 -1</clus>
<clus scale="   40.533">  1  3  2 -1</clus>
</clustering>
</event>
<event>
 6    0  0.3042851E+002  0.3630968E+03  0.7546771E-02  0.1057364E+00
         21   -1    0    0  504  501  0.00000000000E+00  0.00000000000E+00  0.53429826307E+03  0.53429826307E+03  0.00000000000E+00 0.  1.
         21   -1    0    0  505  502 -0.00000000000E+00 -0.00000000000E+00 -0.27136683848E+03  0.27136683848E+03  0.00000000000E+00 0.  1.
         21    1    1    2  503  502  0.41753946996E+02  0.10632092121E+03  0.11083719527E+03  0.15916159786E+03  0.00000000000E+00 0.  1.
         21    1    1    2  504  503  0.20256563116E+03  0.13994449582E+03  0.15649256475E+03  0.29173141699E+03  0.00000000000E+00 0.  1.
         21    1    1    2  505  506 -0.55466055173E+02 -0.27516204213E+02  0.19180038141E+02  0.64818968164E+02  0.00000000000E+00 0. -1.
         21    1    1    2  506  501 -0.18885352298E+03 -0.21874921282E+03 -0.23578373568E+02  0.28995311855E+03  0.00000000000E+00 0.  1.
<scales pt_clust_3="73.04545" pt_clust_4="73.04545" pt_clust_5="34.34349" pt_clust_6="354.74482"></scales>
<clustering>
<clus scale="   34.343">  5  6 -1 -1</clus>
<clus scale="   73.045">  3  4 -1 -1</clus>
<clus scale="  354.745">  2  5  1 -1</clus>
<clus scale="  363.097">  1  3  2 -1</clus>
</clustering>
</event>
<event>
 6    0  0.3042851E+002  0.1816733E+03  0.7546771E-02  0.1166193E+00
         21   -1    0    0  504  501  0.00000000000E+00  0.00000000000E+00  0.23945924720E+03  0.23945924720E+03  0.00000000000E+00 0.  1.
         21   -1    0    0  505  502 -0.00000000000E+00 -0.00000000000E+00 -0.13458677625E+03  0.13458677625E+03  0.00000000000E+00 0.  1.
         21    1    1    2  503  502 -0.11377903331E+02  0.94486326497E+02  0.67656518432E+00  0.95171320888E+02  0.00000000000E+00 0.  1.
         21    1    1    2  504  503  0.10500848811E+02  0.75380726871E+02  0.58176965971E+02  0.95797083352E+02  0.00000000000E+00 0.  1.
         21    1    1    2  505  506  0.20650523473E+02 -0.12520178406E+03  0.22533744373E+02  0.12887862696E+03  0.00000000000E+00 0.  1.
         21    1    1    2  506  501 -0.19773468953E+02 -0.44665269305E+02  0.23485195423E+02  0.54198992248E+02  0.00000000000E+00 0.  1.
<scales pt_clust_3="57.60669" pt_clust_4="57.60669" pt_clust_5="177.19953" pt_clust_6="31.29414"></scales>
<clustering>
<clus scale="   31.294">  5  6 -1 -1</clus>
<clus scale="   57.607">  3  4 -1 -1</clus>
<clus scale="  177.200">  2  5  1 -1</clus>
<clus scale="  181.673">  1  3  2 -1</clus>
</clustering>
</event>
<event>
 6    0  0.3042851E+002  0.1375326E+03  0.7546771E-02  0.1216688E+00
         21   -1    0    0  505  501  0.00000000000E+00  0.00000000000E+00  0.16328069575E+03  0.16328069575E+03  0.00000000000E+00 0.  1.
         21   -1    0    0  503  502 -0.00000000000E+00 -0.00000000000E+00 -0.25154698884E+03  0.25154698884E+03  0.00000000000E+00 0. -1.
         21    1    1    2  503  506 -0.69400537973E+02  0.53137549873E+01  0.28687084694E+02  0.75283593772E+02  0.00000000000E+00 0.  1.
         21    1    1    2  504  502  0.69785244070E+02 -0.17340138841E+02 -0.85992062388E+02  0.11209502888E+03  0.00000000000E+00 0. -1.
         21    1    1    2  505  504  0.59355044431E+02  0.99668811022E+01 -0.11176425434E+03  0.12693938934E+03  0.00000000000E+00 0. -1.
         21    1    1    2  506  501 -0.59739750528E+02  0.20595027513E+01  0.80802938944E+02  0.10050967260E+03  0.00000000000E+00 0.  1.
<scales pt_clust_3="43.30459" pt_clust_4="134.27543" pt_clust_5="32.96485" pt_clust_6="43.30459"></scales>
<clustering>
<clus scale="   32.965">  4  5 -1 -1</clus>
<clus scale="   43.305">  3  6 -1 -1</clus>
<clus scale="  134.275">  2  4  1 -1</clus>
<clus scale="  137.533">  1  3  2 -1</clus>
</clustering>
</event>
<event>
 6    0  0.3042851E+002  0.1346000E+03  0.7546771E-02  0.1220785E+00
         21   -1    0    0  505  501  0.00000000000E+00  0.00000000000E+00  0.16531840472E+03  0.16531840472E+03  0.00000000000E+00 0.  1.
         21   -1    0    0  506  502 -0.00000000000E+00 -0.00000000000E+00 -0.44569912135E+03  0.44569912135E+03  0.00000000000E+00 0. -1.
         21    1    1    2  503  502  0.31735470582E+02  0.47882501263E+02 -0.17856544291E+03  0.18757796092E+03  0.00000000000E+00 0. -1.
         21    1    1    2  504  501 -0.90259776997E+01 -0.39189442289E+02 -0.17704632476E+02  0.43940125984E+02  0.00000000000E+00 0.  1.
         21    1    1    2  505  503 -0.13459336414E+03  0.22388831303E+02  0.94845962962E+02  0.16616976298E+03  0.00000000000E+00 0.  1.
         21    1    1    2  506  504  0.11188387126E+03 -0.31081890277E+02 -0.17895660421E+03  0.21332967618E+03  0.00000000000E+00 0.  1.
<scales pt_clust_3="56.33129" pt_clust_4="40.21543" pt_clust_5="14000.00000" pt_clust_6="134.60001"></scales>
<clustering>
<clus scale="   40.215">  1  4  2 -1</clus>
<clus scale="   56.331">  2  3  1 -1</clus>
<clus scale="  134.600">  2  6  1 -1</clus>
<clus scale="   40.215">  1  3  2 -1</clus>
</clustering>
</event>
<event>
 6    0  0.3042851E+002  0.1187105E+03  0.7546771E-02  0.1245240E+00
         21   -1    0    0  503  501  0.00000000000E+00  0.00000000000E+00  0.35847377433E+03  0.35847377433E+03  0.00000000000E+00 0. -1.
         21   -1    0    0  505  502 -0.00000000000E+00 -0.00000000000E+00 -0.23586543013E+03  0.23586543013E+03  0.00000000000E+00 0. -1.
         21    1    1    2  503  506  0.30590511622E+02 -0.70726132585E+01  0.67401173610E+02  0.74355359347E+02  0.00000000000E+00 0. -1.
         21    1    1    2  504  501  0.21756701410E+02  0.28766504484E+02  0.82944104635E+01  0.37008959475E+02  0.00000000000E+00 0.  1.
         21    1    1    2  505  504 -0.10462672451E+03 -0.63557167548E+02 -0.19594968366E+03  0.23104662636E+03  0.00000000000E+00 0. -1.
         21    1    1    2  506  502  0.52279511480E+02  0.41863276323E+02  0.24286244378E+03  0.25192825928E+03  0.00000000000E+00 0. -1.
<scales pt_clust_3="31.39747" pt_clust_4="37.14529" pt_clust_5="118.71048" pt_clust_6="14000.00000"></scales>
<clustering>
<clus scale="   31.397">  1  3  2 -1</clus>
<clus scale="   37.145">  1  4  2 -1</clus>
<clus scale="  118.710">  2  5  1 -1</clus>
<clus scale="   31.397">  1  3  2 -1</clus>
</clustering>
</event>
<event>
 6    0  0.3042851E+002  0.8994693E+02  0.7546771E-02  0.1302980E+00
         21   -1    0    0  504  501  0.00000000000E+00  0.00000000000E+00  0.13655353268E+03  0.13655353268E+03  0.00000000000E+00 0. -1.
         21   -1    0    0  505  502 -0.00000000000E+00 -0.00000000000E+00 -0.22759020740E+03  0.22759020740E+03  0.00000000000E+00 0.  1.
         21    1    1    2  503  501 -0.39648920801E+02  0.24878158697E+02  0.12033805281E+02  0.48329826923E+02  0.00000000000E+00 0. -1.
         21    1    1    2  504  506  0.42376437849E+02  0.44109702820E+02  0.31307771161E+02  0.68713935288E+02  0.00000000000E+00 0. -1.
         21    1    1    2  505  503 -0.65539311982E+02  0.41498872981E+02 -0.70652612338E+02  0.10492544736E+03  0.00000000000E+00 0.  1.
         21    1    1    2  506  502  0.62811794934E+02 -0.11048673450E+03 -0.63725638826E+02  0.14217453051E+03  0.00000000000E+00 0. -1.
<scales pt_clust_3="46.80769" pt_clust_4="60.64408" pt_clust_5="89.94693" pt_clust_6="14000.00000"></scales>
<clustering>
<clus scale="   46.808">  1  3  2 -1</clus>
<clus scale="   60.644">  1  4  2 -1</clus>
<clus scale="   89.947">  2  5  1 -1</clus>
<clus scale="   46.808">  1  3  2 -1</clus>
</clustering>
</event>
<event>
 6    0  0.3042851E+002  0.8119685E+02  0.7546771E-02  0.1325689E+00
         21   -1    0    0  505  501  0.00000000000E+00  0.00000000000E+00  0.30056699043E+04  0.30056699043E+04  0.00000000000E+00 0. -1.
         21   -1    0    0  506  502 -0.00000000000E+00 -0.00000000000E+00 -0.28419832012E+02  0.28419832012E+02  0.00000000000E+00 0. -1.
         21    1    1    2  503  502  0.36582677123E+02 -0.34074002073E+02  0.78240653658E+02  0.92848962125E+02  0.00000000000E+00 0. -1.
         21    1    1    2  504  501 -0.25692043134E+02 -0.59847983588E+02  0.17248518777E+04  0.17260810706E+04  0.00000000000E+00 0. -1.
         21    1    1    2  505  503 -0.62283998810E+02  0.45056773721E+02  0.11278424616E+04  0.11304592109E+04  0.00000000000E+00 0. -1.
         21    1    1    2  506  504  0.51393364820E+02  0.48865211940E+02  0.46315079300E+02  0.84700492655E+02  0.00000000000E+00 0. -1.
<scales pt_clust_3="49.99330" pt_clust_4="65.63518" pt_clust_5="14000.00000" pt_clust_6="81.19685"></scales>
<clustering>
<clus scale="   49.993">  2  3  1 -1</clus>
<clus scale="   65.635">  1  4  2 -1</clus>
<clus scale="   81.197">  2  6  1 -1</clus>
<clus scale="   65.635">  1  3  2 -1</clus>
</clustering>
</event>
<event>
 6    0  0.3042851E+002  0.1190173E+03  0.7546771E-02  0.1244727E+00
         21   -1    0    0  503  501  0.00000000000E+00  0.00000000000E+00  0.46797856735E+02  0.46797856735E+02  0.00000000000E+00 0. -1.
         21   -1    0    0  505  502 -0.00000000000E+00 -0.00000000000E+00 -0.10010671280E+04  0.10010671280E+04  0.00000000000E+00 0. -1.
         21    1    1    2  503  502  0.69623207692E+02 -0.43609316633E+02 -0.47465660207E+03  0.48171366333E+03  0.00000000000E+00 0. -1.
         21    1    1    2  504  501 -0.27985755349E+01  0.61321875322E+02 -0.25528570749E+02  0.66482421305E+02  0.00000000000E+00 0. -1.
         21    1    1    2  505  506 -0.16658011183E+02 -0.57239165467E+02 -0.42557052726E+03  0.42972559276E+03  0.00000000000E+00 0. -1.
         21    1    1    2  506  504 -0.50166620974E+02  0.39526606778E+02 -0.28513571218E+02  0.69943307378E+02  0.00000000000E+00 0. -1.
<scales pt_clust_3="107.00196" pt_clust_4="51.08987" pt_clust_5="59.61385" pt_clust_6="51.08987"></scales>
<clustering>
<clus scale="   51.090">  4  6 -1 -1</clus>
<clus scale="   59.614">  2  5  1 -1</clus>
<clus scale="  107.002">  2  3  1 -1</clus>
<clus scale="  119.017">  1  3  2 -1</clus>
</clustering>
</event>
<event>
 6    0  0.3042851E+002  0.9927466E+02  0.7546771E-02  0.1281829E+00
         21   -1    0    0  503  501  0.00000000000E+00  0.00000000000E+00  0.27645939887E+02  0.27645939887E+02  0.00000000000E+00 0. -1.
         21   -1    0    0  504  502 -0.00000000000E+00 -0.00000000000E+00 -0.75857824720E+03  0.75857824720E+03  0.00000000000E+00 0. -1.
         21    1    1    2  503  506  0.64617477912E+02  0.69511319691E+02 -0.16780487132E+03  0.19278411982E+03  0.00000000000E+00 0. -1.
         21    1    1    2  504  505 -0.38301390581E+02 -0.61969246449E+02 -0.34115296849E+03  0.34884456702E+03  0.00000000000E+00 0. -1.
         21    1    1    2  505  501 -0.63952774486E+02  0.18224079825E+00 -0.14838066813E+03  0.16157602932E+03  0.00000000000E+00 0.  1.
         21    1    1    2  506  502  0.37636687155E+02 -0.77243140402E+01 -0.73593799370E+02  0.83019470927E+02  0.00000000000E+00 0. -1.
<scales pt_clust_3="37.75332" pt_clust_4="79.59085" pt_clust_5="63.95303" pt_clust_6="37.75332"></scales>
<clustering>
<clus scale="   37.753">  3  6 -1 -1</clus>
<clus scale="   63.953">  1  5  2 -1</clus>
<clus scale="   79.591">  2  4  1 -1</clus>
<clus scale="   63.953">  1  3  2 -1</clus>
</clustering>
</event>
<event>
 6    0  0.3042851E+002  0.9436508E+02  0.7546771E-02  0.1292613E+00
         21   -1    0    0  505  501  0.00000000000E+00  0.00000000000E+00  0.41788264452E+02  0.41788264452E+02  0.00000000000E+00 0.  1.
         21   -1    0    0  503  502 -0.00000000000E+00 -0.00000000000E+00 -0.25059697330E+04  0.25059697330E+04  0.00000000000E+00 0. -1.
         21    1    1    2  503  504 -0.26273514508E+02 -0.38218153523E+02 -0.14335123190E+04  0.14342623517E+04  0.00000000000E+00 0. -1.
         21    1    1    2  504  506 -0.10422979655E+01 -0.45052145051E+02 -0.89567426798E+03  0.89680721255E+03  0.00000000000E+00 0. -1.
         21    1    1    2  505  502  0.75075103698E+01  0.11932827776E+03 -0.66568209382E+02  0.13684636307E+03  0.00000000000E+00 0.  1.
         21    1    1    2  506  501  0.19808302103E+02 -0.36057979185E+02 -0.68426672223E+02  0.79842070155E+02  0.00000000000E+00 0.  1.
<scales pt_clust_3="32.61959" pt_clust_4="32.61959" pt_clust_5="88.37256" pt_clust_6="41.14057"></scales>
<clustering>
<clus scale="   32.620">  3  4 -1 -1</clus>
<clus scale="   41.141">  1  6  2 -1</clus>
<clus scale="   88.373">  1  5  2 -1</clus>
<clus scale="   41.141">  1  3  2 -1</clus>
</clustering>
</event>
<event>
 6    0  0.3042851E+002  0.1232457E+03  0.7546771E-02  0.1237837E+00
         21   -1    0    0  503  501  0.00000000000E+00  0.00000000000E+00  0.10302379206E+03  0.10302379206E+03  0.00000000000E+00 0.  1.
         21   -1    0    0  504  502 -0.00000000000E+00 -0.00000000000E+00 -0.22447897281E+03  0.22447897281E+03  0.00000000000E+00 0.  1.
         21    1    1    2  503  505 -0.40622415224E+02  0.21925073215E+02 -0.30895806957E+02  0.55546740154E+02  0.00000000000E+00 0.  1.
         21    1    1    2  504  506  0.90806455242E+02 -0.38935907374E+02 -0.24206390304E+02  0.10172397224E+03  0.00000000000E+00 0.  1.
         21    1    1    2  505  502 -0.92037638327E+02 -0.24738242325E+02 -0.54999278552E+02  0.11003557672E+03  0.00000000000E+00 0.  1.
         21    1    1    2  506  501  0.41853598309E+02  0.41749076484E+02 -0.11353704930E+02  0.60196475763E+02  0.00000000000E+00 0.  1.
<scales pt_clust_3="34.32805" pt_clust_4="112.94496" pt_clust_5="34.32805" pt_clust_6="59.11606"></scales>
<clustering>
<clus scale="   34.328">  3  5 -1 -1</clus>
<clus scale="   59.116">  1  6  2 -1</clus>
<clus scale="  112.945">  1  4  2 -1</clus>
<clus scale="   59.116">  1  3  2 -1</clus>
</clustering>
</event>
<event>
 6    0  0.3042851E+002  0.8241603E+02  0.7546771E-02  0.1322332E+00
         21   -1    0    0  503  501  0.00000000000E+00  0.00000000000E+00  0.81035178675E+02  0.81035178675E+02  0.00000000000E+00 0. -1.
         21   -1    0    0  506  502 -0.00000000000E+00 -0.00000000000E+00 -0.33706274995E+03  0.33706274995E+03  0.00000000000E+00 0. -1.
         21    1    1    2  503  502  0.23556199853E+02 -0.43916935298E+02 -0.63286865604E+01  0.50235883898E+02  0.00000000000E+00 0. -1.
         21    1    1    2  504  501 -0.48793515751E+02  0.12576316913E+03 -0.54765898474E+02  0.14559012853E+03  0.00000000000E+00 0. -1.
         21    1    1    2  505  504  0.40112021007E+02 -0.34195781960E+02 -0.13065838503E+03  0.14088981266E+03  0.00000000000E+00 0. -1.
         21    1    1    2  506  505 -0.14874705109E+02 -0.47650451871E+02 -0.64274601204E+02  0.81382103533E+02  0.00000000000E+00 0. -1.
<scales pt_clust_3="49.83565" pt_clust_4="82.41603" pt_clust_5="14000.00000" pt_clust_6="55.21202"></scales>
<clustering>
<clus scale="   49.836">  1  3  2 -1</clus>
<clus scale="   55.212">  2  6  1 -1</clus>
<clus scale="   82.416">  1  4  2 -1</clus>
<clus scale="   49.836">  1  3  2 -1</clus>
</clustering>
</event>
<event>
 6    0  0.3042851E+002  0.1359282E+03  0.7546771E-02  0.1218915E+00
         21   -1    0    0  503  501  0.00000000000E+00  0.00000000000E+00  0.15756593779E+04  0.15756593779E+04  0.00000000000E+00 0.  1.
         21   -1    0    0  505  502 -0.00000000000E+00 -0.00000000000E+00 -0.43464294256E+02  0.43464294256E+02  0.00000000000E+00 0.  1.
         21    1    1    2  503  504 -0.13833094581E+02  0.38619150357E+02  0.52987039388E+02  0.67010593364E+02  0.00000000000E+00 0.  1.
         21    1    1    2  504  502 -0.19509365502E+02  0.80584584082E+02  0.18316717096E+02  0.84911675635E+02  0.00000000000E+00 0.  1.
         21    1    1    2  505  506  0.30729306798E+02 -0.20347804241E+02  0.36373262718E+03  0.36559505947E+03  0.00000000000E+00 0.  1.
         21    1    1    2  506  501  0.26131532852E+01 -0.98855930198E+02  0.10971587000E+04  0.11016063437E+04  0.00000000000E+00 0.  1.
<scales pt_clust_3="36.37905" pt_clust_4="134.14973" pt_clust_5="34.29175" pt_clust_6="34.29175"></scales>
<clustering>
<clus scale="   34.292">  5  6 -1 -1</clus>
<clus scale="   36.379">  3  4 -1 -1</clus>
<clus scale="  134.150">  2  3  1 -1</clus>
<clus scale="  135.928">  1  3  2 -1</clus>
</clustering>
</event>
<event>
 6    0  0.3042851E+002  0.1329925E+03  0.7546771E-02  0.1223082E+00
         21   -1    0    0  506  501  0.00000000000E+00  0.00000000000E+00  0.62150729306E+03  0.62150729306E+03  0.00000000000E+00 0.  1.
         21   -1    0    0  505  502 -0.00000000000E+00 -0.00000000000E+00 -0.13594279574E+04  0.13594279574E+04  0.00000000000E+00 0.  1.
         21    1    1    2  503  502  0.13058583727E+03 -0.30149830197E+02 -0.13186775452E+04  0.13254705358E+04  0.00000000000E+00 0.  1.
         21    1    1    2  504  503 -0.49466854646E+02  0.46119702367E+02  0.24085515119E+03  0.25017034299E+03  0.00000000000E+00 0.  1.
         21    1    1    2  505  501 -0.34062182047E+02  0.23582907393E+02 -0.15785186976E+02  0.44334612830E+02  0.00000000000E+00 0.  1.
         21    1    1    2  506  504 -0.47056800576E+02 -0.39552779563E+02  0.35568691661E+03  0.36095975884E+03  0.00000000000E+00 0.  1.
<scales pt_clust_3="14000.00000" pt_clust_4="132.99245" pt_clust_5="41.42929" pt_clust_6="71.88361"></scales>
<clustering>
<clus scale="   41.429">  1  5  2 -1</clus>
<clus scale="   71.884">  1  6  2 -1</clus>
<clus scale="  132.992">  1  4  2 -1</clus>
<clus scale="   41.429">  1  3  2 -1</clus>
</clustering>
</event>
<event>
 6    0  0.3042851E+002  0.9511074E+02  0.7546771E-02  0.1290927E+00
         21   -1    0    0  503  501  0.00000000000E+00  0.00000000000E+00  0.41394386712E+03  0.41394386712E+03  0.00000000000E+00 0. -1.
         21   -1    0    0  505  502 -0.00000000000E+00 -0.00000000000E+00 -0.49571114888E+02  0.49571114888E+02  0.00000000000E+00 0. -1.
         21    1    1    2  503  504 -0.93864271021E+02  0.22072609520E+02  0.15970928619E+03  0.18656033223E+03  0.00000000000E+00 0. -1.
         21    1    1    2  504  506  0.94629406320E+02 -0.75147775561E+00  0.98090507356E+02  0.13629760413E+03  0.00000000000E+00 0. -1.
         21    1    1    2  505  501  0.12457099396E+02 -0.52921653494E+02  0.82444388377E+02  0.98757065108E+02  0.00000000000E+00 0.  1.
         21    1    1    2  506  502 -0.13222234695E+02  0.31600521730E+02  0.24128570308E+02  0.41899980537E+02  0.00000000000E+00 0.  1.
<scales pt_clust_3="95.11074" pt_clust_4="14000.00000" pt_clust_5="47.60752" pt_clust_6="34.25523"></scales>
<clustering>
<clus scale="   34.255">  2  6  1 -1</clus>
<clus scale="   47.608">  2  5  1 -1</clus>
<clus scale="   95.111">  1  3  2 -1</clus>
<clus scale="   95.111">  1  3  2 -1</clus>
</clustering>
</event>
<event>
 6    0  0.3042851E+002  0.1288241E+03  0.7546771E-02  0.1229211E+00
         21   -1    0    0  504  501  0.00000000000E+00  0.00000000000E+00  0.29501389931E+04  0.29501389931E+04  0.00000000000E+00 0.  1.
         21   -1    0    0  503  502 -0.00000000000E+00 -0.00000000000E+00 -0.45511066852E+03  0.45511066852E+03  0.00000000000E+00 0. -1.
         21    1    1    2  503  505 -0.71240862353E+02  0.68009078720E+02 -0.38489521010E+03  0.39729688900E+03  0.00000000000E+00 0. -1.
         21    1    1    2  504  506  0.40336328473E+02  0.95183855314E+02  0.77959714931E+03  0.78642145248E+03  0.00000000000E+00 0.  1.
         21    1    1    2  505  501 -0.13878898636E+02 -0.15046649099E+03  0.21489249221E+04  0.21542309787E+04  0.00000000000E+00 0.  1.
         21    1    1    2  506  502  0.44783432516E+02 -0.12726443039E+02 -0.48598536759E+02  0.67300341421E+02  0.00000000000E+00 0.  1.
<scales pt_clust_3="61.76041" pt_clust_4="128.82409" pt_clust_5="14000.00000" pt_clust_6="46.55661"></scales>
<clustering>
<clus scale="   46.557">  2  6  1 -1</clus>
<clus scale="   61.760">  2  3  1 -1</clus>
<clus scale="  128.824">  2  4  1 -1</clus>
<clus scale="  128.824">  1  3  2 -1</clus>
</clustering>
</event>
<event>
 6    0  0.3042851E+002  0.1001501E+03  0.7546771E-02  0.1279981E+00
         21   -1    0    0  505  501  0.00000000000E+00  0.00000000000E+00  0.24780152829E+03  0.24780152829E+03  0.00000000000E+00 0.  1.
         21   -1    0    0  503  502 -0.00000000000E+00 -0.00000000000E+00 -0.31743295783E+03  0.31743295783E+03  0.00000000000E+00 0.  1.
         21    1    1    2  503  501  0.14938703702E+03 -0.56967493753E+02 -0.15707914779E+03  0.22413308735E+03  0.00000000000E+00 0.  1.
         21    1    1    2  504  506 -0.44959791077E+01  0.39243634452E+02  0.73300910940E+02  0.83266441126E+02  0.00000000000E+00 0.  1.
         21    1    1    2  505  504 -0.50732875626E+02  0.27541949602E+02  0.10930153710E+03  0.12360910027E+03  0.00000000000E+00 0.  1.
         21    1    1    2  506  502 -0.94158182289E+02 -0.98180903006E+01 -0.95154729781E+02  0.13422585738E+03  0.00000000000E+00 0.  1.
<scales pt_clust_3="89.92633" pt_clust_4="36.46540" pt_clust_5="36.46540" pt_clust_6="94.66868"></scales>
<clustering>
<clus scale="   36.465">  4  5 -1 -1</clus>
<clus scale="   94.669">  2  6  1 -1</clus>
<clus scale="   89.926">  2  3  1 -1</clus>
<clus scale="  100.150">  1  3  2 -1</clus>
</clustering>
</event>
<event>
 6    0  0.3042851E+002  0.8701285E+02  0.7546771E-02  0.1310251E+00
         21   -1    0    0  505  501  0.00000000000E+00  0.00000000000E+00  0.12662320267E+03  0.12662320267E+03  0.00000000000E+00 0.  1.
         21   -1    0    0  503  502 -0.00000000000E+00 -0.00000000000E+00 -0.55531672164E+03  0.55531672164E+03  0.00000000000E+00 0.  1.
         21    1    1    2  503  506  0.61330927591E+02  0.41375645955E+02 -0.27156982528E+03  0.28146686619E+03  0.00000000000E+00 0.  1.
         21    1    1    2  504  502 -0.48847514154E+02 -0.71705949938E+01 -0.18271095340E+03  0.18926380944E+03  0.00000000000E+00 0.  1.
         21    1    1    2  505  504  0.49037453011E+02  0.37981466967E+02 -0.57901772862E+02  0.84852100336E+02  0.00000000000E+00 0. -1.
         21    1    1    2  506  501 -0.61520866448E+02 -0.72186517928E+02  0.83489032573E+02  0.12635714835E+03  0.00000000000E+00 0.  1.
<scales pt_clust_3="43.69773" pt_clust_4="49.37101" pt_clust_5="14000.00000" pt_clust_6="87.01285"></scales>
<clustering>
<clus scale="   49.371">  2  4  1 -1</clus>
<clus scale="   43.698">  2  3  1 -1</clus>
<clus scale="   87.013">  1  6  2 -1</clus>
<clus scale="   87.013">  1  3  2 -1</clus>
</clustering>
</event>
<event>
 6    0  0.3042851E+002  0.9907422E+02  0.7546771E-02  0.1282255E+00
         21   -1    0    0  506  501  0.00000000000E+00  0.00000000000E+00  0.19995356601E+03  0.19995356601E+03  0.00000000000E+00 0. -1.
         21   -1    0    0  504  502 -0.00000000000E+00 -0.00000000000E+00 -0.32802761180E+03  0.32802761180E+03  0.00000000000E+00 0. -1.
         21    1    1    2  503  502  0.88803200204E+01 -0.92119558963E+02  0.11472740784E+02  0.93255010634E+02  0.00000000000E+00 0. -1.
         21    1    1    2  504  505 -0.41507416779E+02  0.92050425561E+02 -0.26658387695E+03  0.28506685171E+03  0.00000000000E+00 0. -1.
         21    1    1    2  505  501  0.11276138989E+02  0.33904361644E+02  0.81830904505E+02  0.89291399256E+02  0.00000000000E+00 0. -1.
         21    1    1    2  506  503  0.21350957770E+02 -0.33835228242E+02  0.45206185870E+02  0.60367916220E+02  0.00000000000E+00 0. -1.
<scales pt_clust_3="14000.00000" pt_clust_4="99.07422" pt_clust_5="35.73034" pt_clust_6="32.18706"></scales>
<clustering>
<clus scale="   35.730">  1  5  2 -1</clus>
<clus scale="   32.187">  1  6  2 -1</clus>
<clus scale="   99.074">  2  4  1 -1</clus>
<clus scale="   35.730">  1  3  2 -1</clus>
</clustering>
</event>
<event>
 6    0  0.3042851E+002  0.1836573E+03  0.7546771E-02  0.1164310E+00
         21   -1    0    0  505  501  0.00000000000E+00  0.00000000000E+00  0.18072815109E+04  0.18072815109E+04  0.00000000000E+00 0. -1.
         21   -1    0    0  503  502 -0.00000000000E+00 -0.00000000000E+00 -0.18553001822E+03  0.18553001822E+03  0.00000000000E+00 0. -1.
         21    1    1    2  503  504  0.58540052521E+02 -0.10064996823E+03 -0.12333292882E+03  0.16961239691E+03  0.00000000000E+00 0. -1.
         21    1    1    2  504  506  0.40046277004E+02 -0.40996930588E+02 -0.93330015789E+01  0.58065114638E+02  0.00000000000E+00 0. -1.
         21    1    1    2  505  502 -0.39856969551E+02  0.31908750540E+02  0.22781425573E+03  0.23346537537E+03  0.00000000000E+00 0.  1.
         21    1    1    2  506  501 -0.58729359974E+02  0.10973814827E+03  0.15266031674E+04  0.15316686422E+04  0.00000000000E+00 0. -1.
<scales pt_clust_3="46.82007" pt_clust_4="46.82007" pt_clust_5="51.05631" pt_clust_6="171.10322"></scales>
<clustering>
<clus scale="   46.820">  3  4 -1 -1</clus>
<clus scale="   51.056">  1  5  2 -1</clus>
<clus scale="  171.103">  1  6  2 -1</clus>
<clus scale="   51.056">  1  3  2 -1</clus>
</clustering>
</event>
<event>
 6    0  0.3042851E+002  0.1790569E+03  0.7546771E-02  0.1168719E+00
         21   -1    0    0  503  501  0.00000000000E+00  0.00000000000E+00  0.34543160228E+03  0.34543160228E+03  0.00000000000E+00 0.  1.
         21   -1    0    0  504  502 -0.00000000000E+00 -0.00000000000E+00 -0.16595734245E+04  0.16595734245E+04  0.00000000000E+00 0. -1.
         21    1    1    2  503  502 -0.22507237991E+01  0.13190084591E+03 -0.15194804271E+04  0.15251962717E+04  0.00000000000E+00 0. -1.
         21    1    1    2  504  506  0.46057333905E+01  0.32633232141E+02 -0.11116095212E+03  0.11594351166E+03  0.00000000000E+00 0.  1.
         21    1    1    2  505  501 -0.16013947426E+01 -0.81213792957E+02  0.22926933573E+03  0.24323378248E+03  0.00000000000E+00 0.  1.
         21    1    1    2  506  505 -0.75361484890E+00 -0.83320285092E+02  0.87230221317E+02  0.12063146088E+03  0.00000000000E+00 0.  1.
<scales pt_clust_3="164.05009" pt_clust_4="32.95665" pt_clust_5="70.93458" pt_clust_6="70.93458"></scales>
<clustering>
<clus scale="   32.957">  2  4  1 -1</clus>
<clus scale="   70.935">  5  6 -1 -1</clus>
<clus scale="  164.050">  2  3  1 -1</clus>
<clus scale="  179.057">  1  3  2 -1</clus>
</clustering>
</event>
<event>
 6    0  0.3042851E+002  0.3142422E+03  0.7546771E-02  0.1078330E+00
         21   -1    0    0  503  501  0.00000000000E+00  0.00000000000E+00  0.16504775951E+03  0.16504775951E+03  0.00000000000E+00 0.  1.
         21   -1    0    0  506  502 -0.00000000000E+00 -0.00000000000E+00 -0.12942358598E+04  0.12942358598E+04  0.00000000000E+00 0.  1.
         21    1    1    2  503  505  0.31455977359E+03  0.26693094020E+02 -0.64796134892E+03  0.72077339166E+03  0.00000000000E+00 0.  1.
         21    1    1    2  504  501  0.29458925649E+01 -0.31541104739E+02 -0.67629277879E+01  0.32392233072E+02  0.00000000000E+00 0.  1.
         21    1    1    2  505  502 -0.12407831554E+02  0.70596280793E+02 -0.37017848274E+03  0.37705423778E+03  0.00000000000E+00 0.  1.
         21    1    1    2  506  504 -0.30509783460E+03 -0.65748270074E+02 -0.10428534080E+03  0.32906375674E+03  0.00000000000E+00 0.  1.
<scales pt_clust_3="14000.00000" pt_clust_4="31.67838" pt_clust_5="70.96534" pt_clust_6="314.24219"></scales>
<clustering>
<clus scale="   31.678">  1  4  2 -1</clus>
<clus scale="   70.965">  2  5  1 -1</clus>
<clus scale="  314.242">  1  6  2 -1</clus>
<clus scale="   31.678">  1  3  2 -1</clus>
</clustering>
</event>
<event>
 6    0  0.3042851E+002  0.1248202E+03  0.7546771E-02  0.1235350E+00
         21   -1    0    0  503  501  0.00000000000E+00  0.00000000000E+00  0.23100972972E+02  0.23100972972E+02  0.00000000000E+00 0. -1.
         21   -1    0    0  506  502 -0.00000000000E+00 -0.00000000000E+00 -0.12803211583E+04  0.12803211583E+04  0.00000000000E+00 0. -1.
         21    1    1    2  503  504 -0.45809289771E+02 -0.36627480447E+02 -0.82915491757E+02  0.10156299585E+03  0.00000000000E+00 0. -1.
         21    1    1    2  504  502 -0.64250321091E+02 -0.49075788594E+02 -0.22077951176E+03  0.23511726776E+03  0.00000000000E+00 0. -1.
         21    1    1    2  505  501  0.30046599906E+02  0.53521194586E+01 -0.75663995577E+02  0.81587275817E+02  0.00000000000E+00 0. -1.
         21    1    1    2  506  505  0.80013010956E+02  0.80351149581E+02 -0.87786118627E+03  0.88515459188E+03  0.00000000000E+00 0. -1.
<scales pt_clust_3="33.01646" pt_clust_4="33.01646" pt_clust_5="30.51956" pt_clust_6="117.96319"></scales>
<clustering>
<clus scale="   30.520">  1  5  2 -1</clus>
<clus scale="   33.016">  3  4 -1 -1</clus>
<clus scale="  117.963">  2  6  1 -1</clus>
<clus scale="   30.520">  1  3  2 -1</clus>
</clustering>
</event>
<event>
 6    0  0.3042851E+002  0.8414771E+02  0.7546771E-02  0.1317677E+00
         21   -1    0    0  504  501  0.00000000000E+00  0.00000000000E+00  0.16954342973E+04  0.16954342973E+04  0.00000000000E+00 0.  1.
         21   -1    0    0  505  502 -0.00000000000E+00 -0.00000000000E+00 -0.27285498484E+03  0.27285498484E+03  0.00000000000E+00 0. -1.
         21    1    1    2  503  501 -0.16174913882E+02  0.58405693664E+02  0.15120206649E+03  0.16289541983E+03  0.00000000000E+00 0. -1.
         21    1    1    2  504  506 -0.44119376956E+02  0.38513855751E+02 -0.41494088413E+02  0.71774618640E+02  0.00000000000E+00 0. -1.
         21    1    1    2  505  503  0.67689905437E+02 -0.12850267521E+03  0.15185089204E+04  0.15254390195E+04  0.00000000000E+00 0.  1.
         21    1    1    2  506  502 -0.73956145983E+01  0.31583125794E+02 -0.20563758602E+03  0.20818022417E+03  0.00000000000E+00 0. -1.
<scales pt_clust_3="63.47771" pt_clust_4="14000.00000" pt_clust_5="84.14771" pt_clust_6="32.43746"></scales>
<clustering>
<clus scale="   32.437">  2  6  1 -1</clus>
<clus scale="   63.478">  1  3  2 -1</clus>
<clus scale="   84.148">  1  5  2 -1</clus>
<clus scale="   63.478">  1  3  2 -1</clus>
</clustering>
</event>
<event>
 6    0  0.3042851E+002  0.1109420E+03  0.7546771E-02  0.1258835E+00
         21   -1    0    0  505  501  0.00000000000E+00  0.00000000000E+00  0.84382252853E+02  0.84382252853E+02  0.00000000000E+00 0.  1.
         21   -1    0    0  504  502 -0.00000000000E+00 -0.00000000000E+00 -0.14933401559E+04  0.14933401559E+04  0.00000000000E+00 0. -1.
         21    1    1    2  503  506  0.79343337720E+02 -0.17804053730E+02 -0.11791873981E+04  0.11819878466E+04  0.00000000000E+00 0. -1.
         21    1    1    2  504  503 -0.20793117697E+02  0.42713661884E+02 -0.10641290794E+03  0.11653547800E+03  0.00000000000E+00 0.  1.
         21    1    1    2  505  502  0.49491529223E+02  0.59472211262E+01 -0.15471243434E+03  0.16254451157E+03  0.00000000000E+00 0. -1.
         21    1    1    2  506  501 -0.10804174925E+03 -0.30856829280E+02  0.31354837323E+02  0.11665457264E+03  0.00000000000E+00 0.  1.
<scales pt_clust_3="14000.00000" pt_clust_4="47.50590" pt_clust_5="48.33816" pt_clust_6="110.94198"></scales>
<clustering>
<clus scale="   47.506">  2  4  1 -1</clus>
<clus scale="   48.338">  2  5  1 -1</clus>
<clus scale="  110.942">  1  6  2 -1</clus>
<clus scale="  110.942">  1  3  2 -1</clus>
</clustering>
</event>
<event>
 6    0  0.3042851E+002  0.2244428E+03  0.7546771E-02  0.1130613E+00
         21   -1    0    0  505  501  0.00000000000E+00  0.00000000000E+00  0.24198640758E+03  0.24198640758E+03  0.00000000000E+00 0.  1.
         21   -1    0    0  503  502 -0.00000000000E+00 -0.00000000000E+00 -0.96613742349E+03  0.96613742349E+03  0.00000000000E+00 0. -1.
         21    1    1    2  503  504  0.27645128323E+02  0.13562661113E+03 -0.68694555374E+03  0.70075175674E+03  0.00000000000E+00 0. -1.
         21    1    1    2  504  506 -0.29045489237E+02  0.67493110511E+02 -0.16920126853E+03  0.18446687964E+03  0.00000000000E+00 0. -1.
         21    1    1    2  505  502 -0.74339330365E+02 -0.19580706168E+03  0.59318872984E+02  0.21768203908E+03  0.00000000000E+00 0.  1.
         21    1    1    2  506  501  0.75739691279E+02 -0.73126599568E+01  0.72676933388E+02  0.10522315561E+03  0.00000000000E+00 0.  1.
<scales pt_clust_3="70.50839" pt_clust_4="70.50839" pt_clust_5="202.50803" pt_clust_6="76.09189"></scales>
<clustering>
<clus scale="   70.508">  3  4 -1 -1</clus>
<clus scale="   76.092">  1  6  2 -1</clus>
<clus scale="  202.508">  1  5  2 -1</clus>
<clus scale="   76.092">  1  3  2 -1</clus>
</clustering>
</event>
<event>
 6    0  0.3042851E+002  0.2839709E+03  0.7546771E-02  0.1093540E+00
         21   -1    0    0  503  501  0.00000000000E+00  0.00000000000E+00  0.45032152223E+02  0.45032152223E+02  0.00000000000E+00 0.  1.
         21   -1    0    0  504  502 -0.00000000000E+00 -0.00000000000E+00 -0.26878910938E+04  0.26878910938E+04  0.00000000000E+00 0.  1.
         21    1    1    2  503  505  0.82401257683E+02 -0.18896617396E+03 -0.34356878289E+03  0.40067154971E+03  0.00000000000E+00 0.  1.
         21    1    1    2  504  506 -0.12539141337E+03  0.14969390297E+03 -0.15304818812E+04  0.15428888682E+04  0.00000000000E+00 0.  1.
         21    1    1    2  505  502  0.60828486309E+02 -0.42947689162E+02 -0.18339992055E+03  0.19793973732E+03  0.00000000000E+00 0.  1.
         21    1    1    2  506  501 -0.17838330626E+02  0.82219960148E+02 -0.58540835698E+03  0.59142309078E+03  0.00000000000E+00 0.  1.
<scales pt_clust_3="47.85665" pt_clust_4="279.81429" pt_clust_5="47.85665" pt_clust_6="41.49946"></scales>
<clustering>
<clus scale="   41.499">  4  6 -1 -1</clus>
<clus scale="   47.857">  3  5 -1 -1</clus>
<clus scale="  279.814">  2  4  1 -1</clus>
<clus scale="  283.971">  1  3  2 -1</clus>
</clustering>
</event>
<event>
 6    0  0.3042851E+002  0.1650844E+03  0.7546771E-02  0.1183073E+00
         21   -1    0    0  503  501  0.00000000000E+00  0.00000000000E+00  0.13631781068E+03  0.13631781068E+03  0.00000000000E+00 0. -1.
         21   -1    0    0  504  502 -0.00000000000E+00 -0.00000000000E+00 -0.19794516829E+03  0.19794516829E+03  0.00000000000E+00 0. -1.
         21    1    1    2  503  506 -0.14566452776E+02  0.63143015668E+02  0.10712877851E+02  0.65680954058E+02  0.00000000000E+00 0. -1.
         21    1    1    2  504  505  0.30863848962E+02 -0.67073547301E+02 -0.31982533482E+02  0.80463161560E+02  0.00000000000E+00 0. -1.
         21    1    1    2  505  501  0.19971507794E+02 -0.76051030949E+02  0.20517590361E+02  0.81262487940E+02  0.00000000000E+00 0. -1.
         21    1    1    2  506  502 -0.36268903981E+02  0.79981562582E+02 -0.60875292339E+02  0.10685637541E+03  0.00000000000E+00 0. -1.
<scales pt_clust_3="55.56338" pt_clust_4="52.67484" pt_clust_5="161.31876" pt_clust_6="55.56338"></scales>
<clustering>
<clus scale="   52.675">  4  5 -1 -1</clus>
<clus scale="   55.563">  3  6 -1 -1</clus>
<clus scale="  161.319">  1  4  2 -1</clus>
<clus scale="  161.319">  1  3  2 -1</clus>
</clustering>
</event>
<event>
 6    0  0.3042851E+002  0.1077628E+03  0.7546771E-02  0.1264770E+00
         21   -1    0    0  504  501  0.00000000000E+00  0.00000000000E+00  0.17711682989E+03  0.17711682989E+03  0.00000000000E+00 0. -1.
         21   -1    0    0  506  502 -0.00000000000E+00 -0.00000000000E+00 -0.23996725880E+03  0.23996725880E+03  0.00000000000E+00 0.  1.
         21    1    1    2  503  505 -0.30207458528E+02  0.32195767655E+02 -0.69510638019E+02  0.82345532990E+02  0.00000000000E+00 0.  1.
         21    1    1    2  504  503 -0.74984843712E+02  0.19808731731E+02  0.30390053730E+02  0.83298667487E+02  0.00000000000E+00 0. -1.
         21    1    1    2  505  502 -0.47782512544E+01  0.56625013120E+02 -0.69929041141E+02  0.90107128413E+02  0.00000000000E+00 0.  1.
         21    1    1    2  506  501  0.10997055349E+03 -0.10862951251E+03  0.46199196520E+02  0.16133275979E+03  0.00000000000E+00 0. -1.
<scales pt_clust_3="30.32083" pt_clust_4="77.55716" pt_clust_5="30.32083" pt_clust_6="102.12467"></scales>
<clustering>
<clus scale="   30.321">  3  5 -1 -1</clus>
<clus scale="   77.557">  1  4  2 -1</clus>
<clus scale="  102.125">  1  6  2 -1</clus>
<clus scale="   77.557">  1  3  2 -1</clus>
</clustering>
</event>
<event>
 6    0  0.3042851E+002  0.1649826E+03  0.7546771E-02  0.1183184E+00
         21   -1    0    0  502  501  0.00000000000E+00  0.00000000000E+00  0.91083517814E+03  0.91083517814E+03  0.00000000000E+00 0.  1.
         21   -1    0    0  503  502 -0.00000000000E+00 -0.00000000000E+00 -0.34314648860E+03  0.34314648860E+03  0.00000000000E+00 0. -1.
         21    1    1    2  503  506  0.98934723995E+02  0.35824275788E+02 -0.14454527644E+03  0.17878701096E+03  0.00000000000E+00 0. -1.
         21    1    1    2  504  505 -0.63379886916E+02 -0.27168349423E+02  0.51487201872E+03  0.51946927237E+03  0.00000000000E+00 0.  1.
         21    1    1    2  505  501 -0.77867872830E+02 -0.28300246090E+02  0.36883182910E+03  0.37802278728E+03  0.00000000000E+00 0. -1.
         21    1    1    2  506  504  0.42313035751E+02  0.19644319725E+02 -0.17146988183E+03  0.17770259612E+03  0.00000000000E+00 0. -1.
<scales pt_clust_3="43.10883" pt_clust_4="35.70624" pt_clust_5="156.71473" pt_clust_6="43.10883"></scales>
<clustering>
<clus scale="   35.706">  4  5 -1 -1</clus>
<clus scale="   43.109">  3  6 -1 -1</clus>
<clus scale="  156.715">  1  4  2 -1</clus>
<clus scale="  156.715">  1  3  2 -1</clus>
</clustering>
</event>
<event>
 6    0  0.3042851E+002  0.1202607E+03  0.7546771E-02  0.1242668E+00
         21   -1    0    0  506  501  0.00000000000E+00  0.00000000000E+00  0.12937571090E+03  0.12937571090E+03  0.00000000000E+00 0.  1.
         21   -1    0    0  503  502 -0.00000000000E+00 -0.00000000000E+00 -0.29788600456E+03  0.29788600456E+03  0.00000000000E+00 0.  1.
         21    1    1    2  503  501 -0.11389330379E+03 -0.27177595781E+02  0.77437054257E+02  0.14038092368E+03  0.00000000000E+00 0.  1.
         21    1    1    2  504  502  0.19145463268E+02  0.36954934272E+02 -0.94273056304E+02  0.10305156513E+03  0.00000000000E+00 0.  1.
         21    1    1    2  505  504  0.51419938809E+02 -0.16122890156E+02 -0.51669423314E+02  0.74657129597E+02  0.00000000000E+00 0.  1.
         21    1    1    2  506  505  0.43327901714E+02  0.63455516639E+01 -0.10000486830E+03  0.10917209706E+03  0.00000000000E+00 0.  1.
<scales pt_clust_3="112.90387" pt_clust_4="41.61990" pt_clust_5="37.33499" pt_clust_6="37.33499"></scales>
<clustering>
<clus scale="   37.335">  5  6 -1 -1</clus>
<clus scale="   41.620">  2  4  1 -1</clus>
<clus scale="  112.904">  1  3  2 -1</clus>
<clus scale="  112.904">  1  3  2 -1</clus>
</clustering>
</event>
<event>
 6    0  0.3042851E+002  0.1497673E+03  0.7546771E-02  0.1200759E+00
         21   -1    0    0  504  501  0.00000000000E+00  0.00000000000E+00  0.36570477352E+03  0.36570477352E+03  0.00000000000E+00 0.  1.
         21   -1    0    0  503  502 -0.00000000000E+00 -0.00000000000E+00 -0.24981567261E+03  0.24981567261E+03  0.00000000000E+00 0. -1.
         21    1    1    2  503  505 -0.21867584386E+02  0.37300228077E+02 -0.24994495663E+02  0.49942197337E+02  0.00000000000E+00 0.  1.
         21    1    1    2  504  502  0.92665079893E+02  0.12252740941E+03 -0.13658102348E+03  0.20555816467E+03  0.00000000000E+00 0. -1.
         21    1    1    2  505  506 -0.84014200098E+02 -0.82653241413E+02  0.67239784029E+02  0.13568762910E+03  0.00000000000E+00 0. -1.
         21    1    1    2  506  501  0.13216704590E+02 -0.77174396073E+02  0.21022483604E+03  0.22433245502E+03  0.00000000000E+00 0.  1.
<scales pt_clust_3="43.23769" pt_clust_4="14000.00000" pt_clust_5="149.76732" pt_clust_6="76.95573"></scales>
<clustering>
<clus scale="   43.238">  2  3  1 -1</clus>
<clus scale="   76.956">  1  6  2 -1</clus>
<clus scale="  149.767">  1  5  2 -1</clus>
<clus scale="   76.956">  1  3  2 -1</clus>
</clustering>
</event>
<event>
 6    0  0.3042851E+002  0.1946329E+03  0.7546771E-02  0.1154348E+00
         21   -1    0    0  505  501  0.00000000000E+00  0.00000000000E+00  0.18735389258E+04  0.18735389258E+04  0.00000000000E+00 0.  1.
         21   -1    0    0  503  502 -0.00000000000E+00 -0.00000000000E+00 -0.16047192337E+03  0.16047192337E+03  0.00000000000E+00 0.  1.
         21    1    1    2  503  504  0.87411347702E+02  0.15756007513E+03 -0.41739701475E+02  0.18495438265E+03  0.00000000000E+00 0.  1.
         21    1    1    2  504  501 -0.20928959268E+03 -0.17598884885E+03  0.13011104598E+04  0.13295347446E+04  0.00000000000E+00 0.  1.
         21    1    1    2  505  506  0.15255716389E+03 -0.10385717664E+02  0.45225782082E+03  0.47740830311E+03  0.00000000000E+00 0.  1.
         21    1    1    2  506  502 -0.30678918912E+02  0.28814491384E+02  0.14384232655E+01  0.42113418773E+02  0.00000000000E+00 0.  1.
<scales pt_clust_3="194.63285" pt_clust_4="14000.00000" pt_clust_5="150.00706" pt_clust_6="42.08885"></scales>
<clustering>
<clus scale="   42.089">  2  6  1 -1</clus>
<clus scale="  150.007">  1  5  2 -1</clus>
<clus scale="  194.633">  2  3  1 -1</clus>
<clus scale="  150.007">  1  3  2 -1</clus>
</clustering>
</event>
<event>
 6    0  0.3042851E+002  0.1169878E+03  0.7546771E-02  0.1248151E+00
         21   -1    0    0  504  501  0.00000000000E+00  0.00000000000E+00  0.10821192450E+03  0.10821192450E+03  0.00000000000E+00 0.  1.
         21   -1    0    0  505  502 -0.00000000000E+00 -0.00000000000E+00 -0.66679336342E+03  0.66679336342E+03  0.00000000000E+00 0.  1.
         21    1    1    2  503  506  0.51342107363E+02 -0.35798633669E+02 -0.23697592738E+03  0.24510231398E+03  0.00000000000E+00 0.  1.
         21    1    1    2  504  502 -0.10720296399E+03 -0.20678907996E+01  0.25202720311E+02  0.11014503516E+03  0.00000000000E+00 0.  1.
         21    1    1    2  505  503  0.47480443877E+02 -0.15830882298E+02 -0.36030098032E+03  0.36376064356E+03  0.00000000000E+00 0.  1.
         21    1    1    2  506  501  0.83804127467E+01  0.53697406767E+02  0.13492748467E+02  0.55997295225E+02  0.00000000000E+00 0.  1.
<scales pt_clust_3="35.12501" pt_clust_4="110.19646" pt_clust_5="35.12501" pt_clust_6="54.34743"></scales>
<clustering>
<clus scale="   35.125">  3  5 -1 -1</clus>
<clus scale="   54.347">  1  6  2 -1</clus>
<clus scale="  110.196">  1  4  2 -1</clus>
<clus scale="   54.347">  1  3  2 -1</clus>
</clustering>
</event>
<event>
 6    0  0.3042851E+002  0.2875635E+03  0.7546771E-02  0.1091628E+00
         21   -1    0    0  502  501  0.00000000000E+00  0.00000000000E+00  0.35921132878E+03  0.35921132878E+03  0.00000000000E+00 0.  1.
         21   -1    0    0  503  502 -0.00000000000E+00 -0.00000000000E+00 -0.23976069625E+03  0.23976069625E+03  0.00000000000E+00 0.  1.
         21    1    1    2  503  506  0.11030431873E+03  0.15559741180E+03 -0.22856663867E+01  0.19074281523E+03  0.00000000000E+00 0.  1.
         21    1    1    2  504  501 -0.10918039305E+03 -0.12507922293E+03  0.95409078504E+02  0.19148906626E+03  0.00000000000E+00 0.  1.
         21    1    1    2  505  504 -0.86529511239E+02 -0.75928175534E+02  0.33078623144E+02  0.11977745808E+03  0.00000000000E+00 0.  1.
         21    1    1    2  506  505  0.85405585563E+02  0.45409986663E+02 -0.67514027317E+01  0.96962685466E+02  0.00000000000E+00 0.  1.
<scales pt_clust_3="44.96339" pt_clust_4="283.50972" pt_clust_5="34.04289" pt_clust_6="44.96339"></scales>
<clustering>
<clus scale="   34.043">  4  5 -1 -1</clus>
<clus scale="   44.963">  3  6 -1 -1</clus>
<clus scale="  283.510">  1  4  2 -1</clus>
<clus scale="  283.510">  1  3  2 -1</clus>
</clustering>
</event>
<event>
 6    0  0.3042851E+002  0.1519682E+03  0.7546771E-02  0.1198075E+00
         21   -1    0    0  503  501  0.00000000000E+00  0.00000000000E+00  0.75805630350E+03  0.75805630350E+03  0.00000000000E+00 0.  1.
         21   -1    0    0  506  502 -0.00000000000E+00 -0.00000000000E+00 -0.96355371639E+02  0.96355371639E+02  0.00000000000E+00 0.  1.
         21    1    1    2  503  505 -0.12986485360E+03 -0.11608254927E+03  0.50467426184E+03  0.53388776818E+03  0.00000000000E+00 0.  1.
         21    1    1    2  504  501  0.78700535408E+02  0.97065497859E+02  0.19342603414E+03  0.23028051552E+03  0.00000000000E+00 0.  1.
         21    1    1    2  505  502  0.33694016530E+02 -0.12389314484E+02  0.40588680232E+01  0.36128330613E+02  0.00000000000E+00 0. -1.
         21    1    1    2  506  504  0.17470301664E+02  0.31406365893E+02 -0.40458232146E+02  0.54115060817E+02  0.00000000000E+00 0.  1.
<scales pt_clust_3="151.96821" pt_clust_4="14000.00000" pt_clust_5="35.89961" pt_clust_6="44.42079"></scales>
<clustering>
<clus scale="   35.900">  2  5  1 -1</clus>
<clus scale="   44.421">  2  6  1 -1</clus>
<clus scale="  151.968">  1  3  2 -1</clus>
<clus scale="  151.968">  1  3  2 -1</clus>
</clustering>
</event>
<event>
 6    0  0.3042851E+002  0.2551182E+03  0.7546771E-02  0.1110112E+00
         21   -1    0    0  506  501  0.00000000000E+00  0.00000000000E+00  0.43443245044E+03  0.43443245044E+03  0.00000000000E+00 0. -1.
         21   -1    0    0  503  502 -0.00000000000E+00 -0.00000000000E+00 -0.47635599748E+03  0.47635599748E+03  0.00000000000E+00 0. -1.
         21    1    1    2  503  504 -0.15626874632E+03  0.77019644131E+01 -0.30253405941E+03  0.34059668001E+03  0.00000000000E+00 0. -1.
         21    1    1    2  504  505  0.13238426247E+03  0.34542760018E+02  0.11954873733E+03  0.18168845813E+03  0.00000000000E+00 0. -1.
         21    1    1    2  505  501  0.11888624822E+03  0.19918016043E+02  0.21956139729E+03  0.25047529730E+03  0.00000000000E+00 0. -1.
         21    1    1    2  506  502 -0.95001764367E+02 -0.62162740474E+02 -0.78499622252E+02  0.13802801248E+03  0.00000000000E+00 0. -1.
<scales pt_clust_3="243.75874" pt_clust_4="70.66069" pt_clust_5="70.66069" pt_clust_6="113.53212"></scales>
<clustering>
<clus scale="   70.661">  4  5 -1 -1</clus>
<clus scale="  113.532">  2  6  1 -1</clus>
<clus scale="  243.759">  2  3  1 -1</clus>
<clus scale="  255.118">  1  3  2 -1</clus>
</clustering>
</event>
<event>
 6    0  0.3042851E+002  0.7481124E+02  0.7546771E-02  0.1344457E+00
         21   -1    0    0  505  501  0.00000000000E+00  0.00000000000E+00  0.87025621601E+03  0.87025621601E+03  0.00000000000E+00 0. -1.
         21   -1    0    0  506  502 -0.00000000000E+00 -0.00000000000E+00 -0.37736027403E+02  0.37736027403E+02  0.00000000000E+00 0. -1.
         21    1    1    2  503  501  0.65555843839E+02  0.29701665433E+02  0.56241465035E+03  0.56700087876E+03  0.00000000000E+00 0. -1.
         21    1    1    2  504  502 -0.28883458711E+02  0.84457588019E+01  0.19376616355E+02  0.35791595245E+02  0.00000000000E+00 0. -1.
         21    1    1    2  505  504 -0.75871803548E+02 -0.77267605959E+02  0.11183588295E+03  0.15567298487E+03  0.00000000000E+00 0. -1.
         21    1    1    2  506  503  0.39199418420E+02  0.39120181724E+02  0.13889303895E+03  0.14952678453E+03  0.00000000000E+00 0. -1.
<scales pt_clust_3="14000.00000" pt_clust_4="30.09294" pt_clust_5="74.81124" pt_clust_6="52.98675"></scales>
<clustering>
<clus scale="   30.093">  2  4  1 -1</clus>
<clus scale="   52.987">  2  6  1 -1</clus>
<clus scale="   74.811">  2  5  1 -1</clus>
<clus scale="   74.811">  1  3  2 -1</clus>
</clustering>
</event>
<event>
 6    0  0.3473860E+002  0.1106118E+03  0.7546771E-02  0.1259441E+00
         21   -1    0    0  506  501  0.00000000000E+00  0.00000000000E+00  0.19100206509E+03  0.19100206509E+03  0.00000000000E+00 0.  1.
         21   -1    0    0  504  502 -0.00000000000E+00 -0.00000000000E+00 -0.11186645510E+04  0.11186645510E+04  0.00000000000E+00 0. -1.
         21    1    1    2  503  505  0.36111752713E+02  0.58328080720E+02 -0.89121192208E+03  0.89384837291E+03  0.00000000000E+00 0. -1.
         21    1    1    2  504  501 -0.87148603911E+02 -0.43223984815E+02  0.15662695549E+03  0.18437785988E+03  0.00000000000E+00 0.  1.
         21    1    1    2  505  502  0.46159114541E+02  0.19203225115E+02 -0.19020902410E+03  0.19666952118E+03  0.00000000000E+00 0. -1.
         21    1    1    2  506  503  0.48777366569E+01 -0.34307321021E+02 -0.28684952506E+01  0.34770862162E+02  0.00000000000E+00 0.  1.
<scales pt_clust_3="110.61181" pt_clust_4="14000.00000" pt_clust_5="49.83806" pt_clust_6="34.65234"></scales>
<clustering>
<clus scale="   34.652">  1  6  2 -1</clus>
<clus scale="   49.838">  2  5  1 -1</clus>
<clus scale="  110.612">  2  3  1 -1</clus>
<clus scale="   34.652">  1  3  2 -1</clus>
</clustering>
</event>
<event>
 6    0  0.3042851E+002  0.2291923E+03  0.7546771E-02  0.1127210E+00
         21   -1    0    0  502  501  0.00000000000E+00  0.00000000000E+00  0.28094199308E+03  0.28094199308E+03  0.00000000000E+00 0. -1.
         21   -1    0    0  503  502 -0.00000000000E+00 -0.00000000000E+00 -0.21475165632E+03  0.21475165632E+03  0.00000000000E+00 0. -1.
         21    1    1    2  503  504  0.11549070658E+03 -0.38420259874E+02 -0.29448184581E+02  0.12522545768E+03  0.00000000000E+00 0. -1.
         21    1    1    2  504  505  0.67615343257E+02 -0.80721881324E+02 -0.29480329155E+02  0.10934782383E+03  0.00000000000E+00 0. -1.
         21    1    1    2  505  506 -0.14371446832E+03  0.82276205678E+02  0.59029937612E+02  0.17580601798E+03  0.00000000000E+00 0. -1.
         21    1    1    2  506  501 -0.39391581522E+02  0.36865935520E+02  0.66088912881E+02  0.85314349920E+02  0.00000000000E+00 0. -1.
<scales pt_clust_3="227.05078" pt_clust_4="57.55809" pt_clust_5="39.57175" pt_clust_6="39.57175"></scales>
<clustering>
<clus scale="   39.572">  5  6 -1 -1</clus>
<clus scale="   57.558">  3  4 -1 -1</clus>
<clus scale="  227.051">  2  3  1 -1</clus>
<clus scale="  229.192">  1  3  2 -1</clus>
</clustering>
</event>
<event>
 6    0  0.3042851E+002  0.3819511E+03  0.7546771E-02  0.1050215E+00
         21   -1    0    0  504  501  0.00000000000E+00  0.00000000000E+00  0.21710643049E+03  0.21710643049E+03  0.00000000000E+00 0. -1.
         21   -1    0    0  503  502 -0.00000000000E+00 -0.00000000000E+00 -0.72242989897E+03  0.72242989897E+03  0.00000000000E+00 0. -1.
         21    1    1    2  503  506  0.20508974970E+03 -0.23096567021E+03 -0.35500399011E+03  0.47056857018E+03  0.00000000000E+00 0. -1.
         21    1    1    2  504  505 -0.17764796764E+03  0.15985003698E+03 -0.50843374841E+02  0.24432741044E+03  0.00000000000E+00 0. -1.
         21    1    1    2  505  502 -0.53283436722E+02  0.12776195709E+03 -0.77289802609E+02  0.15854323037E+03  0.00000000000E+00 0.  1.
         21    1    1    2  506  501  0.25841654661E+02 -0.56646323859E+02 -0.22186300921E+02  0.66097118476E+02  0.00000000000E+00 0. -1.
<scales pt_clust_3="381.75587" pt_clust_4="75.48419" pt_clust_5="75.48419" pt_clust_6="44.19012"></scales>
<clustering>
<clus scale="   44.190">  3  6 -1 -1</clus>
<clus scale="   75.484">  4  5 -1 -1</clus>
<clus scale="  381.756">  2  3  1 -1</clus>
<clus scale="  381.951">  1  3  2 -1</clus>
</clustering>
</event>
<event>
 6    0  0.3042851E+002  0.1539872E+03  0.7546771E-02  0.1195657E+00
         21   -1    0    0  502  501  0.00000000000E+00  0.00000000000E+00  0.18735161560E+02  0.18735161560E+02  0.00000000000E+00 0. -1.
         21   -1    0    0  506  502 -0.00000000000E+00 -0.00000000000E+00 -0.20723780789E+04  0.20723780789E+04  0.00000000000E+00 0.  1.
         21    1    1    2  503  501 -0.23382138600E+01  0.59861887975E+02 -0.11101329914E+03  0.12614620669E+03  0.00000000000E+00 0. -1.
         21    1    1    2  504  505  0.23131113057E+02 -0.13029866675E+03 -0.97843588733E+03  0.98734471010E+03  0.00000000000E+00 0.  1.
         21    1    1    2  505  503  0.10864915263E+02  0.92540575363E+02 -0.34918517582E+03  0.36140294891E+03  0.00000000000E+00 0. -1.
         21    1    1    2  506  504 -0.31657814460E+02 -0.22103796591E+02 -0.61500855508E+03  0.61621937478E+03  0.00000000000E+00 0.  1.
<scales pt_clust_3="41.85942" pt_clust_4="145.22308" pt_clust_5="41.85942" pt_clust_6="38.61082"></scales>
<clustering>
<clus scale="   38.611">  2  6  1 -1</clus>
<clus scale="   41.859">  3  5 -1 -1</clus>
<clus scale="  145.223">  2  4  1 -1</clus>
<clus scale="  153.987">  1  3  2 -1</clus>
</clustering>
</event>
<event>
 6    0  0.3042851E+002  0.2211150E+03  0.7546771E-02  0.1133055E+00
         21   -1    0    0  506  501  0.00000000000E+00  0.00000000000E+00  0.19097354455E+03  0.19097354455E+03  0.00000000000E+00 0.  1.
         21   -1    0    0  504  502 -0.00000000000E+00 -0.00000000000E+00 -0.11851852817E+04  0.11851852817E+04  0.00000000000E+00 0.  1.
         21    1    1    2  503  501 -0.19690976140E+02  0.43587867222E+02  0.41130556292E+01  0.48005769829E+02  0.00000000000E+00 0.  1.
         21    1    1    2  504  505 -0.83510772984E+02 -0.75351773211E+02 -0.55796891736E+03  0.56919350986E+03  0.00000000000E+00 0.  1.
         21    1    1    2  505  503 -0.31861947518E+02 -0.10561861870E+03 -0.53362868014E+03  0.54491287797E+03  0.00000000000E+00 0.  1.
         21    1    1    2  506  502  0.13506369664E+03  0.13738252469E+03  0.93272804695E+02  0.21404666860E+03  0.00000000000E+00 0.  1.
<scales pt_clust_3="47.82925" pt_clust_4="59.10672" pt_clust_5="59.10672" pt_clust_6="212.85028"></scales>
<clustering>
<clus scale="   47.829">  1  3  2 -1</clus>
<clus scale="   59.107">  4  5 -1 -1</clus>
<clus scale="  212.850">  1  6  2 -1</clus>
<clus scale="   47.829">  1  3  2 -1</clus>
</clustering>
</event>
<event>
 6    0  0.3042851E+002  0.2170307E+03  0.7546771E-02  0.1136116E+00
         21   -1    0    0  503  501  0.00000000000E+00  0.00000000000E+00  0.78601545732E+02  0.78601545732E+02  0.00000000000E+00 0. -1.
         21   -1    0    0  501  502 -0.00000000000E+00 -0.00000000000E+00 -0.10173604992E+04  0.10173604992E+04  0.00000000000E+00 0. -1.
         21    1    1    2  503  506  0.53537076861E+02  0.36310545761E+02 -0.28786704393E+02  0.70805004640E+02  0.00000000000E+00 0. -1.
         21    1    1    2  504  505 -0.85528425717E+02 -0.80124061942E+02 -0.43731994736E+03  0.45275127086E+03  0.00000000000E+00 0. -1.
         21    1    1    2  505  502 -0.41392669922E+02 -0.89299082237E+02 -0.38406026421E+03  0.39647189782E+03  0.00000000000E+00 0. -1.
         21    1    1    2  506  504  0.73384018777E+02  0.13311259842E+03 -0.88592037490E+02  0.17593387160E+03  0.00000000000E+00 0. -1.
<scales pt_clust_3="31.21251" pt_clust_4="215.67229" pt_clust_5="37.80050" pt_clust_6="31.21251"></scales>
<clustering>
<clus scale="   31.213">  3  6 -1 -1</clus>
<clus scale="   37.801">  4  5 -1 -1</clus>
<clus scale="  215.672">  2  4  1 -1</clus>
<clus scale="  217.031">  1  3  2 -1</clus>
</clustering>
</event>
<event>
 6    0  0.3042851E+002  0.1679252E+03  0.7546771E-02  0.1180029E+00
         21   -1    0    0  505  501  0.00000000000E+00  0.00000000000E+00  0.12931158069E+04  0.12931158069E+04  0.00000000000E+00 0. -1.
         21   -1    0    0  501  502 -0.00000000000E+00 -0.00000000000E+00 -0.19417820933E+02  0.19417820933E+02  0.00000000000E+00 0. -1.
         21    1    1    2  503  506  0.24970141169E+02  0.56598539192E+02  0.30267914860E+03  0.30893619015E+03  0.00000000000E+00 0. -1.
         21    1    1    2  504  503 -0.14531205143E+02  0.39037845372E+02  0.12626725205E+03  0.13296062663E+03  0.00000000000E+00 0. -1.
         21    1    1    2  505  504 -0.54376303098E+02 -0.13746841491E+03  0.65265716360E+03  0.66919034708E+03  0.00000000000E+00 0. -1.
         21    1    1    2  506  502  0.43937367072E+02  0.41832030348E+02  0.19209442177E+03  0.20144646402E+03  0.00000000000E+00 0. -1.
<scales pt_clust_3="40.15417" pt_clust_4="40.15417" pt_clust_5="147.83216" pt_clust_6="35.05046"></scales>
<clustering>
<clus scale="   35.050">  3  6 -1 -1</clus>
<clus scale="   40.154">  3  4 -1 -1</clus>
<clus scale="  147.832">  1  5  2 -1</clus>
<clus scale="  147.832">  1  3  2 -1</clus>
</clustering>
</event>
<event>
 6    0  0.3042851E+002  0.9796021E+02  0.7546771E-02  0.1284645E+00
         21   -1    0    0  506  501  0.00000000000E+00  0.00000000000E+00  0.31689074455E+03  0.31689074455E+03  0.00000000000E+00 0.  1.
         21   -1    0    0  504  502 -0.00000000000E+00 -0.00000000000E+00 -0.11592053779E+03  0.11592053779E+03  0.00000000000E+00 0.  1.
         21    1    1    2  503  502  0.26684141128E+02 -0.17810980189E+02 -0.32782677637E+02  0.45869143834E+02  0.00000000000E+00 0. -1.
         21    1    1    2  504  501  0.33601926197E+02 -0.91470371679E+02  0.19444156684E+03  0.21749354302E+03  0.00000000000E+00 0.  1.
         21    1    1    2  505  503  0.11549526126E+02  0.32572574418E+02 -0.28143848282E+02  0.44569500267E+02  0.00000000000E+00 0.  1.
         21    1    1    2  506  505 -0.71835593452E+02  0.76708777450E+02  0.67455165840E+02  0.12487909522E+03  0.00000000000E+00 0.  1.
<scales pt_clust_3="32.08231" pt_clust_4="14000.00000" pt_clust_5="34.17727" pt_clust_6="97.96021"></scales>
<clustering>
<clus scale="   32.082">  2  3  1 -1</clus>
<clus scale="   34.177">  2  5  1 -1</clus>
<clus scale="   97.960">  2  6  1 -1</clus>
<clus scale="   97.960">  1  3  2 -1</clus>
</clustering>
</event>
<event>
 6    0  0.3042851E+002  0.1502654E+03  0.7546771E-02  0.1200147E+00
         21   -1    0    0  504  501  0.00000000000E+00  0.00000000000E+00  0.12630946670E+04  0.12630946670E+04  0.00000000000E+00 0.  1.
         21   -1    0    0  505  502 -0.00000000000E+00 -0.00000000000E+00 -0.35832059559E+03  0.35832059559E+03  0.00000000000E+00 0.  1.
         21    1    1    2  503  501  0.34658754608E+01 -0.77180412140E+02  0.29951703407E+03  0.30932067828E+03  0.00000000000E+00 0.  1.
         21    1    1    2  504  506  0.41635530471E+01 -0.78041428008E+02  0.91366493617E+03  0.91700131692E+03  0.00000000000E+00 0.  1.
         21    1    1    2  505  503  0.47230638210E+02  0.48409273692E+02 -0.38769023051E+01  0.67743791868E+02  0.00000000000E+00 0.  1.
         21    1    1    2  506  502 -0.54860066718E+02  0.10681256646E+03 -0.30453099653E+03  0.32734947552E+03  0.00000000000E+00 0.  1.
<scales pt_clust_3="76.55904" pt_clust_4="150.26542" pt_clust_5="67.63277" pt_clust_6="14000.00000"></scales>
<clustering>
<clus scale="   67.633">  2  5  1 -1</clus>
<clus scale="   76.559">  1  3  2 -1</clus>
<clus scale="  150.265">  1  4  2 -1</clus>
<clus scale="   76.559">  1  3  2 -1</clus>
</clustering>
</event>
<event>
 6    0  0.4544848E+002  0.1245857E+03  0.7546771E-02  0.1235718E+00
         21   -1    0    0  506  501  0.00000000000E+00  0.00000000000E+00  0.16856314103E+04  0.16856314103E+04  0.00000000000E+00 0. -1.
         21   -1    0    0  504  502 -0.00000000000E+00 -0.00000000000E+00 -0.16783997834E+04  0.16783997834E+04  0.00000000000E+00 0.  1.
         21    1    1    2  503  502 -0.59300629138E+02  0.43444162875E+02 -0.16086364525E+04  0.16103152475E+04  0.00000000000E+00 0.  1.
         21    1    1    2  504  505 -0.31222317435E+02  0.42831289059E+02 -0.54998285453E+02  0.76381698274E+02  0.00000000000E+00 0. -1.
         21    1    1    2  505  501  0.20140948374E+02 -0.35859779969E+02  0.21516242359E+03  0.21905809765E+03  0.00000000000E+00 0.  1.
         21    1    1    2  506  503  0.70381998198E+02 -0.50415671965E+02  0.14557039413E+04  0.14582761503E+04  0.00000000000E+00 0. -1.
<scales pt_clust_3="14000.00000" pt_clust_4="52.70598" pt_clust_5="41.12884" pt_clust_6="124.58569"></scales>
<clustering>
<clus scale="   41.129">  1  5  2 -1</clus>
<clus scale="   52.706">  2  4  1 -1</clus>
<clus scale="  124.586">  1  6  2 -1</clus>
<clus scale="   41.129">  1  3  2 -1</clus>
</clustering>
</event>
<event>
 6    0  0.3042851E+002  0.9400236E+02  0.7546771E-02  0.1293439E+00
         21   -1    0    0  504  501  0.00000000000E+00  0.00000000000E+00  0.14769320766E+03  0.14769320766E+03  0.00000000000E+00 0.  1.
         21   -1    0    0  505  502 -0.00000000000E+00 -0.00000000000E+00 -0.34873933520E+03  0.34873933520E+03  0.00000000000E+00 0.  1.
         21    1    1    2  503  506 -0.10585444950E+02  0.67497176302E+02  0.46123608767E+02  0.82433656593E+02  0.00000000000E+00 0.  1.
         21    1    1    2  504  502  0.72179987360E+02 -0.39892091429E+02 -0.22961083591E+03  0.24397226380E+03  0.00000000000E+00 0.  1.
         21    1    1    2  505  503 -0.30977387979E+01 -0.43770295907E+02 -0.74723099741E+02  0.86654350292E+02  0.00000000000E+00 0.  1.
         21    1    1    2  506  501 -0.58496803612E+02  0.16165211034E+02  0.57164199351E+02  0.83372272178E+02  0.00000000000E+00 0.  1.
<scales pt_clust_3="14000.00000" pt_clust_4="94.00236" pt_clust_5="43.87978" pt_clust_6="60.30198"></scales>
<clustering>
<clus scale="   43.880">  2  5  1 -1</clus>
<clus scale="   60.302">  1  6  2 -1</clus>
<clus scale="   94.002">  2  4  1 -1</clus>
<clus scale="   60.302">  1  3  2 -1</clus>
</clustering>
</event>
<event>
 6    0  0.3042851E+002  0.1235090E+03  0.7546771E-02  0.1237418E+00
         21   -1    0    0  504  501  0.00000000000E+00  0.00000000000E+00  0.22422026933E+03  0.22422026933E+03  0.00000000000E+00 0. -1.
         21   -1    0    0  506  502 -0.00000000000E+00 -0.00000000000E+00 -0.61076176730E+03  0.61076176730E+03  0.00000000000E+00 0.  1.
         21    1    1    2  503  505  0.82184564664E+02 -0.31986921402E+02 -0.82081677799E+02  0.12047766449E+03  0.00000000000E+00 0.  1.
         21    1    1    2  504  503 -0.11310070889E+03 -0.37663466130E+02  0.15912265929E+03  0.19882235219E+03  0.00000000000E+00 0. -1.
         21    1    1    2  505  502  0.72905530232E+02  0.34950655333E+02 -0.45304199539E+03  0.46019975471E+03  0.00000000000E+00 0.  1.
         21    1    1    2  506  501 -0.41989386009E+02  0.34699732199E+02 -0.10540484059E+02  0.55482265241E+02  0.00000000000E+00 0.  1.
<scales pt_clust_3="123.50904" pt_clust_4="14000.00000" pt_clust_5="80.44947" pt_clust_6="54.47183"></scales>
<clustering>
<clus scale="   54.472">  1  6  2 -1</clus>
<clus scale="   80.449">  2  5  1 -1</clus>
<clus scale="  123.509">  2  3  1 -1</clus>
<clus scale="   54.472">  1  3  2 -1</clus>
</clustering>
</event>
<event>
 6    0  0.3042851E+002  0.1050305E+03  0.7546771E-02  0.1270059E+00
         21   -1    0    0  503  501  0.00000000000E+00  0.00000000000E+00  0.24724075927E+04  0.24724075927E+04  0.00000000000E+00 0.  1.
         21   -1    0    0  505  502 -0.00000000000E+00 -0.00000000000E+00 -0.10358650721E+03  0.10358650721E+03  0.00000000000E+00 0. -1.
         21    1    1    2  503  506  0.13246092779E+02  0.38800208430E+02  0.19321363094E+04  0.19325712492E+04  0.00000000000E+00 0.  1.
         21    1    1    2  504  502  0.68408472453E+02 -0.52782076031E+01  0.64100032793E+01  0.68910570458E+02  0.00000000000E+00 0.  1.
         21    1    1    2  505  501 -0.11530042447E+03 -0.95439557959E+02  0.11794109953E+02  0.15013992852E+03  0.00000000000E+00 0. -1.
         21    1    1    2  506  504  0.33645859238E+02  0.61917557132E+02  0.41848066291E+03  0.42437235178E+03  0.00000000000E+00 0.  1.
<scales pt_clust_3="40.99897" pt_clust_4="69.37989" pt_clust_5="105.03052" pt_clust_6="14000.00000"></scales>
<clustering>
<clus scale="   40.999">  1  3  2 -1</clus>
<clus scale="   69.380">  2  4  1 -1</clus>
<clus scale="  105.031">  2  5  1 -1</clus>
<clus scale="   40.999">  1  3  2 -1</clus>
</clustering>
</event>
<event>
 6    0  0.3042851E+002  0.1449219E+03  0.7546771E-02  0.1206855E+00
         21   -1    0    0  504  501  0.00000000000E+00  0.00000000000E+00  0.18920778584E+04  0.18920778584E+04  0.00000000000E+00 0.  1.
         21   -1    0    0  503  502 -0.00000000000E+00 -0.00000000000E+00 -0.27348355956E+02  0.27348355956E+02  0.00000000000E+00 0.  1.
         21    1    1    2  503  506  0.74964521882E+02  0.11164270531E+03  0.93213078428E+03  0.94178106383E+03  0.00000000000E+00 0.  1.
         21    1    1    2  504  505 -0.14632723214E+03 -0.42931959926E+02  0.35613292826E+03  0.38740866619E+03  0.00000000000E+00 0.  1.
         21    1    1    2  505  502  0.13553896711E+02 -0.56345712660E+02  0.17266066012E+03  0.18212701888E+03  0.00000000000E+00 0.  1.
         21    1    1    2  506  501  0.57808813543E+02 -0.12365032723E+02  0.40380512974E+03  0.40810946542E+03  0.00000000000E+00 0.  1.
<scales pt_clust_3="144.92191" pt_clust_4="14000.00000" pt_clust_5="57.95298" pt_clust_6="61.70012"></scales>
<clustering>
<clus scale="   57.953">  2  5  1 -1</clus>
<clus scale="   61.700">  1  6  2 -1</clus>
<clus scale="  144.922">  1  3  2 -1</clus>
<clus scale="   61.700">  1  3  2 -1</clus>
</clustering>
</event>
<event>
 6    0  0.3042851E+002  0.2857049E+03  0.7546771E-02  0.1092613E+00
         21   -1    0    0  504  501  0.00000000000E+00  0.00000000000E+00  0.14739807778E+03  0.14739807778E+03  0.00000000000E+00 0. -1.
         21   -1    0    0  501  502 -0.00000000000E+00 -0.00000000000E+00 -0.10735061566E+04  0.10735061566E+04  0.00000000000E+00 0. -1.
         21    1    1    2  503  502 -0.22723521078E+02  0.41748686876E+02 -0.21279984315E+03  0.21804376742E+03  0.00000000000E+00 0. -1.
         21    1    1    2  504  506 -0.44120720324E+02 -0.28138041858E+02  0.16560010220E+02  0.54887351001E+02  0.00000000000E+00 0.  1.
         21    1    1    2  505  503  0.25953968264E+02  0.23748299472E+03 -0.63156811339E+03  0.67524074455E+03  0.00000000000E+00 0. -1.
         21    1    1    2  506  505  0.40890273138E+02 -0.25109363974E+03 -0.98300132479E+02  0.27273237139E+03  0.00000000000E+00 0. -1.
<scales pt_clust_3="37.37082" pt_clust_4="52.32960" pt_clust_5="37.37082" pt_clust_6="273.14481"></scales>
<clustering>
<clus scale="   37.371">  3  5 -1 -1</clus>
<clus scale="   52.330">  1  4  2 -1</clus>
<clus scale="  273.145">  1  6  2 -1</clus>
<clus scale="   52.330">  1  3  2 -1</clus>
</clustering>
</event>
<event>
 6    0  0.3042851E+002  0.1145988E+03  0.7546771E-02  0.1252283E+00
         21   -1    0    0  503  501  0.00000000000E+00  0.00000000000E+00  0.27325027411E+03  0.27325027411E+03  0.00000000000E+00 0. -1.
         21   -1    0    0  505  502 -0.00000000000E+00 -0.00000000000E+00 -0.42971502857E+03  0.42971502857E+03  0.00000000000E+00 0.  1.
         21    1    1    2  503  504  0.11363146310E+03  0.13254644154E+02  0.23314311535E+03  0.25969887800E+03  0.00000000000E+00 0. -1.
         21    1    1    2  504  506  0.29721822442E+02  0.16860040005E+02 -0.34350836225E+02  0.48452323243E+02  0.00000000000E+00 0.  1.
         21    1    1    2  505  501 -0.11925190195E+03 -0.11674655574E+02 -0.34070103190E+03  0.36115717747E+03  0.00000000000E+00 0.  1.
         21    1    1    2  506  502 -0.24101383596E+02 -0.18440028585E+02 -0.14556001690E+02  0.33656923963E+02  0.00000000000E+00 0.  1.
<scales pt_clust_3="14000.00000" pt_clust_4="31.10525" pt_clust_5="114.59878" pt_clust_6="30.34652"></scales>
<clustering>
<clus scale="   30.347">  2  6  1 -1</clus>
<clus scale="   31.105">  2  4  1 -1</clus>
<clus scale="  114.599">  2  5  1 -1</clus>
<clus scale="  114.599">  1  3  2 -1</clus>
</clustering>
</event>
<event>
 6    0  0.3042851E+002  0.1749616E+03  0.7546771E-02  0.1172770E+00
         21   -1    0    0  503  501  0.00000000000E+00  0.00000000000E+00  0.70885168725E+03  0.70885168725E+03  0.00000000000E+00 0. -1.
         21   -1    0    0  506  502 -0.00000000000E+00 -0.00000000000E+00 -0.58973842700E+03  0.58973842700E+03  0.00000000000E+00 0.  1.
         21    1    1    2  503  504 -0.26095896923E+02 -0.10599636868E+03  0.37209012845E+03  0.38777221367E+03  0.00000000000E+00 0. -1.
         21    1    1    2  504  502  0.29901532695E+02 -0.55617542780E+02  0.31301606698E+03  0.31932189232E+03  0.00000000000E+00 0.  1.
         21    1    1    2  505  501  0.22937597994E+02  0.63396683557E+02 -0.17700714545E+03  0.18941172727E+03  0.00000000000E+00 0. -1.
         21    1    1    2  506  505 -0.26743233767E+02  0.98217227901E+02 -0.38898578974E+03  0.40208428100E+03  0.00000000000E+00 0.  1.
<scales pt_clust_3="50.89580" pt_clust_4="50.89580" pt_clust_5="47.35584" pt_clust_6="171.81247"></scales>
<clustering>
<clus scale="   47.356">  5  6 -1 -1</clus>
<clus scale="   50.896">  3  4 -1 -1</clus>
<clus scale="  171.812">  2  5  1 -1</clus>
<clus scale="  174.962">  1  3  2 -1</clus>
</clustering>
</event>
<event>
 6    0  0.3042851E+002  0.2055628E+03  0.7546771E-02  0.1145129E+00
         21   -1    0    0  505  501  0.00000000000E+00  0.00000000000E+00  0.18576177255E+03  0.18576177255E+03  0.00000000000E+00 0. -1.
         21   -1    0    0  503  502 -0.00000000000E+00 -0.00000000000E+00 -0.93769862754E+03  0.93769862754E+03  0.00000000000E+00 0. -1.
         21    1    1    2  503  501  0.12602457040E+02  0.69158863216E+02  0.19493720086E+02  0.72950499707E+02  0.00000000000E+00 0. -1.
         21    1    1    2  504  502 -0.20915388195E+03 -0.91582629010E+02 -0.70274058663E+03  0.73890260276E+03  0.00000000000E+00 0. -1.
         21    1    1    2  505  506  0.32441236106E+02  0.39774463794E+01  0.81857564164E+02  0.88141447064E+02  0.00000000000E+00 0. -1.
         21    1    1    2  506  504  0.16411018880E+03  0.18446319415E+02 -0.15054755261E+03  0.22346585056E+03  0.00000000000E+00 0. -1.
<scales pt_clust_3="76.11845" pt_clust_4="14000.00000" pt_clust_5="32.68415" pt_clust_6="205.56281"></scales>
<clustering>
<clus scale="   32.684">  1  5  2 -1</clus>
<clus scale="   76.118">  1  3  2 -1</clus>
<clus scale="  205.563">  1  6  2 -1</clus>
<clus scale="   32.684">  1  3  2 -1</clus>
</clustering>
</event>
<event>
 6    0  0.3042851E+002  0.8571257E+02  0.7546771E-02  0.1313580E+00
         21   -1    0    0  506  501  0.00000000000E+00  0.00000000000E+00  0.16071506165E+03  0.16071506165E+03  0.00000000000E+00 0.  1.
         21   -1    0    0  505  502 -0.00000000000E+00 -0.00000000000E+00 -0.15295653716E+04  0.15295653716E+04  0.00000000000E+00 0.  1.
         21    1    1    2  503  501 -0.56880483619E+02  0.26168420092E+02  0.36984254454E+02  0.72718709452E+02  0.00000000000E+00 0.  1.
         21    1    1    2  504  502  0.12477128463E+02 -0.41934344225E+02 -0.72895018907E+03  0.73026197088E+03  0.00000000000E+00 0.  1.
         21    1    1    2  505  503  0.82359987376E+02  0.57889113605E+02  0.79820023013E+02  0.12847393926E+03  0.00000000000E+00 0.  1.
         21    1    1    2  506  504 -0.37956632220E+02 -0.42123189472E+02 -0.75670439838E+03  0.75882581370E+03  0.00000000000E+00 0.  1.
<scales pt_clust_3="61.97103" pt_clust_4="43.75121" pt_clust_5="14000.00000" pt_clust_6="85.71257"></scales>
<clustering>
<clus scale="   43.751">  2  4  1 -1</clus>
<clus scale="   61.971">  1  3  2 -1</clus>
<clus scale="   85.713">  2  6  1 -1</clus>
<clus scale="   61.971">  1  3  2 -1</clus>
</clustering>
</event>
<event>
 6    0  0.3042851E+002  0.1799529E+03  0.7546771E-02  0.1167849E+00
         21   -1    0    0  504  501  0.00000000000E+00  0.00000000000E+00  0.16409639232E+03  0.16409639232E+03  0.00000000000E+00 0. -1.
         21   -1    0    0  505  502 -0.00000000000E+00 -0.00000000000E+00 -0.60843001407E+03  0.60843001407E+03  0.00000000000E+00 0.  1.
         21    1    1    2  503  502 -0.49643281592E+02  0.29568691859E+02 -0.26595680266E+03  0.27216131949E+03  0.00000000000E+00 0. -1.
         21    1    1    2  504  503 -0.94259050491E+02  0.49591246695E+02 -0.27585790789E+03  0.29570533592E+03  0.00000000000E+00 0.  1.
         21    1    1    2  505  506  0.80762317152E+02 -0.81142744227E+02  0.46839302417E+02  0.12369566307E+03  0.00000000000E+00 0. -1.
         21    1    1    2  506  501  0.63140014931E+02  0.19828056731E+01  0.50641786374E+02  0.80964087909E+02  0.00000000000E+00 0. -1.
<scales pt_clust_3="32.40149" pt_clust_4="170.02752" pt_clust_5="54.63104" pt_clust_6="54.63104"></scales>
<clustering>
<clus scale="   32.401">  3  4 -1 -1</clus>
<clus scale="   54.631">  5  6 -1 -1</clus>
<clus scale="  170.028">  2  3  1 -1</clus>
<clus scale="  179.953">  1  3  2 -1</clus>
</clustering>
</event>
<event>
 6    0  0.3042851E+002  0.1229391E+03  0.7546771E-02  0.1238326E+00
         21   -1    0    0  506  501  0.00000000000E+00  0.00000000000E+00  0.30624484785E+03  0.30624484785E+03  0.00000000000E+00 0. -1.
         21   -1    0    0  505  502 -0.00000000000E+00 -0.00000000000E+00 -0.39115021848E+03  0.39115021848E+03  0.00000000000E+00 0. -1.
         21    1    1    2  503  502 -0.52480116936E+02  0.13802923949E+02 -0.25702247564E+02  0.60044058099E+02  0.00000000000E+00 0. -1.
         21    1    1    2  504  501  0.34757465025E+02 -0.58526329421E+02  0.17448328026E+02  0.70269885167E+02  0.00000000000E+00 0.  1.
         21    1    1    2  505  504  0.58917821640E+02  0.11606474783E+03 -0.30107945122E+03  0.32801093174E+03  0.00000000000E+00 0. -1.
         21    1    1    2  506  503 -0.41195169730E+02 -0.71341342357E+02  0.22442800013E+03  0.23907019132E+03  0.00000000000E+00 0. -1.
<scales pt_clust_3="54.26494" pt_clust_4="65.20105" pt_clust_5="122.93910" pt_clust_6="14000.00000"></scales>
<clustering>
<clus scale="   54.265">  2  3  1 -1</clus>
<clus scale="   65.201">  1  4  2 -1</clus>
<clus scale="  122.939">  2  5  1 -1</clus>
<clus scale="   65.201">  1  3  2 -1</clus>
</clustering>
</event>
<event>
 6    0  0.3042851E+002  0.2471236E+03  0.7546771E-02  0.1115136E+00
         21   -1    0    0  504  501  0.00000000000E+00  0.00000000000E+00  0.10129414409E+04  0.10129414409E+04  0.00000000000E+00 0. -1.
         21   -1    0    0  503  502 -0.00000000000E+00 -0.00000000000E+00 -0.27389238490E+03  0.27389238490E+03  0.00000000000E+00 0. -1.
         21    1    1    2  503  501  0.14264875628E+02  0.53460107224E+02 -0.25662384048E+02  0.60992029775E+02  0.00000000000E+00 0. -1.
         21    1    1    2  504  505 -0.47999546656E+02 -0.15756513555E+02  0.10443764685E+03  0.11601485370E+03  0.00000000000E+00 0.  1.
         21    1    1    2  505  506 -0.16355973350E+03 -0.94670328781E+02  0.82512508382E+03  0.84649020167E+03  0.00000000000E+00 0. -1.
         21    1    1    2  506  502  0.19729440453E+03  0.56966735113E+02 -0.16485129062E+03  0.26333674067E+03  0.00000000000E+00 0. -1.
<scales pt_clust_3="55.33055" pt_clust_4="37.91555" pt_clust_5="37.91555" pt_clust_6="235.99237"></scales>
<clustering>
<clus scale="   37.916">  4  5 -1 -1</clus>
<clus scale="   55.331">  2  3  1 -1</clus>
<clus scale="  235.992">  2  6  1 -1</clus>
<clus scale="  247.124">  1  3  2 -1</clus>
</clustering>
</event>
<event>
 6    0  0.3042851E+002  0.1339498E+03  0.7546771E-02  0.1221710E+00
         21   -1    0    0  506  501  0.00000000000E+00  0.00000000000E+00  0.50093985905E+03  0.50093985905E+03  0.00000000000E+00 0. -1.
         21   -1    0    0  503  502 -0.00000000000E+00 -0.00000000000E+00 -0.34849478722E+03  0.34849478722E+03  0.00000000000E+00 0.  1.
         21    1    1    2  503  504 -0.77820076998E+02  0.59770311000E+02 -0.26147034561E+03  0.27927620037E+03  0.00000000000E+00 0.  1.
         21    1    1    2  504  501 -0.38910709599E+02 -0.66753069921E-01 -0.51978009871E+02  0.64928894090E+02  0.00000000000E+00 0.  1.
         21    1    1    2  505  502  0.70940282199E+02 -0.25545262440E+02  0.62854218171E+02  0.98161788968E+02  0.00000000000E+00 0. -1.
         21    1    1    2  506  505  0.45790504399E+02 -0.34158295490E+02  0.40303920914E+03  0.40706776284E+03  0.00000000000E+00 0. -1.
<scales pt_clust_3="34.70129" pt_clust_4="34.70129" pt_clust_5="122.08954" pt_clust_6="57.12757"></scales>
<clustering>
<clus scale="   34.701">  3  4 -1 -1</clus>
<clus scale="   57.128">  1  6  2 -1</clus>
<clus scale="  122.090">  1  5  2 -1</clus>
<clus scale="   57.128">  1  3  2 -1</clus>
</clustering>
</event>
<event>
 6    0  0.3042851E+002  0.1789334E+03  0.7546771E-02  0.1168839E+00
         21   -1    0    0  505  501  0.00000000000E+00  0.00000000000E+00  0.56299594889E+03  0.56299594889E+03  0.00000000000E+00 0.  1.
         21   -1    0    0  504  502 -0.00000000000E+00 -0.00000000000E+00 -0.93097191618E+02  0.93097191618E+02  0.00000000000E+00 0.  1.
         21    1    1    2  503  502  0.83706248634E+02 -0.15674500240E+03  0.82681052577E+02  0.19598951067E+03  0.00000000000E+00 0.  1.
         21    1    1    2  504  501  0.41604134045E+02  0.51481529934E+02  0.16951893318E+03  0.18198329759E+03  0.00000000000E+00 0.  1.
         21    1    1    2  505  506 -0.38270441691E+02  0.10647424019E+02  0.26622848460E+02  0.47820188264E+02  0.00000000000E+00 0.  1.
         21    1    1    2  506  503 -0.87039940988E+02  0.94616048444E+02  0.19107592306E+03  0.23030014399E+03  0.00000000000E+00 0.  1.
<scales pt_clust_3="169.82954" pt_clust_4="66.19103" pt_clust_5="31.32184" pt_clust_6="31.32184"></scales>
<clustering>
<clus scale="   31.322">  5  6 -1 -1</clus>
<clus scale="   66.191">  1  4  2 -1</clus>
<clus scale="  169.830">  2  3  1 -1</clus>
<clus scale="   66.191">  1  3  2 -1</clus>
</clustering>
</event>
<event>
 6    0  0.3042851E+002  0.2410454E+03  0.7546771E-02  0.1119098E+00
         21   -1    0    0  504  501  0.00000000000E+00  0.00000000000E+00  0.14843556849E+04  0.14843556849E+04  0.00000000000E+00 0.  1.
         21   -1    0    0  503  502 -0.00000000000E+00 -0.00000000000E+00 -0.86833835057E+02  0.86833835057E+02  0.00000000000E+00 0.  1.
         21    1    1    2  503  505 -0.10823583276E+03  0.18148616978E+03  0.28213918203E+03  0.35249786290E+03  0.00000000000E+00 0.  1.
         21    1    1    2  504  502  0.12020346246E+03 -0.25090711956E+03  0.34118931441E+03  0.44024243696E+03  0.00000000000E+00 0.  1.
         21    1    1    2  505  506 -0.15810927055E+02  0.35762625967E+02  0.23835189813E+03  0.24153794354E+03  0.00000000000E+00 0.  1.
         21    1    1    2  506  501  0.38432973484E+01  0.33658323816E+02  0.53584145528E+03  0.53691127656E+03  0.00000000000E+00 0.  1.
<scales pt_clust_3="14000.00000" pt_clust_4="241.04544" pt_clust_5="46.70184" pt_clust_6="33.87704"></scales>
<clustering>
<clus scale="   33.877">  1  6  2 -1</clus>
<clus scale="   46.702">  1  5  2 -1</clus>
<clus scale="  241.045">  1  4  2 -1</clus>
<clus scale="   33.877">  1  3  2 -1</clus>
</clustering>
</event>
<event>
 6    0  0.3042851E+002  0.1242603E+03  0.7546771E-02  0.1236230E+00
         21   -1    0    0  506  501  0.00000000000E+00  0.00000000000E+00  0.22689747488E+03  0.22689747488E+03  0.00000000000E+00 0.  1.
         21   -1    0    0  503  502 -0.00000000000E+00 -0.00000000000E+00 -0.17572636254E+03  0.17572636254E+03  0.00000000000E+00 0. -1.
         21    1    1    2  503  505  0.26553616452E+02 -0.41404769499E+02  0.15307134626E+01  0.49211711692E+02  0.00000000000E+00 0. -1.
         21    1    1    2  504  501 -0.12213513580E+03  0.30814865324E+02  0.13144688665E+03  0.18205721994E+03  0.00000000000E+00 0.  1.
         21    1    1    2  505  504  0.11815933704E+03 -0.11679419437E+02 -0.61750327501E+02  0.13383250993E+03  0.00000000000E+00 0. -1.
         21    1    1    2  506  502 -0.22577817686E+02  0.22269323612E+02 -0.20056160271E+02  0.37522395851E+02  0.00000000000E+00 0.  1.
<scales pt_clust_3="44.18340" pt_clust_4="124.26026" pt_clust_5="14000.00000" pt_clust_6="31.71247"></scales>
<clustering>
<clus scale="   31.712">  2  6  1 -1</clus>
<clus scale="   44.183">  2  3  1 -1</clus>
<clus scale="  124.260">  1  4  2 -1</clus>
<clus scale="  124.260">  1  3  2 -1</clus>
</clustering>
</event>
<event>
 6    0  0.3042851E+002  0.2069078E+03  0.7546771E-02  0.1144038E+00
         21   -1    0    0  503  501  0.00000000000E+00  0.00000000000E+00  0.26448462456E+04  0.26448462456E+04  0.00000000000E+00 0. -1.
         21   -1    0    0  505  502 -0.00000000000E+00 -0.00000000000E+00 -0.71980257470E+02  0.71980257470E+02  0.00000000000E+00 0.  1.
         21    1    1    2  503  506 -0.50989766153E+02  0.26744884100E+01  0.34179216690E+03  0.34558500328E+03  0.00000000000E+00 0. -1.
         21    1    1    2  504  502  0.14227421670E+03  0.48031557221E+02  0.28140420752E+02  0.15277717927E+03  0.00000000000E+00 0.  1.
         21    1    1    2  505  501  0.35885144002E+02  0.23375422632E+02  0.82720407957E+02  0.93149448929E+02  0.00000000000E+00 0.  1.
         21    1    1    2  506  504 -0.12716959455E+03 -0.74081468263E+02  0.21202129925E+04  0.21253148716E+04  0.00000000000E+00 0. -1.
<scales pt_clust_3="49.20912" pt_clust_4="189.13950" pt_clust_5="42.82702" pt_clust_6="49.20912"></scales>
<clustering>
<clus scale="   42.827">  2  5  1 -1</clus>
<clus scale="   49.209">  3  6 -1 -1</clus>
<clus scale="  189.140">  2  4  1 -1</clus>
<clus scale="  206.908">  1  3  2 -1</clus>
</clustering>
</event>
<event>
 6    0  0.3042851E+002  0.9707483E+02  0.7546771E-02  0.1286570E+00
         21   -1    0    0  503  501  0.00000000000E+00  0.00000000000E+00  0.46957167573E+03  0.46957167573E+03  0.00000000000E+00 0. -1.
         21   -1    0    0  506  502 -0.00000000000E+00 -0.00000000000E+00 -0.30941194892E+03  0.30941194892E+03  0.00000000000E+00 0. -1.
         21    1    1    2  503  504  0.40693516190E+02  0.56691548766E+01  0.28528933123E+03  0.28823272557E+03  0.00000000000E+00 0. -1.
         21    1    1    2  504  505  0.54654150633E+02  0.26113478793E+02  0.15675548316E+03  0.16805139528E+03  0.00000000000E+00 0. -1.
         21    1    1    2  505  502 -0.10045499938E+03 -0.62807477262E+02 -0.25558234209E+03  0.28170608742E+03  0.00000000000E+00 0. -1.
         21    1    1    2  506  501  0.51073325562E+01  0.31024843593E+02 -0.26302745491E+02  0.40993416375E+02  0.00000000000E+00 0. -1.
<scales pt_clust_3="41.13667" pt_clust_4="97.07483" pt_clust_5="14000.00000" pt_clust_6="31.44242"></scales>
<clustering>
<clus scale="   31.442">  2  6  1 -1</clus>
<clus scale="   41.137">  1  3  2 -1</clus>
<clus scale="   97.075">  1  4  2 -1</clus>
<clus scale="   41.137">  1  3  2 -1</clus>
</clustering>
</event>
<event>
 6    0  0.3042851E+002  0.2684156E+03  0.7546771E-02  0.1102190E+00
         21   -1    0    0  506  501  0.00000000000E+00  0.00000000000E+00  0.45980183009E+03  0.45980183009E+03  0.00000000000E+00 0.  1.
         21   -1    0    0  505  502 -0.00000000000E+00 -0.00000000000E+00 -0.19346822335E+03  0.19346822335E+03  0.00000000000E+00 0.  1.
         21    1    1    2  503  501  0.15149888636E+02  0.56800714364E+02  0.31531356320E+02  0.66708820326E+02  0.00000000000E+00 0.  1.
         21    1    1    2  504  502 -0.10934315317E+03 -0.74339679687E+02  0.77700070446E+02  0.15336105786E+03  0.00000000000E+00 0.  1.
         21    1    1    2  505  503  0.24080113068E+03  0.65187048389E+02  0.10139806490E+03  0.26928814192E+03  0.00000000000E+00 0.  1.
         21    1    1    2  506  504 -0.14660786614E+03 -0.47648083066E+02  0.55704115073E+02  0.16391203333E+03  0.00000000000E+00 0.  1.
<scales pt_clust_3="58.78640" pt_clust_4="46.06102" pt_clust_5="263.76754" pt_clust_6="46.06102"></scales>
<clustering>
<clus scale="   46.061">  4  6 -1 -1</clus>
<clus scale="   58.786">  1  3  2 -1</clus>
<clus scale="  263.768">  2  5  1 -1</clus>
<clus scale="   58.786">  1  3  2 -1</clus>
</clustering>
</event>
<event>
 6    0  0.3042851E+002  0.1181315E+03  0.7546771E-02  0.1246212E+00
         21   -1    0    0  504  501  0.00000000000E+00  0.00000000000E+00  0.82394761749E+02  0.82394761749E+02  0.00000000000E+00 0. -1.
         21   -1    0    0  503  502 -0.00000000000E+00 -0.00000000000E+00 -0.14464016383E+04  0.14464016383E+04  0.00000000000E+00 0. -1.
         21    1    1    2  503  501  0.30742382517E+02  0.65625470984E+02  0.81740037311E+01  0.72928806803E+02  0.00000000000E+00 0. -1.
         21    1    1    2  504  505  0.74425303130E+02  0.77048801310E+01 -0.51476627703E+01  0.74999929038E+02  0.00000000000E+00 0. -1.
         21    1    1    2  505  506 -0.75933450713E+02 -0.11474111867E+03 -0.81713475212E+03  0.82863780772E+03  0.00000000000E+00 0. -1.
         21    1    1    2  506  502 -0.29234234934E+02  0.41410767559E+02 -0.54989846538E+03  0.55222985648E+03  0.00000000000E+00 0. -1.
<scales pt_clust_3="73.39418" pt_clust_4="14000.00000" pt_clust_5="118.13155" pt_clust_6="50.69016"></scales>
<clustering>
<clus scale="   50.690">  2  6  1 -1</clus>
<clus scale="   73.394">  1  3  2 -1</clus>
<clus scale="  118.132">  2  5  1 -1</clus>
<clus scale="   73.394">  1  3  2 -1</clus>
</clustering>
</event>
<event>
 6    0  0.3042851E+002  0.1132076E+03  0.7546771E-02  0.1254743E+00
         21   -1    0    0  506  501  0.00000000000E+00  0.00000000000E+00  0.28161656551E+02  0.28161656551E+02  0.00000000000E+00 0.  1.
         21   -1    0    0  504  502 -0.00000000000E+00 -0.00000000000E+00 -0.15648125960E+04  0.15648125960E+04  0.00000000000E+00 0.  1.
         21    1    1    2  503  502 -0.55840834009E+02  0.82034319206E+02 -0.49872366090E+03  0.50850085370E+03  0.00000000000E+00 0.  1.
         21    1    1    2  504  501  0.10878661975E+03 -0.75414386491E+01 -0.15441668661E+03  0.18903945366E+03  0.00000000000E+00 0.  1.
         21    1    1    2  505  503 -0.81060344045E+02 -0.46224889956E+02 -0.75853468378E+03  0.76425282880E+03  0.00000000000E+00 0.  1.
         21    1    1    2  506  505  0.28114558302E+02 -0.28267990600E+02 -0.12497590820E+03  0.13118111645E+03  0.00000000000E+00 0.  1.
<scales pt_clust_3="91.60245" pt_clust_4="14000.00000" pt_clust_5="113.20757" pt_clust_6="39.86863"></scales>
<clustering>
<clus scale="   39.869">  1  6  2 -1</clus>
<clus scale="   91.602">  2  3  1 -1</clus>
<clus scale="  113.208">  2  5  1 -1</clus>
<clus scale="   39.869">  1  3  2 -1</clus>
</clustering>
</event>
<event>
 6    0  0.3042851E+002  0.1512331E+03  0.7546771E-02  0.1198966E+00
         21   -1    0    0  504  501  0.00000000000E+00  0.00000000000E+00  0.61367090915E+03  0.61367090915E+03  0.00000000000E+00 0. -1.
         21   -1    0    0  503  502 -0.00000000000E+00 -0.00000000000E+00 -0.13327166040E+03  0.13327166040E+03  0.00000000000E+00 0. -1.
         21    1    1    2  503  501 -0.11428575192E+03  0.28537492675E+02  0.47528623216E+03  0.48966582897E+03  0.00000000000E+00 0. -1.
         21    1    1    2  504  506 -0.20929349397E+02  0.36273235909E+02  0.76518985895E+02  0.87229241151E+02  0.00000000000E+00 0.  1.
         21    1    1    2  505  502  0.81539353566E+02 -0.19282054255E+02 -0.34990924784E+02  0.90801038615E+02  0.00000000000E+00 0. -1.
         21    1    1    2  506  505  0.53675747754E+02 -0.45528674329E+02 -0.36415044531E+02  0.79246460813E+02  0.00000000000E+00 0. -1.
<scales pt_clust_3="146.75713" pt_clust_4="41.87822" pt_clust_5="33.47259" pt_clust_6="33.47259"></scales>
<clustering>
<clus scale="   33.473">  5  6 -1 -1</clus>
<clus scale="   41.878">  1  4  2 -1</clus>
<clus scale="  146.757">  1  3  2 -1</clus>
<clus scale="   41.878">  1  3  2 -1</clus>
</clustering>
</event>
<event>
 6    0  0.3042851E+002  0.1301540E+03  0.7546771E-02  0.1227227E+00
         21   -1    0    0  506  501  0.00000000000E+00  0.00000000000E+00  0.18189891849E+04  0.18189891849E+04  0.00000000000E+00 0.  1.
         21   -1    0    0  505  502 -0.00000000000E+00 -0.00000000000E+00 -0.32235499741E+03  0.32235499741E+03  0.00000000000E+00 0. -1.
         21    1    1    2  503  501  0.64395947267E+02  0.11317039996E+03  0.17466231609E+04  0.17514699094E+04  0.00000000000E+00 0.  1.
         21    1    1    2  504  502 -0.43321082904E+02  0.39395149129E+00 -0.42161240737E+02  0.60451977984E+02  0.00000000000E+00 0. -1.
         21    1    1    2  505  503  0.42356236757E+02 -0.66550374968E+01  0.35836406668E+02  0.55880124903E+02  0.00000000000E+00 0.  1.
         21    1    1    2  506  504 -0.63431101120E+02 -0.10690931396E+03 -0.24366413930E+03  0.27354217003E+03  0.00000000000E+00 0. -1.
<scales pt_clust_3="130.15403" pt_clust_4="36.36999" pt_clust_5="42.87587" pt_clust_6="14000.00000"></scales>
<clustering>
<clus scale="   42.876">  2  5  1 -1</clus>
<clus scale="   36.370">  2  4  1 -1</clus>
<clus scale="  130.154">  1  3  2 -1</clus>
<clus scale="  130.154">  1  3  2 -1</clus>
</clustering>
</event>
<event>
 6    0  0.3042851E+002  0.1224783E+03  0.7546771E-02  0.1239064E+00
         21   -1    0    0  505  501  0.00000000000E+00  0.00000000000E+00  0.63763781806E+03  0.63763781806E+03  0.00000000000E+00 0. -1.
         21   -1    0    0  503  502 -0.00000000000E+00 -0.00000000000E+00 -0.19625634165E+03  0.19625634165E+03  0.00000000000E+00 0. -1.
         21    1    1    2  503  504  0.50947181117E+02 -0.12043872251E+03 -0.15189157103E+03  0.20042991417E+03  0.00000000000E+00 0. -1.
         21    1    1    2  504  501  0.32100086621E+02  0.26430848628E+02  0.28121094658E+02  0.50197622305E+02  0.00000000000E+00 0. -1.
         21    1    1    2  505  506 -0.28529929969E+02  0.49956317788E+02  0.39616946601E+03  0.40032466372E+03  0.00000000000E+00 0. -1.
         21    1    1    2  506  502 -0.54517337770E+02  0.44051556097E+02  0.16898248678E+03  0.18294195951E+03  0.00000000000E+00 0. -1.
<scales pt_clust_3="122.47826" pt_clust_4="41.58131" pt_clust_5="67.92370" pt_clust_6="14000.00000"></scales>
<clustering>
<clus scale="   41.581">  1  4  2 -1</clus>
<clus scale="   67.924">  1  5  2 -1</clus>
<clus scale="  122.478">  2  3  1 -1</clus>
<clus scale="   41.581">  1  3  2 -1</clus>
</clustering>
</event>
<event>
 6    0  0.3042851E+002  0.1074531E+03  0.7546771E-02  0.1265360E+00
         21   -1    0    0  505  501  0.00000000000E+00  0.00000000000E+00  0.18807597839E+02  0.18807597839E+02  0.00000000000E+00 0.  1.
         21   -1    0    0  503  502 -0.00000000000E+00 -0.00000000000E+00 -0.12840938345E+04  0.12840938345E+04  0.00000000000E+00 0.  1.
         21    1    1    2  503  504 -0.27480271762E+02 -0.47883451285E+02 -0.27699073929E+03  0.28243912600E+03  0.00000000000E+00 0.  1.
         21    1    1    2  504  506  0.44681699858E+02 -0.20168787155E+02 -0.11780583987E+03  0.12759878599E+03  0.00000000000E+00 0.  1.
         21    1    1    2  505  502 -0.76538338809E+02  0.48885813672E+02 -0.76462515210E+03  0.76999971643E+03  0.00000000000E+00 0.  1.
         21    1    1    2  506  501  0.59336910713E+02  0.19166424768E+02 -0.10586450544E+03  0.12286380396E+03  0.00000000000E+00 0.  1.
<scales pt_clust_3="55.20861" pt_clust_4="38.46762" pt_clust_5="98.30545" pt_clust_6="38.46762"></scales>
<clustering>
<clus scale="   38.468">  4  6 -1 -1</clus>
<clus scale="   55.209">  2  3  1 -1</clus>
<clus scale="   98.305">  2  5  1 -1</clus>
<clus scale="  107.453">  1  3  2 -1</clus>
</clustering>
</event>
<event>
 6    0  0.3042851E+002  0.1485563E+03  0.7546771E-02  0.1202258E+00
         21   -1    0    0  502  501  0.00000000000E+00  0.00000000000E+00  0.21906446281E+04  0.21906446281E+04  0.00000000000E+00 0. -1.
         21   -1    0    0  504  502 -0.00000000000E+00 -0.00000000000E+00 -0.63148958500E+02  0.63148958500E+02  0.00000000000E+00 0.  1.
         21    1    1    2  503  506 -0.27474230659E+02  0.62635603087E+02  0.73294358694E+03  0.73612794659E+03  0.00000000000E+00 0. -1.
         21    1    1    2  504  505  0.23249130564E+02 -0.72978387943E+02  0.44256875385E+01  0.76719970601E+02  0.00000000000E+00 0.  1.
         21    1    1    2  505  503  0.44179812016E+02 -0.53333725023E+02  0.24816260906E+02  0.73567579952E+02  0.00000000000E+00 0.  1.
         21    1    1    2  506  501 -0.39954711921E+02  0.63676509880E+02  0.13653101342E+04  0.13673780895E+04  0.00000000000E+00 0. -1.
<scales pt_clust_3="37.76544" pt_clust_4="147.41525" pt_clust_5="33.34727" pt_clust_6="37.76544"></scales>
<clustering>
<clus scale="   33.347">  4  5 -1 -1</clus>
<clus scale="   37.765">  3  6 -1 -1</clus>
<clus scale="  147.415">  2  4  1 -1</clus>
<clus scale="  148.556">  1  3  2 -1</clus>
</clustering>
</event>
<event>
 6    0  0.3042851E+002  0.1188065E+03  0.7546771E-02  0.1245079E+00
         21   -1    0    0  504  501  0.00000000000E+00  0.00000000000E+00  0.22781243888E+04  0.22781243888E+04  0.00000000000E+00 0. -1.
         21   -1    0    0  505  502 -0.00000000000E+00 -0.00000000000E+00 -0.48671573745E+03  0.48671573745E+03  0.00000000000E+00 0. -1.
         21    1    1    2  503  501  0.66840976008E+02 -0.29000043267E+02  0.15532591002E+04  0.15549670578E+04  0.00000000000E+00 0. -1.
         21    1    1    2  504  502 -0.15084623592E+03  0.71461799709E+01 -0.34037976541E+03  0.37237620693E+03  0.00000000000E+00 0. -1.
         21    1    1    2  505  506  0.42427295632E+02  0.58810086203E+01 -0.12521810103E+03  0.13234135598E+03  0.00000000000E+00 0.  1.
         21    1    1    2  506  503  0.41577964284E+02  0.15972854675E+02  0.70374741759E+03  0.70515550552E+03  0.00000000000E+00 0. -1.
<scales pt_clust_3="36.26363" pt_clust_4="109.37910" pt_clust_5="42.83295" pt_clust_6="36.26363"></scales>
<clustering>
<clus scale="   36.264">  3  6 -1 -1</clus>
<clus scale="   42.833">  2  5  1 -1</clus>
<clus scale="  109.379">  2  4  1 -1</clus>
<clus scale="  118.807">  1  3  2 -1</clus>
</clustering>
</event>
<event>
 6    0  0.3042851E+002  0.1278331E+03  0.7546771E-02  0.1230707E+00
         21   -1    0    0  505  501  0.00000000000E+00  0.00000000000E+00  0.32835102606E+03  0.32835102606E+03  0.00000000000E+00 0. -1.
         21   -1    0    0  506  502 -0.00000000000E+00 -0.00000000000E+00 -0.78529448682E+03  0.78529448682E+03  0.00000000000E+00 0.  1.
         21    1    1    2  503  501  0.39656784290E+02 -0.12040836289E+03  0.21187723403E+03  0.24690645332E+03  0.00000000000E+00 0. -1.
         21    1    1    2  504  502 -0.26515087367E+02  0.88179159850E+02 -0.43223781964E+03  0.44193681315E+03  0.00000000000E+00 0.  1.
         21    1    1    2  505  504 -0.12140230547E+03  0.10994188523E+03 -0.24108857902E+03  0.29146087359E+03  0.00000000000E+00 0.  1.
         21    1    1    2  506  503  0.10826060855E+03 -0.77712682194E+02  0.45057038833E+01  0.13334137281E+03  0.00000000000E+00 0. -1.
<scales pt_clust_3="14000.00000" pt_clust_4="92.07939" pt_clust_5="127.83306" pt_clust_6="120.21750"></scales>
<clustering>
<clus scale="   92.079">  2  4  1 -1</clus>
<clus scale="  120.218">  2  6  1 -1</clus>
<clus scale="  127.833">  2  5  1 -1</clus>
<clus scale="  127.833">  1  3  2 -1</clus>
</clustering>
</event>
<event>
 6    0  0.3042851E+002  0.8368070E+02  0.7546771E-02  0.1318919E+00
         21   -1    0    0  504  501  0.00000000000E+00  0.00000000000E+00  0.22871319487E+02  0.22871319487E+02  0.00000000000E+00 0.  1.
         21   -1    0    0  505  502 -0.00000000000E+00 -0.00000000000E+00 -0.80527453398E+03  0.80527453398E+03  0.00000000000E+00 0.  1.
         21    1    1    2  503  506  0.48266222229E+02  0.23779109020E+02 -0.21112525862E+03  0.21787369979E+03  0.00000000000E+00 0.  1.
         21    1    1    2  504  503 -0.80075161731E+02  0.44400201177E+02 -0.15784899922E+03  0.18248209760E+03  0.00000000000E+00 0.  1.
         21    1    1    2  505  501  0.58706826960E+02 -0.40847369246E+02 -0.26316933127E+03  0.27271431211E+03  0.00000000000E+00 0.  1.
         21    1    1    2  506  502 -0.26897887459E+02 -0.27331940952E+02 -0.15025962538E+03  0.15507574396E+03  0.00000000000E+00 0.  1.
<scales pt_clust_3="42.11024" pt_clust_4="83.68070" pt_clust_5="14000.00000" pt_clust_6="38.34751"></scales>
<clustering>
<clus scale="   38.348">  2  6  1 -1</clus>
<clus scale="   42.110">  2  3  1 -1</clus>
<clus scale="   83.681">  1  4  2 -1</clus>
<clus scale="   83.681">  1  3  2 -1</clus>
</clustering>
</event>
<event>
 6    0  0.3042851E+002  0.1339122E+03  0.7546771E-02  0.1221763E+00
         21   -1    0    0  505  501  0.00000000000E+00  0.00000000000E+00  0.10890041273E+04  0.10890041273E+04  0.00000000000E+00 0.  1.
         21   -1    0    0  503  502 -0.00000000000E+00 -0.00000000000E+00 -0.17650025142E+02  0.17650025142E+02  0.00000000000E+00 0.  1.
         21    1    1    2  503  504  0.55701440534E+02  0.69564454282E+02  0.59186489347E+03  0.59853647834E+03  0.00000000000E+00 0.  1.
         21    1    1    2  504  501  0.13446822997E+02  0.33420582990E+02  0.10309766388E+03  0.10921025919E+03  0.00000000000E+00 0. -1.
         21    1    1    2  505  506 -0.29629992979E+02 -0.68699665971E+02  0.16553891416E+03  0.18166098285E+03  0.00000000000E+00 0.  1.
         21    1    1    2  506  502 -0.39518270552E+02 -0.34285371300E+02  0.21085263069E+03  0.21724643211E+03  0.00000000000E+00 0. -1.
<scales pt_clust_3="32.07516" pt_clust_4="32.07516" pt_clust_5="132.12316" pt_clust_6="38.03818"></scales>
<clustering>
<clus scale="   32.075">  3  4 -1 -1</clus>
<clus scale="   38.038">  5  6 -1 -1</clus>
<clus scale="  132.123">  2  5  1 -1</clus>
<clus scale="  133.912">  1  3  2 -1</clus>
</clustering>
</event>
<event>
 6    0  0.3042851E+002  0.1169133E+03  0.7546771E-02  0.1248278E+00
         21   -1    0    0  504  501  0.00000000000E+00  0.00000000000E+00  0.21066187654E+03  0.21066187654E+03  0.00000000000E+00 0. -1.
         21   -1    0    0  506  502 -0.00000000000E+00 -0.00000000000E+00 -0.22314418545E+03  0.22314418545E+03  0.00000000000E+00 0.  1.
         21    1    1    2  503  502  0.12102231378E+03 -0.19990856717E+02 -0.15402012930E+03  0.19689650839E+03  0.00000000000E+00 0.  1.
         21    1    1    2  504  503 -0.71387660672E+02  0.39483251742E+02  0.13656618996E+03  0.15907686666E+03  0.00000000000E+00 0. -1.
         21    1    1    2  505  501 -0.29835497210E+02  0.18096183953E+02  0.56161123490E+01  0.35343591857E+02  0.00000000000E+00 0. -1.
         21    1    1    2  506  505 -0.19799155900E+02 -0.37588578978E+02 -0.64448192378E+00  0.42489095082E+02  0.00000000000E+00 0. -1.
<scales pt_clust_3="116.91327" pt_clust_4="14000.00000" pt_clust_5="34.89454" pt_clust_6="42.42586"></scales>
<clustering>
<clus scale="   34.895">  1  5  2 -1</clus>
<clus scale="   42.426">  1  6  2 -1</clus>
<clus scale="  116.913">  2  3  1 -1</clus>
<clus scale="   34.895">  1  3  2 -1</clus>
</clustering>
</event>
<event>
 6    0  0.3042851E+002  0.1075226E+03  0.7546771E-02  0.1265228E+00
         21   -1    0    0  504  501  0.00000000000E+00  0.00000000000E+00  0.80776500737E+03  0.80776500737E+03  0.00000000000E+00 0.  1.
         21   -1    0    0  505  502 -0.00000000000E+00 -0.00000000000E+00 -0.15462357258E+03  0.15462357258E+03  0.00000000000E+00 0.  1.
         21    1    1    2  503  506  0.54473482959E+02 -0.64366974681E+02  0.63008130965E+03  0.63569876872E+03  0.00000000000E+00 0.  1.
         21    1    1    2  504  502  0.40372728489E+02  0.46255281104E+02  0.20400973743E+00  0.61396659971E+02  0.00000000000E+00 0.  1.
         21    1    1    2  505  503 -0.90525690910E+02  0.52724859222E+02 -0.95589918325E+02  0.14181764340E+03  0.00000000000E+00 0.  1.
         21    1    1    2  506  501 -0.43205205381E+01 -0.34613165645E+02  0.11844603373E+03  0.12347550786E+03  0.00000000000E+00 0. -1.
<scales pt_clust_3="107.52258" pt_clust_4="60.10582" pt_clust_5="14000.00000" pt_clust_6="34.88177"></scales>
<clustering>
<clus scale="   34.882">  1  6  2 -1</clus>
<clus scale="   60.106">  2  4  1 -1</clus>
<clus scale="  107.523">  1  3  2 -1</clus>
<clus scale="   34.882">  1  3  2 -1</clus>
</clustering>
</event>
<event>
 6    0  0.3042851E+002  0.5987156E+02  0.7546771E-02  0.1398372E+00
         21   -1    0    0  505  501  0.00000000000E+00  0.00000000000E+00  0.10075684543E+03  0.10075684543E+03  0.00000000000E+00 0.  1.
         21   -1    0    0  506  502 -0.00000000000E+00 -0.00000000000E+00 -0.28454683934E+03  0.28454683934E+03  0.00000000000E+00 0. -1.
         21    1    1    2  503  504 -0.96161852099E+02  0.61171919044E+01 -0.16189545513E+03  0.18840026600E+03  0.00000000000E+00 0. -1.
         21    1    1    2  504  501  0.50766459592E+02 -0.46933371783E+02  0.27393758650E+02  0.74366610918E+02  0.00000000000E+00 0.  1.
         21    1    1    2  505  502 -0.76147535416E+00  0.55098486483E+02 -0.23180237188E+01  0.55152482187E+02  0.00000000000E+00 0. -1.
         21    1    1    2  506  503  0.46156867861E+02 -0.14282306604E+02 -0.46970273709E+02  0.67384325663E+02  0.00000000000E+00 0.  1.
<scales pt_clust_3="14000.00000" pt_clust_4="59.87156" pt_clust_5="53.53427" pt_clust_6="48.31605"></scales>
<clustering>
<clus scale="   48.316">  2  6  1 -1</clus>
<clus scale="   53.534">  1  5  2 -1</clus>
<clus scale="   59.872">  1  4  2 -1</clus>
<clus scale="   53.534">  1  3  2 -1</clus>
</clustering>
</event>
<event>
 6    0  0.3042851E+002  0.1066200E+03  0.7546771E-02  0.1266960E+00
         21   -1    0    0  505  501  0.00000000000E+00  0.00000000000E+00  0.12164934489E+04  0.12164934489E+04  0.00000000000E+00 0.  1.
         21   -1    0    0  503  502 -0.00000000000E+00 -0.00000000000E+00 -0.14536566755E+02  0.14536566755E+02  0.00000000000E+00 0.  1.
         21    1    1    2  503  504  0.10942122795E+02  0.60174933930E+02  0.25921446204E+03  0.26633229256E+03  0.00000000000E+00 0.  1.
         21    1    1    2  504  506 -0.26962939656E+02  0.57139928857E+02  0.35908464789E+03  0.36460081724E+03  0.00000000000E+00 0.  1.
         21    1    1    2  505  502  0.45142760242E+02 -0.77110312273E+02  0.35020558339E+03  0.36142470820E+03  0.00000000000E+00 0.  1.
         21    1    1    2  506  501 -0.29121943382E+02 -0.40204550515E+02  0.23345218884E+03  0.23867219768E+03  0.00000000000E+00 0.  1.
<scales pt_clust_3="41.31549" pt_clust_4="41.31549" pt_clust_5="98.00240" pt_clust_6="49.64366"></scales>
<clustering>
<clus scale="   41.315">  3  4 -1 -1</clus>
<clus scale="   49.644">  1  6  2 -1</clus>
<clus scale="   98.002">  2  5  1 -1</clus>
<clus scale="   49.644">  1  3  2 -1</clus>
</clustering>
</event>
<event>
 6    0  0.3042851E+002  0.1510971E+03  0.7546771E-02  0.1199131E+00
         21   -1    0    0  503  501  0.00000000000E+00  0.00000000000E+00  0.47968246913E+03  0.47968246913E+03  0.00000000000E+00 0.  1.
         21   -1    0    0  501  502 -0.00000000000E+00 -0.00000000000E+00 -0.11894066112E+03  0.11894066112E+03  0.00000000000E+00 0.  1.
         21    1    1    2  503  506  0.12849989298E+03  0.53502678819E+02  0.35055158311E+03  0.37717525310E+03  0.00000000000E+00 0.  1.
         21    1    1    2  504  505 -0.97456622462E+02 -0.20620416676E+02 -0.27050195974E+02  0.10322164476E+03  0.00000000000E+00 0.  1.
         21    1    1    2  505  502  0.36799517536E+02 -0.21327673985E+01  0.19308156695E+02  0.41611994697E+02  0.00000000000E+00 0. -1.
         21    1    1    2  506  504 -0.67842788053E+02 -0.30749494745E+02  0.17932264186E+02  0.76614237689E+02  0.00000000000E+00 0.  1.
<scales pt_clust_3="143.30139" pt_clust_4="43.89313" pt_clust_5="36.86127" pt_clust_6="43.89313"></scales>
<clustering>
<clus scale="   36.861">  2  5  1 -1</clus>
<clus scale="   43.893">  4  6 -1 -1</clus>
<clus scale="  143.301">  1  3  2 -1</clus>
<clus scale="  143.301">  1  3  2 -1</clus>
</clustering>
</event>
<event>
 6    0  0.3042851E+002  0.2782777E+03  0.7546771E-02  0.1096633E+00
         21   -1    0    0  505  501  0.00000000000E+00  0.00000000000E+00  0.35884971780E+02  0.35884971780E+02  0.00000000000E+00 0.  1.
         21   -1    0    0  504  502 -0.00000000000E+00 -0.00000000000E+00 -0.28150135057E+04  0.28150135057E+04  0.00000000000E+00 0.  1.
         21    1    1    2  503  506  0.13433533132E+02 -0.48654700846E+02 -0.28820635952E+03  0.29259296880E+03  0.00000000000E+00 0. -1.
         21    1    1    2  504  503 -0.30086467847E+02 -0.21991051376E+02 -0.58988870820E+03  0.59106470877E+03  0.00000000000E+00 0.  1.
         21    1    1    2  505  502 -0.11012299031E+03  0.24343714854E+03 -0.13461378679E+04  0.13723978569E+04  0.00000000000E+00 0.  1.
         21    1    1    2  506  501  0.12677592503E+03 -0.17279139632E+03 -0.55489559835E+03  0.59484294303E+03  0.00000000000E+00 0.  1.
<scales pt_clust_3="44.27223" pt_clust_4="37.26663" pt_clust_5="263.46527" pt_clust_6="44.27223"></scales>
<clustering>
<clus scale="   37.267">  2  4  1 -1</clus>
<clus scale="   44.272">  3  6 -1 -1</clus>
<clus scale="  263.465">  2  5  1 -1</clus>
<clus scale="  278.278">  1  3  2 -1</clus>
</clustering>
</event>
<event>
 6    0  0.3042851E+002  0.1513589E+03  0.7546771E-02  0.1198813E+00
         21   -1    0    0  506  501  0.00000000000E+00  0.00000000000E+00  0.15977899469E+03  0.15977899469E+03  0.00000000000E+00 0. -1.
         21   -1    0    0  504  502 -0.00000000000E+00 -0.00000000000E+00 -0.75679347239E+03  0.75679347239E+03  0.00000000000E+00 0. -1.
         21    1    1    2  503  505  0.12895901757E+03  0.69506119433E+02 -0.68620877916E+02  0.16177253703E+03  0.00000000000E+00 0. -1.
         21    1    1    2  504  503 -0.79422048605E+02  0.97194979790E+02 -0.20150488170E+03  0.23740038595E+03  0.00000000000E+00 0. -1.
         21    1    1    2  505  501  0.69052781260E+02 -0.11045167207E+03  0.32955674831E+02  0.13436493206E+03  0.00000000000E+00 0. -1.
         21    1    1    2  506  502 -0.11858975022E+03 -0.56249427150E+02 -0.35984439292E+03  0.38303461205E+03  0.00000000000E+00 0. -1.
<scales pt_clust_3="151.35892" pt_clust_4="125.51783" pt_clust_5="118.52045" pt_clust_6="14000.00000"></scales>
<clustering>
<clus scale="  125.518">  2  4  1 -1</clus>
<clus scale="  118.520">  1  5  2 -1</clus>
<clus scale="  151.359">  1  3  2 -1</clus>
<clus scale="  118.520">  1  3  2 -1</clus>
</clustering>
</event>
<event>
 6    0  0.3042851E+002  0.8991972E+02  0.7546771E-02  0.1303046E+00
         21   -1    0    0  505  501  0.00000000000E+00  0.00000000000E+00  0.12214269127E+03  0.12214269127E+03  0.00000000000E+00 0. -1.
         21   -1    0    0  503  502 -0.00000000000E+00 -0.00000000000E+00 -0.29984535662E+03  0.29984535662E+03  0.00000000000E+00 0. -1.
         21    1    1    2  503  501 -0.89386456657E+02  0.21774974451E+02 -0.21232951701E+03  0.23140421763E+03  0.00000000000E+00 0. -1.
         21    1    1    2  504  506  0.98070710227E+02 -0.28167553568E+02  0.57645480505E+02  0.11719333045E+03  0.00000000000E+00 0. -1.
         21    1    1    2  505  504 -0.10078683333E+02  0.37116102165E+02 -0.85361923961E+01  0.39396084555E+02  0.00000000000E+00 0. -1.
         21    1    1    2  506  502  0.13944297629E+01 -0.30723523049E+02 -0.14482436457E+02  0.33994415256E+02  0.00000000000E+00 0. -1.
<scales pt_clust_3="89.91972" pt_clust_4="14000.00000" pt_clust_5="35.85486" pt_clust_6="30.75515"></scales>
<clustering>
<clus scale="   30.755">  2  6  1 -1</clus>
<clus scale="   35.855">  1  5  2 -1</clus>
<clus scale="   89.920">  2  3  1 -1</clus>
<clus scale="   35.855">  1  3  2 -1</clus>
</clustering>
</event>
<event>
 6    0  0.3042851E+002  0.8259190E+02  0.7546771E-02  0.1321853E+00
         21   -1    0    0  504  501  0.00000000000E+00  0.00000000000E+00  0.19481855839E+04  0.19481855839E+04  0.00000000000E+00 0. -1.
         21   -1    0    0  505  502 -0.00000000000E+00 -0.00000000000E+00 -0.15529704912E+03  0.15529704912E+03  0.00000000000E+00 0. -1.
         21    1    1    2  503  502  0.82463355544E+01 -0.73740345035E+02 -0.11031836810E+03  0.13295030228E+03  0.00000000000E+00 0. -1.
         21    1    1    2  504  503 -0.93207234773E+02  0.13062876028E+02  0.12608466966E+04  0.12643546257E+04  0.00000000000E+00 0. -1.
         21    1    1    2  505  506  0.54961691185E+02  0.19363733583E+02 -0.34285847804E+01  0.58373768679E+02  0.00000000000E+00 0.  1.
         21    1    1    2  506  501  0.29999208034E+02  0.41313735424E+02  0.64578879109E+03  0.64780393633E+03  0.00000000000E+00 0.  1.
<scales pt_clust_3="82.59190" pt_clust_4="14000.00000" pt_clust_5="59.16327" pt_clust_6="51.05661"></scales>
<clustering>
<clus scale="   51.057">  1  6  2 -1</clus>
<clus scale="   59.163">  2  5  1 -1</clus>
<clus scale="   82.592">  2  3  1 -1</clus>
<clus scale="   51.057">  1  3  2 -1</clus>
</clustering>
</event>
<event>
 6    0  0.3042851E+002  0.2191245E+03  0.7546771E-02  0.1134537E+00
         21   -1    0    0  502  501  0.00000000000E+00  0.00000000000E+00  0.18717835592E+03  0.18717835592E+03  0.00000000000E+00 0.  1.
         21   -1    0    0  504  502 -0.00000000000E+00 -0.00000000000E+00 -0.84769878261E+03  0.84769878261E+03  0.00000000000E+00 0.  1.
         21    1    1    2  503  501  0.27301796185E+02 -0.26977581929E+02  0.31918065431E+02  0.49919343971E+02  0.00000000000E+00 0.  1.
         21    1    1    2  504  505  0.22535276853E+02  0.14493048907E+03 -0.52055171560E+03  0.54082046372E+03  0.00000000000E+00 0.  1.
         21    1    1    2  505  506 -0.22784307535E+02  0.71342714617E+02 -0.23192285339E+03  0.24371523859E+03  0.00000000000E+00 0.  1.
         21    1    1    2  506  503 -0.27052765504E+02 -0.18929562176E+03  0.60036076861E+02  0.20042209225E+03  0.00000000000E+00 0.  1.
<scales pt_clust_3="38.38200" pt_clust_4="35.75810" pt_clust_5="35.75810" pt_clust_6="213.33401"></scales>
<clustering>
<clus scale="   35.758">  4  5 -1 -1</clus>
<clus scale="   38.382">  1  3  2 -1</clus>
<clus scale="  213.334">  1  6  2 -1</clus>
<clus scale="   38.382">  1  3  2 -1</clus>
</clustering>
</event>
<event>
 6    0  0.3042851E+002  0.1238325E+03  0.7546771E-02  0.1236905E+00
         21   -1    0    0  503  501  0.00000000000E+00  0.00000000000E+00  0.28242821146E+03  0.28242821146E+03  0.00000000000E+00 0. -1.
         21   -1    0    0  505  502 -0.00000000000E+00 -0.00000000000E+00 -0.35799630533E+03  0.35799630533E+03  0.00000000000E+00 0. -1.
         21    1    1    2  503  506 -0.37994449792E+02  0.10551352128E+03  0.15003153483E+03  0.18731295425E+03  0.00000000000E+00 0. -1.
         21    1    1    2  504  501 -0.84924084946E+02 -0.49965418117E+02  0.66619536289E+02  0.11894034567E+03  0.00000000000E+00 0.  1.
         21    1    1    2  505  504  0.39850683865E+02  0.65495251789E+01 -0.24915948285E+02  0.47452900475E+02  0.00000000000E+00 0. -1.
         21    1    1    2  506  502  0.83067850874E+02 -0.62097628341E+02 -0.26730321671E+03  0.28671831639E+03  0.00000000000E+00 0. -1.
<scales pt_clust_3="14000.00000" pt_clust_4="95.47771" pt_clust_5="40.38531" pt_clust_6="123.83250"></scales>
<clustering>
<clus scale="   40.385">  2  5  1 -1</clus>
<clus scale="   95.478">  1  4  2 -1</clus>
<clus scale="  123.832">  2  6  1 -1</clus>
<clus scale="   95.478">  1  3  2 -1</clus>
</clustering>
</event>
<event>
 6    0  0.3042851E+002  0.1320992E+03  0.7546771E-02  0.1224374E+00
         21   -1    0    0  506  501  0.00000000000E+00  0.00000000000E+00  0.96235767615E+03  0.96235767615E+03  0.00000000000E+00 0.  1.
         21   -1    0    0  505  502 -0.00000000000E+00 -0.00000000000E+00 -0.59131440408E+02  0.59131440408E+02  0.00000000000E+00 0.  1.
         21    1    1    2  503  504 -0.12777066494E+02 -0.41308259738E+02  0.64906613727E+02  0.77990347199E+02  0.00000000000E+00 0.  1.
         21    1    1    2  504  502  0.34866394148E+02 -0.39367262819E+01  0.57574278541E+02  0.67423740658E+02  0.00000000000E+00 0. -1.
         21    1    1    2  505  501  0.10405318960E+03  0.83436794253E+02  0.71767667511E+03  0.72996477648E+03  0.00000000000E+00 0.  1.
         21    1    1    2  506  503 -0.12614251725E+03 -0.38191808233E+02  0.63068668357E+02  0.14611025222E+03  0.00000000000E+00 0.  1.
<scales pt_clust_3="42.65303" pt_clust_4="35.08794" pt_clust_5="14000.00000" pt_clust_6="132.09923"></scales>
<clustering>
<clus scale="   35.088">  2  4  1 -1</clus>
<clus scale="   42.653">  2  3  1 -1</clus>
<clus scale="  132.099">  2  6  1 -1</clus>
<clus scale="  132.099">  1  3  2 -1</clus>
</clustering>
</event>
<event>
 6    0  0.3042851E+002  0.9171697E+02  0.7546771E-02  0.1298746E+00
         21   -1    0    0  505  501  0.00000000000E+00  0.00000000000E+00  0.41460619705E+02  0.41460619705E+02  0.00000000000E+00 0.  1.
         21   -1    0    0  503  502 -0.00000000000E+00 -0.00000000000E+00 -0.65533297859E+03  0.65533297859E+03  0.00000000000E+00 0.  1.
         21    1    1    2  503  506  0.90830110227E+01  0.33081417929E+02 -0.89664992381E+02  0.96003604933E+02  0.00000000000E+00 0.  1.
         21    1    1    2  504  501  0.40830914370E+02  0.73472308848E+02 -0.58345464721E+02  0.10232075542E+03  0.00000000000E+00 0.  1.
         21    1    1    2  505  502 -0.94361890698E+02 -0.87157098305E+02 -0.32327954990E+03  0.34786519456E+03  0.00000000000E+00 0.  1.
         21    1    1    2  506  504  0.44447965306E+02 -0.19396628472E+02 -0.14258235188E+03  0.15060404339E+03  0.00000000000E+00 0.  1.
<scales pt_clust_3="34.30570" pt_clust_4="14000.00000" pt_clust_5="91.71697" pt_clust_6="48.03914"></scales>
<clustering>
<clus scale="   34.306">  2  3  1 -1</clus>
<clus scale="   48.039">  2  6  1 -1</clus>
<clus scale="   91.717">  2  5  1 -1</clus>
<clus scale="   91.717">  1  3  2 -1</clus>
</clustering>
</event>
<event>
 6    0  0.4938436E+002  0.1314725E+03  0.7546771E-02  0.1225287E+00
         21   -1    0    0  502  501  0.00000000000E+00  0.00000000000E+00  0.56832522678E+03  0.56832522678E+03  0.00000000000E+00 0.  1.
         21   -1    0    0  503  502 -0.00000000000E+00 -0.00000000000E+00 -0.54463342799E+03  0.54463342799E+03  0.00000000000E+00 0.  1.
         21    1    1    2  503  505 -0.12391200366E+03  0.39563892700E+02 -0.51502309504E+03  0.53119513804E+03  0.00000000000E+00 0.  1.
         21    1    1    2  504  501  0.39634230879E+02 -0.24504315916E+02  0.45421262423E+03  0.45659658536E+03  0.00000000000E+00 0.  1.
         21    1    1    2  505  506  0.41349070099E+02 -0.11156444867E+02  0.19232899988E+02  0.46948017019E+02  0.00000000000E+00 0.  1.
         21    1    1    2  506  504  0.42928702680E+02 -0.39031319171E+01  0.65269369612E+02  0.78218914350E+02  0.00000000000E+00 0.  1.
<scales pt_clust_3="126.84013" pt_clust_4="46.59757" pt_clust_5="34.48005" pt_clust_6="34.48005"></scales>
<clustering>
<clus scale="   34.480">  5  6 -1 -1</clus>
<clus scale="   46.598">  1  4  2 -1</clus>
<clus scale="  126.840">  2  3  1 -1</clus>
<clus scale="   46.598">  1  3  2 -1</clus>
</clustering>
</event>
<event>
 6    0  0.3042851E+002  0.1795313E+03  0.7546771E-02  0.1168257E+00
         21   -1    0    0  503  501  0.00000000000E+00  0.00000000000E+00  0.24219015498E+03  0.24219015498E+03  0.00000000000E+00 0.  1.
         21   -1    0    0  504  502 -0.00000000000E+00 -0.00000000000E+00 -0.30711837490E+03  0.30711837490E+03  0.00000000000E+00 0.  1.
         21    1    1    2  503  506 -0.64883008137E+02 -0.21208193647E+02  0.11045260907E+03  0.12984364086E+03  0.00000000000E+00 0.  1.
         21    1    1    2  504  501 -0.12758677523E+03 -0.14078628237E+02  0.29843771047E+02  0.13178483850E+03  0.00000000000E+00 0.  1.
         21    1    1    2  505  502  0.11294340119E+03  0.58239432630E+01 -0.14389832479E+03  0.18302146886E+03  0.00000000000E+00 0.  1.
         21    1    1    2  506  505  0.79526382185E+02  0.29462878621E+02 -0.61326275240E+02  0.10465858166E+03  0.00000000000E+00 0.  1.
<scales pt_clust_3="68.26121" pt_clust_4="172.85429" pt_clust_5="42.00518" pt_clust_6="42.00518"></scales>
<clustering>
<clus scale="   42.005">  5  6 -1 -1</clus>
<clus scale="   68.261">  1  3  2 -1</clus>
<clus scale="  172.854">  1  4  2 -1</clus>
<clus scale="   68.261">  1  3  2 -1</clus>
</clustering>
</event>
<event>
 6    0  0.3042851E+002  0.9419545E+02  0.7546771E-02  0.1292998E+00
         21   -1    0    0  504  501  0.00000000000E+00  0.00000000000E+00  0.12780703060E+04  0.12780703060E+04  0.00000000000E+00 0. -1.
         21   -1    0    0  506  502 -0.00000000000E+00 -0.00000000000E+00 -0.59018610563E+02  0.59018610563E+02  0.00000000000E+00 0.  1.
         21    1    1    2  503  501  0.27536968979E+02  0.66432650999E+02  0.25638348193E+03  0.26627818459E+03  0.00000000000E+00 0. -1.
         21    1    1    2  504  505 -0.76534586177E+02  0.28904908217E+02  0.89701611696E+03  0.90073911356E+03  0.00000000000E+00 0. -1.
         21    1    1    2  505  502 -0.10475253074E+02 -0.72697379791E+02 -0.66556933802E+01  0.73749157350E+02  0.00000000000E+00 0.  1.
         21    1    1    2  506  503  0.59472870272E+02 -0.22640179425E+02  0.72307789917E+02  0.96322461064E+02  0.00000000000E+00 0.  1.
<scales pt_clust_3="72.41935" pt_clust_4="14000.00000" pt_clust_5="94.19545" pt_clust_6="63.63647"></scales>
<clustering>
<clus scale="   63.636">  2  6  1 -1</clus>
<clus scale="   72.419">  1  3  2 -1</clus>
<clus scale="   94.195">  2  5  1 -1</clus>
<clus scale="   72.419">  1  3  2 -1</clus>
</clustering>
</event>
<event>
 6    0  0.3042851E+002  0.1390216E+03  0.7546771E-02  0.1214652E+00
         21   -1    0    0  506  501  0.00000000000E+00  0.00000000000E+00  0.26367418666E+03  0.26367418666E+03  0.00000000000E+00 0. -1.
         21   -1    0    0  505  502 -0.00000000000E+00 -0.00000000000E+00 -0.22721938600E+03  0.22721938600E+03  0.00000000000E+00 0. -1.
         21    1    1    2  503  501  0.51200285565E+01 -0.44098502663E+02  0.84973570862E+02  0.95871791339E+02  0.00000000000E+00 0. -1.
         21    1    1    2  504  503  0.13029741255E+02 -0.31436994641E+02  0.19185373580E+02  0.39065807922E+02  0.00000000000E+00 0. -1.
         21    1    1    2  505  504 -0.95463489052E+02 -0.88608700915E+02 -0.10904015176E+03  0.16986622477E+03  0.00000000000E+00 0. -1.
         21    1    1    2  506  502  0.77313719240E+02  0.16414419822E+03  0.41336007980E+02  0.18608974864E+03  0.00000000000E+00 0. -1.
<scales pt_clust_3="85.78502" pt_clust_4="31.85798" pt_clust_5="139.02156" pt_clust_6="14000.00000"></scales>
<clustering>
<clus scale="   31.858">  3  4 -1 -1</clus>
<clus scale="   85.785">  1  3  2 -1</clus>
<clus scale="  139.022">  2  5  1 -1</clus>
<clus scale="   85.785">  1  3  2 -1</clus>
</clustering>
</event>
<event>
 6    0  0.3042851E+002  0.1150262E+03  0.7546771E-02  0.1251535E+00
         21   -1    0    0  506  501  0.00000000000E+00  0.00000000000E+00  0.39106409091E+03  0.39106409091E+03  0.00000000000E+00 0.  1.
         21   -1    0    0  505  502 -0.00000000000E+00 -0.00000000000E+00 -0.24292030036E+03  0.24292030036E+03  0.00000000000E+00 0.  1.
         21    1    1    2  503  502  0.23683886535E+02  0.36805794341E+02 -0.13211373721E+03  0.13917482725E+03  0.00000000000E+00 0.  1.
         21    1    1    2  504  503  0.23847344097E+02  0.57249627732E+02 -0.65080549077E+02  0.89898240050E+02  0.00000000000E+00 0.  1.
         21    1    1    2  505  501  0.22741607690E+02 -0.87997255539E+02  0.31549235969E+03  0.32832320467E+03  0.00000000000E+00 0.  1.
         21    1    1    2  506  504 -0.70272838322E+02 -0.60581665340E+01  0.29845717152E+02  0.76588119313E+02  0.00000000000E+00 0. -1.
<scales pt_clust_3="41.86268" pt_clust_4="41.86268" pt_clust_5="103.67148" pt_clust_6="70.53349"></scales>
<clustering>
<clus scale="   41.863">  3  4 -1 -1</clus>
<clus scale="   70.533">  1  6  2 -1</clus>
<clus scale="  103.671">  1  5  2 -1</clus>
<clus scale="   70.533">  1  3  2 -1</clus>
</clustering>
</event>
<event>
 6    0  0.3042851E+002  0.1213271E+03  0.7546771E-02  0.1240924E+00
         21   -1    0    0  505  501  0.00000000000E+00  0.00000000000E+00  0.34803654144E+04  0.34803654144E+04  0.00000000000E+00 0. -1.
         21   -1    0    0  506  502 -0.00000000000E+00 -0.00000000000E+00 -0.31653475541E+02  0.31653475541E+02  0.00000000000E+00 0.  1.
         21    1    1    2  503  502  0.27323759395E+02  0.73743803688E+02  0.12322492420E+03  0.14618179899E+03  0.00000000000E+00 0. -1.
         21    1    1    2  504  503 -0.87908340496E+02  0.57086894892E+02  0.16286656180E+03  0.19368094085E+03  0.00000000000E+00 0.  1.
         21    1    1    2  505  504 -0.45851370135E+02 -0.77319237596E+02  0.22497511117E+04  0.22515462859E+04  0.00000000000E+00 0. -1.
         21    1    1    2  506  501  0.10643595124E+03 -0.53511460984E+02  0.91286934113E+03  0.92060986425E+03  0.00000000000E+00 0.  1.
<scales pt_clust_3="78.64310" pt_clust_4="121.32707" pt_clust_5="86.45247" pt_clust_6="14000.00000"></scales>
<clustering>
<clus scale="   78.643">  2  3  1 -1</clus>
<clus scale="   86.452">  1  5  2 -1</clus>
<clus scale="  121.327">  2  4  1 -1</clus>
<clus scale="   86.452">  1  3  2 -1</clus>
</clustering>
</event>
<event>
 6    0  0.3042851E+002  0.1798950E+03  0.7546771E-02  0.1167905E+00
         21   -1    0    0  506  501  0.00000000000E+00  0.00000000000E+00  0.51194239924E+03  0.51194239924E+03  0.00000000000E+00 0.  1.
         21   -1    0    0  504  502 -0.00000000000E+00 -0.00000000000E+00 -0.19084063285E+03  0.19084063285E+03  0.00000000000E+00 0.  1.
         21    1    1    2  503  505  0.15461977193E+02  0.55748129067E+02  0.47591000033E+02  0.74912147995E+02  0.00000000000E+00 0. -1.
         21    1    1    2  504  501  0.39771456993E+01 -0.21527914613E+03 -0.54341967136E+02  0.22206750739E+03  0.00000000000E+00 0.  1.
         21    1    1    2  505  502 -0.26307519984E+02  0.60774444767E+02  0.30991397009E+01  0.66296481138E+02  0.00000000000E+00 0. -1.
         21    1    1    2  506  503  0.68683970910E+01  0.98756572300E+02  0.32475359379E+03  0.33950689556E+03  0.00000000000E+00 0.  1.
<scales pt_clust_3="56.66271" pt_clust_4="169.37225" pt_clust_5="56.66271" pt_clust_6="98.99513"></scales>
<clustering>
<clus scale="   56.663">  3  5 -1 -1</clus>
<clus scale="   98.995">  1  6  2 -1</clus>
<clus scale="  169.372">  2  4  1 -1</clus>
<clus scale="   98.995">  1  3  2 -1</clus>
</clustering>
</event>
<event>
 6    0  0.3042851E+002  0.3711902E+03  0.7546771E-02  0.1054239E+00
         21   -1    0    0  505  501  0.00000000000E+00  0.00000000000E+00  0.13691097521E+03  0.13691097521E+03  0.00000000000E+00 0. -1.
         21   -1    0    0  506  502 -0.00000000000E+00 -0.00000000000E+00 -0.12807917185E+04  0.12807917185E+04  0.00000000000E+00 0. -1.
         21    1    1    2  503  502  0.18667116898E+03  0.57752730136E+02 -0.44875670232E+03  0.48945283843E+03  0.00000000000E+00 0. -1.
         21    1    1    2  504  501 -0.15208627487E+03 -0.56477520011E+02 -0.54202717327E+02  0.17104934912E+03  0.00000000000E+00 0. -1.
         21    1    1    2  505  503  0.15554742423E+03  0.54913446396E+02 -0.46043119925E+03  0.48908831208E+03  0.00000000000E+00 0. -1.
         21    1    1    2  506  504 -0.19013231834E+03 -0.56188656520E+02 -0.18049012436E+03  0.26811219404E+03  0.00000000000E+00 0. -1.
<scales pt_clust_3="361.82889" pt_clust_4="80.78209" pt_clust_5="30.65144" pt_clust_6="80.78209"></scales>
<clustering>
<clus scale="   30.651">  3  5 -1 -1</clus>
<clus scale="   80.782">  4  6 -1 -1</clus>
<clus scale="  361.829">  2  3  1 -1</clus>
<clus scale="  371.190">  1  3  2 -1</clus>
</clustering>
</event>
<event>
 6    0  0.3042851E+002  0.1436907E+03  0.7546771E-02  0.1208447E+00
         21   -1    0    0  506  501  0.00000000000E+00  0.00000000000E+00  0.34817043452E+02  0.34817043452E+02  0.00000000000E+00 0.  1.
         21   -1    0    0  504  502 -0.00000000000E+00 -0.00000000000E+00 -0.15251798237E+04  0.15251798237E+04  0.00000000000E+00 0.  1.
         21    1    1    2  503  501  0.72864920641E+02 -0.24460828658E+02 -0.97409158644E+02  0.12408131602E+03  0.00000000000E+00 0.  1.
         21    1    1    2  504  505 -0.39824807635E+02 -0.19435270369E+02 -0.18714790998E+03  0.19232286719E+03  0.00000000000E+00 0.  1.
         21    1    1    2  505  503  0.51755118525E+02 -0.45452688183E+02 -0.60487454186E+02  0.91669358406E+02  0.00000000000E+00 0.  1.
         21    1    1    2  506  502 -0.84795231531E+02  0.89348787209E+02 -0.11453182574E+04  0.11519233255E+04  0.00000000000E+00 0.  1.
<scales pt_clust_3="32.77913" pt_clust_4="44.31416" pt_clust_5="32.77913" pt_clust_6="139.45631"></scales>
<clustering>
<clus scale="   32.779">  3  5 -1 -1</clus>
<clus scale="   44.314">  2  4  1 -1</clus>
<clus scale="  139.456">  2  6  1 -1</clus>
<clus scale="  143.691">  1  3  2 -1</clus>
</clustering>
</event>
<event>
 6    0  0.3042851E+002  0.1628285E+03  0.7546771E-02  0.1185540E+00
         21   -1    0    0  504  501  0.00000000000E+00  0.00000000000E+00  0.83517744020E+03  0.83517744020E+03  0.00000000000E+00 0. -1.
         21   -1    0    0  505  502 -0.00000000000E+00 -0.00000000000E+00 -0.88732267264E+03  0.88732267264E+03  0.00000000000E+00 0. -1.
         21    1    1    2  503  502  0.12645963998E+02 -0.43084685522E+02 -0.19294037404E+03  0.19809643729E+03  0.00000000000E+00 0. -1.
         21    1    1    2  504  506 -0.11243246881E+03  0.11980843602E+03  0.79018095386E+03  0.80708181817E+03  0.00000000000E+00 0. -1.
         21    1    1    2  505  501  0.76002252418E+02 -0.27269843769E+02 -0.16945659766E+02  0.82505406712E+02  0.00000000000E+00 0. -1.
         21    1    1    2  506  503  0.23784252395E+02 -0.49453906733E+02 -0.63244015250E+03  0.63481645067E+03  0.00000000000E+00 0. -1.
<scales pt_clust_3="44.90223" pt_clust_4="162.82849" pt_clust_5="82.68900" pt_clust_6="14000.00000"></scales>
<clustering>
<clus scale="   44.902">  2  3  1 -1</clus>
<clus scale="   82.689">  2  5  1 -1</clus>
<clus scale="  162.828">  1  4  2 -1</clus>
<clus scale="  162.828">  1  3  2 -1</clus>
</clustering>
</event>
<event>
 6    0  0.3042851E+002  0.1246934E+03  0.7546771E-02  0.1235549E+00
         21   -1    0    0  506  501  0.00000000000E+00  0.00000000000E+00  0.36428448082E+03  0.36428448082E+03  0.00000000000E+00 0.  1.
         21   -1    0    0  504  502 -0.00000000000E+00 -0.00000000000E+00 -0.22998902269E+03  0.22998902269E+03  0.00000000000E+00 0.  1.
         21    1    1    2  503  505  0.79810661373E+01  0.10410506206E+03  0.28037426651E+03  0.29918437573E+03  0.00000000000E+00 0.  1.
         21    1    1    2  504  501  0.29663602439E+02 -0.81403455293E+02 -0.17372729478E+03  0.19413300800E+03  0.00000000000E+00 0.  1.
         21    1    1    2  505  502 -0.24733771554E+02 -0.51522098597E+02 -0.26215877049E+01  0.57211526996E+02  0.00000000000E+00 0.  1.
         21    1    1    2  506  503 -0.12910897022E+02  0.28820491833E+02  0.30270074106E+02  0.43744592783E+02  0.00000000000E+00 0.  1.
<scales pt_clust_3="124.69343" pt_clust_4="14000.00000" pt_clust_5="55.48700" pt_clust_6="31.58025"></scales>
<clustering>
<clus scale="   31.580">  1  6  2 -1</clus>
<clus scale="   55.487">  2  5  1 -1</clus>
<clus scale="  124.693">  1  3  2 -1</clus>
<clus scale="   31.580">  1  3  2 -1</clus>
</clustering>
</event>
<event>
 6    0  0.3042851E+002  0.2113592E+03  0.7546771E-02  0.1140494E+00
         21   -1    0    0  503  501  0.00000000000E+00  0.00000000000E+00  0.95028731636E+02  0.95028731636E+02  0.00000000000E+00 0.  1.
         21   -1    0    0  506  502 -0.00000000000E+00 -0.00000000000E+00 -0.13959593255E+04  0.13959593255E+04  0.00000000000E+00 0. -1.
         21    1    1    2  503  505  0.23977200835E+02  0.11339437712E+03 -0.22529711416E+02  0.11807107529E+03  0.00000000000E+00 0.  1.
         21    1    1    2  504  502 -0.26280710430E+02 -0.15345059651E+03 -0.10797293252E+04  0.10908955848E+04  0.00000000000E+00 0. -1.
         21    1    1    2  505  504  0.61773770250E+02  0.80173165189E+02 -0.41757594068E+02  0.10948713061E+03  0.00000000000E+00 0.  1.
         21    1    1    2  506  501 -0.59470260655E+02 -0.40116945801E+02 -0.15691396321E+03  0.17253426643E+03  0.00000000000E+00 0. -1.
<scales pt_clust_3="49.69689" pt_clust_4="204.55919" pt_clust_5="49.69689" pt_clust_6="71.73619"></scales>
<clustering>
<clus scale="   49.697">  3  5 -1 -1</clus>
<clus scale="   71.736">  2  6  1 -1</clus>
<clus scale="  204.559">  2  4  1 -1</clus>
<clus scale="  211.359">  1  3  2 -1</clus>
</clustering>
</event>
<event>
 6    0  0.3042851E+002  0.1536715E+03  0.7546771E-02  0.1196033E+00
         21   -1    0    0  505  501  0.00000000000E+00  0.00000000000E+00  0.59042096039E+02  0.59042096039E+02  0.00000000000E+00 0. -1.
         21   -1    0    0  504  502 -0.00000000000E+00 -0.00000000000E+00 -0.17518831408E+04  0.17518831408E+04  0.00000000000E+00 0. -1.
         21    1    1    2  503  502  0.25087475993E+02 -0.77621348185E+02 -0.77993044509E+03  0.78418489804E+03  0.00000000000E+00 0. -1.
         21    1    1    2  504  506  0.11938361760E+03 -0.10689917214E+02 -0.79684065838E+03  0.80580503680E+03  0.00000000000E+00 0. -1.
         21    1    1    2  505  503 -0.10827867216E+03  0.94197610460E+02 -0.63736574768E+02  0.15703442815E+03  0.00000000000E+00 0. -1.
         21    1    1    2  506  501 -0.36192421431E+02 -0.58863450607E+01 -0.52333366536E+02  0.63900873861E+02  0.00000000000E+00 0. -1.
<scales pt_clust_3="81.36687" pt_clust_4="153.67155" pt_clust_5="14000.00000" pt_clust_6="36.66798"></scales>
<clustering>
<clus scale="   36.668">  1  6  2 -1</clus>
<clus scale="   81.367">  2  3  1 -1</clus>
<clus scale="  153.672">  2  4  1 -1</clus>
<clus scale="   36.668">  1  3  2 -1</clus>
</clustering>
</event>
<event>
 6    0  0.3042851E+002  0.1251037E+03  0.7546771E-02  0.1234907E+00
         21   -1    0    0  504  501  0.00000000000E+00  0.00000000000E+00  0.45452785204E+03  0.45452785204E+03  0.00000000000E+00 0.  1.
         21   -1    0    0  505  502 -0.00000000000E+00 -0.00000000000E+00 -0.49028539468E+03  0.49028539468E+03  0.00000000000E+00 0. -1.
         21    1    1    2  503  502 -0.56054004043E+01  0.77818806129E+02  0.22052523022E+03  0.23391999544E+03  0.00000000000E+00 0.  1.
         21    1    1    2  504  503  0.27560417729E+02  0.33107839741E+02  0.21220117271E+03  0.21652954389E+03  0.00000000000E+00 0.  1.
         21    1    1    2  505  506  0.36314619280E+02 -0.76754807032E+01 -0.79992941995E+02  0.88184666164E+02  0.00000000000E+00 0. -1.
         21    1    1    2  506  501 -0.58269636605E+02 -0.10325116517E+03 -0.38849100358E+03  0.40617904122E+03  0.00000000000E+00 0. -1.
<scales pt_clust_3="39.86448" pt_clust_4="39.86448" pt_clust_5="37.11690" pt_clust_6="113.07094"></scales>
<clustering>
<clus scale="   37.117">  2  5  1 -1</clus>
<clus scale="   39.864">  3  4 -1 -1</clus>
<clus scale="  113.071">  2  6  1 -1</clus>
<clus scale="  125.104">  1  3  2 -1</clus>
</clustering>
</event>
<event>
 6    0  0.3042851E+002  0.1281008E+03  0.7546771E-02  0.1230301E+00
         21   -1    0    0  505  501  0.00000000000E+00  0.00000000000E+00  0.46338679810E+03  0.46338679810E+03  0.00000000000E+00 0.  1.
         21   -1    0    0  506  502 -0.00000000000E+00 -0.00000000000E+00 -0.89961065248E+02  0.89961065248E+02  0.00000000000E+00 0.  1.
         21    1    1    2  503  504  0.59601863220E+02  0.15924357764E+02  0.12205255904E+03  0.13675816041E+03  0.00000000000E+00 0.  1.
         21    1    1    2  504  502 -0.12373859398E+03  0.42840985696E+01 -0.23791954403E+02  0.12607795301E+03  0.00000000000E+00 0.  1.
         21    1    1    2  505  503  0.54824054586E+02  0.10917581408E+02  0.21484658590E+03  0.22199983338E+03  0.00000000000E+00 0.  1.
         21    1    1    2  506  501  0.93126761775E+01 -0.31126037741E+02  0.60318542309E+02  0.68511916550E+02  0.00000000000E+00 0.  1.
<scales pt_clust_3="36.51876" pt_clust_4="122.54518" pt_clust_5="36.51876" pt_clust_6="32.48932"></scales>
<clustering>
<clus scale="   32.489">  1  6  2 -1</clus>
<clus scale="   36.519">  3  5 -1 -1</clus>
<clus scale="  122.545">  2  4  1 -1</clus>
<clus scale="   32.489">  1  3  2 -1</clus>
</clustering>
</event>
<event>
 6    0  0.3042851E+002  0.1694233E+03  0.7546771E-02  0.1178451E+00
         21   -1    0    0  506  501  0.00000000000E+00  0.00000000000E+00  0.69103621273E+02  0.69103621273E+02  0.00000000000E+00 0.  1.
         21   -1    0    0  505  502 -0.00000000000E+00 -0.00000000000E+00 -0.40867038444E+03  0.40867038444E+03  0.00000000000E+00 0. -1.
         21    1    1    2  503  501  0.54137805825E+02 -0.61765379772E+02 -0.79093245961E+02  0.11402458382E+03  0.00000000000E+00 0. -1.
         21    1    1    2  504  502 -0.22244524758E+02  0.65840882475E+02 -0.51378682703E+02  0.86426903931E+02  0.00000000000E+00 0.  1.
         21    1    1    2  505  503  0.56740654282E+02 -0.50070527117E+02 -0.12794666761E+03  0.14865029192E+03  0.00000000000E+00 0. -1.
         21    1    1    2  506  504 -0.88633935349E+02  0.45995024415E+02 -0.81148166892E+02  0.12867222605E+03  0.00000000000E+00 0.  1.
<scales pt_clust_3="161.65570" pt_clust_4="52.11831" pt_clust_5="35.02239" pt_clust_6="52.11831"></scales>
<clustering>
<clus scale="   35.022">  3  5 -1 -1</clus>
<clus scale="   52.118">  4  6 -1 -1</clus>
<clus scale="  161.656">  2  3  1 -1</clus>
<clus scale="  169.423">  1  3  2 -1</clus>
</clustering>
</event>
<event>
 6    0  0.3042851E+002  0.1412427E+03  0.7546771E-02  0.1211667E+00
         21   -1    0    0  503  501  0.00000000000E+00  0.00000000000E+00  0.46125069031E+02  0.46125069031E+02  0.00000000000E+00 0. -1.
         21   -1    0    0  505  502 -0.00000000000E+00 -0.00000000000E+00 -0.62859939914E+03  0.62859939914E+03  0.00000000000E+00 0. -1.
         21    1    1    2  503  504 -0.32007103949E+02 -0.11861189654E+03 -0.16103643947E+03  0.20254868931E+03  0.00000000000E+00 0. -1.
         21    1    1    2  504  502 -0.26890430282E+02 -0.25857010657E+02 -0.10599825985E+03  0.11237131009E+03  0.00000000000E+00 0. -1.
         21    1    1    2  505  506  0.53774586591E+01  0.45412693077E+02 -0.16904472270E+03  0.17512095256E+03  0.00000000000E+00 0. -1.
         21    1    1    2  506  501  0.53520075573E+02  0.99056214117E+02 -0.14639490810E+03  0.18468351621E+03  0.00000000000E+00 0. -1.
<scales pt_clust_3="32.72542" pt_clust_4="32.72542" pt_clust_5="45.72997" pt_clust_6="128.15069"></scales>
<clustering>
<clus scale="   32.725">  3  4 -1 -1</clus>
<clus scale="   45.730">  2  5  1 -1</clus>
<clus scale="  128.151">  1  6  2 -1</clus>
<clus scale="  128.151">  1  3  2 -1</clus>
</clustering>
</event>
<event>
 6    0  0.3042851E+002  0.1245956E+03  0.7546771E-02  0.1235703E+00
         21   -1    0    0  506  501  0.00000000000E+00  0.00000000000E+00  0.10388317097E+04  0.10388317097E+04  0.00000000000E+00 0. -1.
         21   -1    0    0  503  502 -0.00000000000E+00 -0.00000000000E+00 -0.54020514582E+03  0.54020514582E+03  0.00000000000E+00 0. -1.
         21    1    1    2  503  504  0.23686212214E+02  0.76433020364E+02  0.41436074030E+03  0.42201642901E+03  0.00000000000E+00 0. -1.
         21    1    1    2  504  501  0.50580840828E+02  0.17358152909E+02  0.61213970753E+03  0.61447111280E+03  0.00000000000E+00 0.  1.
         21    1    1    2  505  502 -0.19794210038E+02 -0.43969034154E+02 -0.27193226142E+03  0.27617429554E+03  0.00000000000E+00 0. -1.
         21    1    1    2  506  505 -0.54472843004E+02 -0.49822139120E+02 -0.25594162252E+03  0.26637501818E+03  0.00000000000E+00 0. -1.
<scales pt_clust_3="118.85928" pt_clust_4="53.47641" pt_clust_5="30.20277" pt_clust_6="30.20277"></scales>
<clustering>
<clus scale="   30.203">  5  6 -1 -1</clus>
<clus scale="   53.476">  1  4  2 -1</clus>
<clus scale="  118.859">  1  3  2 -1</clus>
<clus scale="   53.476">  1  3  2 -1</clus>
</clustering>
</event>
<event>
 6    0  0.3042851E+002  0.1558090E+03  0.7546771E-02  0.1193511E+00
         21   -1    0    0  504  501  0.00000000000E+00  0.00000000000E+00  0.28708497310E+03  0.28708497310E+03  0.00000000000E+00 0.  1.
         21   -1    0    0  501  502 -0.00000000000E+00 -0.00000000000E+00 -0.29918322884E+03  0.29918322884E+03  0.00000000000E+00 0.  1.
         21    1    1    2  503  506  0.72670501587E+02 -0.79930480132E+02 -0.59602833497E+02  0.12337901449E+03  0.00000000000E+00 0.  1.
         21    1    1    2  504  505  0.34116917151E+02  0.64447565854E+01  0.33121671506E+02  0.47984831423E+02  0.00000000000E+00 0. -1.
         21    1    1    2  505  503 -0.13874977908E+03  0.13200172880E+03  0.16333954974E+03  0.25170571330E+03  0.00000000000E+00 0.  1.
         21    1    1    2  506  502  0.31962360341E+02 -0.58516005249E+02 -0.14895664349E+03  0.16319864273E+03  0.00000000000E+00 0.  1.
<scales pt_clust_3="155.80902" pt_clust_4="34.72030" pt_clust_5="14000.00000" pt_clust_6="66.99202"></scales>
<clustering>
<clus scale="   34.720">  1  4  2 -1</clus>
<clus scale="   66.992">  2  6  1 -1</clus>
<clus scale="  155.809">  2  3  1 -1</clus>
<clus scale="   34.720">  1  3  2 -1</clus>
</clustering>
</event>
<event>
 6    0  0.3042851E+002  0.1400320E+03  0.7546771E-02  0.1213286E+00
         21   -1    0    0  506  501  0.00000000000E+00  0.00000000000E+00  0.15456107138E+02  0.15456107138E+02  0.00000000000E+00 0.  1.
         21   -1    0    0  501  502 -0.00000000000E+00 -0.00000000000E+00 -0.21274026321E+04  0.21274026321E+04  0.00000000000E+00 0.  1.
         21    1    1    2  503  504 -0.61313363488E+02 -0.40559099498E+02 -0.23405367955E+03  0.24532732013E+03  0.00000000000E+00 0.  1.
         21    1    1    2  504  505  0.46773838095E+02  0.20691306006E+02 -0.67001585048E+03  0.67196514938E+03  0.00000000000E+00 0.  1.
         21    1    1    2  505  502  0.45101288029E+02  0.76455640843E+02 -0.10671986809E+04  0.10708840347E+04  0.00000000000E+00 0.  1.
         21    1    1    2  506  503 -0.30561762637E+02 -0.56587847351E+02 -0.14067831400E+03  0.15468223503E+03  0.00000000000E+00 0.  1.
<scales pt_clust_3="139.94133" pt_clust_4="31.57558" pt_clust_5="31.57558" pt_clust_6="38.62137"></scales>
<clustering>
<clus scale="   31.576">  4  5 -1 -1</clus>
<clus scale="   38.621">  3  6 -1 -1</clus>
<clus scale="  139.941">  1  3  2 -1</clus>
<clus scale="  139.941">  1  3  2 -1</clus>
</clustering>
</event>
<event>
 6    0  0.3042851E+002  0.1553991E+03  0.7546771E-02  0.1193991E+00
         21   -1    0    0  503  501  0.00000000000E+00  0.00000000000E+00  0.28451438934E+03  0.28451438934E+03  0.00000000000E+00 0. -1.
         21   -1    0    0  505  502 -0.00000000000E+00 -0.00000000000E+00 -0.95878877529E+02  0.95878877529E+02  0.00000000000E+00 0. -1.
         21    1    1    2  503  504 -0.20431484873E+02 -0.47213613125E+02  0.99679734861E+02  0.11217227991E+03  0.00000000000E+00 0. -1.
         21    1    1    2  504  502 -0.31149034503E+02 -0.88948028085E+02  0.66487649082E+02  0.11533699117E+03  0.00000000000E+00 0. -1.
         21    1    1    2  505  506  0.44722569779E+01  0.67775919001E+02  0.56567852755E+01  0.68158458745E+02  0.00000000000E+00 0. -1.
         21    1    1    2  506  501  0.47108262398E+02  0.68385722209E+02  0.16811342593E+02  0.84725537048E+02  0.00000000000E+00 0.  1.
<scales pt_clust_3="40.11722" pt_clust_4="40.11722" pt_clust_5="36.93871" pt_clust_6="151.22400"></scales>
<clustering>
<clus scale="   36.939">  5  6 -1 -1</clus>
<clus scale="   40.117">  3  4 -1 -1</clus>
<clus scale="  151.224">  2  5  1 -1</clus>
<clus scale="  155.399">  1  3  2 -1</clus>
</clustering>
</event>
<event>
 6    0  0.3042851E+002  0.1232380E+03  0.7546771E-02  0.1237849E+00
         21   -1    0    0  502  501  0.00000000000E+00  0.00000000000E+00  0.26145474789E+03  0.26145474789E+03  0.00000000000E+00 0. -1.
         21   -1    0    0  503  502 -0.00000000000E+00 -0.00000000000E+00 -0.49312506679E+03  0.49312506679E+03  0.00000000000E+00 0.  1.
         21    1    1    2  503  504 -0.26437800662E+02  0.12356498441E+03 -0.36632322347E+03  0.38750479575E+03  0.00000000000E+00 0.  1.
         21    1    1    2  504  505 -0.51370046213E+02 -0.82417504637E+02  0.16421604656E+03  0.19078374320E+03  0.00000000000E+00 0. -1.
         21    1    1    2  505  506  0.11645181250E+03 -0.34067620554E+02 -0.50908386369E+02  0.13157998026E+03  0.00000000000E+00 0.  1.
         21    1    1    2  506  501 -0.38643965621E+02 -0.70798592193E+01  0.21345244376E+02  0.44711295474E+02  0.00000000000E+00 0. -1.
<scales pt_clust_3="123.23798" pt_clust_4="14000.00000" pt_clust_5="115.17660" pt_clust_6="39.28715"></scales>
<clustering>
<clus scale="   39.287">  1  6  2 -1</clus>
<clus scale="  115.177">  1  5  2 -1</clus>
<clus scale="  123.238">  2  3  1 -1</clus>
<clus scale="   39.287">  1  3  2 -1</clus>
</clustering>
</event>
<event>
 6    0  0.3042851E+002  0.3775540E+03  0.7546771E-02  0.1051842E+00
         21   -1    0    0  506  501  0.00000000000E+00  0.00000000000E+00  0.19073231885E+04  0.19073231885E+04  0.00000000000E+00 0.  1.
         21   -1    0    0  504  502 -0.00000000000E+00 -0.00000000000E+00 -0.21668232837E+03  0.21668232837E+03  0.00000000000E+00 0.  1.
         21    1    1    2  503  505  0.84103090293E+02 -0.54471470657E+02  0.63921728972E+03  0.64702334918E+03  0.00000000000E+00 0.  1.
         21    1    1    2  504  501  0.30972301109E+03  0.18663633119E+03  0.15652521757E+03  0.39403249543E+03  0.00000000000E+00 0.  1.
         21    1    1    2  505  502 -0.40262641140E+03 -0.10082350338E+03  0.36698013466E+03  0.55402872238E+03  0.00000000000E+00 0.  1.
         21    1    1    2  506  503  0.88003100201E+01 -0.31341357153E+02  0.52791821823E+03  0.52892094992E+03  0.00000000000E+00 0.  1.
<scales pt_clust_3="112.04406" pt_clust_4="377.55401" pt_clust_5="14000.00000" pt_clust_6="32.55343"></scales>
<clustering>
<clus scale="   32.553">  1  6  2 -1</clus>
<clus scale="  112.044">  1  3  2 -1</clus>
<clus scale="  377.554">  2  4  1 -1</clus>
<clus scale="   32.553">  1  3  2 -1</clus>
</clustering>
</event>
<event>
 6    0  0.3042851E+002  0.1448690E+03  0.7546771E-02  0.1206924E+00
         21   -1    0    0  504  501  0.00000000000E+00  0.00000000000E+00  0.10789123570E+04  0.10789123570E+04  0.00000000000E+00 0. -1.
         21   -1    0    0  505  502 -0.00000000000E+00 -0.00000000000E+00 -0.37566558356E+02  0.37566558356E+02  0.00000000000E+00 0. -1.
         21    1    1    2  503  501 -0.25230660800E+02  0.91568241804E+02  0.47546014169E+03  0.48485428273E+03  0.00000000000E+00 0. -1.
         21    1    1    2  504  502  0.33640412819E+02 -0.11850515348E+03  0.12608364717E+03  0.17627318248E+03  0.00000000000E+00 0. -1.
         21    1    1    2  505  506  0.30935613446E+02 -0.10219809455E+01  0.31342956540E+02  0.44050397830E+02  0.00000000000E+00 0. -1.
         21    1    1    2  506  503 -0.39345365464E+02  0.27958892622E+02  0.40845905325E+03  0.41130105232E+03  0.00000000000E+00 0. -1.
<scales pt_clust_3="40.87825" pt_clust_4="132.90063" pt_clust_5="30.95249" pt_clust_6="40.87825"></scales>
<clustering>
<clus scale="   30.952">  2  5  1 -1</clus>
<clus scale="   40.878">  3  6 -1 -1</clus>
<clus scale="  132.901">  2  4  1 -1</clus>
<clus scale="  144.869">  1  3  2 -1</clus>
</clustering>
</event>
<event>
 6    0  0.3042851E+002  0.1245092E+03  0.7546771E-02  0.1235838E+00
         21   -1    0    0  504  501  0.00000000000E+00  0.00000000000E+00  0.12653200066E+04  0.12653200066E+04  0.00000000000E+00 0.  1.
         21   -1    0    0  503  502 -0.00000000000E+00 -0.00000000000E+00 -0.56916734246E+02  0.56916734246E+02  0.00000000000E+00 0. -1.
         21    1    1    2  503  505  0.28810957676E+02 -0.35491641834E+02 -0.14561284279E+02  0.47976649760E+02  0.00000000000E+00 0. -1.
         21    1    1    2  504  502 -0.74975006378E+02  0.91155840023E+02  0.67699917104E+03  0.68721067828E+03  0.00000000000E+00 0.  1.
         21    1    1    2  505  506  0.91127872134E+02 -0.43785657544E+02  0.11313107868E+03  0.15172380779E+03  0.00000000000E+00 0. -1.
         21    1    1    2  506  501 -0.44963823432E+02 -0.11878540645E+02  0.43283430688E+03  0.43532560499E+03  0.00000000000E+00 0.  1.
<scales pt_clust_3="45.71354" pt_clust_4="124.50924" pt_clust_5="14000.00000" pt_clust_6="45.63871"></scales>
<clustering>
<clus scale="   45.714">  2  3  1 -1</clus>
<clus scale="   45.639">  1  6  2 -1</clus>
<clus scale="  124.509">  1  4  2 -1</clus>
<clus scale="   45.639">  1  3  2 -1</clus>
</clustering>
</event>
<event>
 6    0  0.3042851E+002  0.1927119E+03  0.7546771E-02  0.1156038E+00
         21   -1    0    0  502  501  0.00000000000E+00  0.00000000000E+00  0.13705936654E+04  0.13705936654E+04  0.00000000000E+00 0.  1.
         21   -1    0    0  503  502 -0.00000000000E+00 -0.00000000000E+00 -0.14211925976E+03  0.14211925976E+03  0.00000000000E+00 0. -1.
         21    1    1    2  503  506 -0.22975999662E+02 -0.93118603784E+02 -0.54296742691E+02  0.11021391563E+03  0.00000000000E+00 0. -1.
         21    1    1    2  504  505  0.10132190515E+03  0.93280616668E+02  0.65377104245E+03  0.66811973317E+03  0.00000000000E+00 0. -1.
         21    1    1    2  505  501 -0.14759183377E+01  0.56863975837E+02  0.63588022726E+03  0.63841941817E+03  0.00000000000E+00 0.  1.
         21    1    1    2  506  504 -0.76869987147E+02 -0.57025988722E+02 -0.68801213731E+01  0.95959858190E+02  0.00000000000E+00 0. -1.
<scales pt_clust_3="79.05022" pt_clust_4="175.74270" pt_clust_5="56.88313" pt_clust_6="79.05022"></scales>
<clustering>
<clus scale="   56.883">  1  5  2 -1</clus>
<clus scale="   79.050">  3  6 -1 -1</clus>
<clus scale="  175.743">  1  4  2 -1</clus>
<clus scale="   56.883">  1  3  2 -1</clus>
</clustering>
</event>
<event>
 6    0  0.3042851E+002  0.1312758E+03  0.7546771E-02  0.1225575E+00
         21   -1    0    0  503  501  0.00000000000E+00  0.00000000000E+00  0.77607466558E+02  0.77607466558E+02  0.00000000000E+00 0. -1.
         21   -1    0    0  504  502 -0.00000000000E+00 -0.00000000000E+00 -0.14303927673E+04  0.14303927673E+04  0.00000000000E+00 0. -1.
         21    1    1    2  503  502  0.90602740847E+02  0.25867587891E+02 -0.12466009191E+04  0.12501567263E+04  0.00000000000E+00 0. -1.
         21    1    1    2  504  506  0.30678252019E+02 -0.14997367612E+02 -0.11987068508E+03  0.12463971006E+03  0.00000000000E+00 0.  1.
         21    1    1    2  505  501 -0.93973099321E+02  0.83892699905E+01  0.25547994347E+02  0.97744684060E+02  0.00000000000E+00 0. -1.
         21    1    1    2  506  505 -0.27307893545E+02 -0.19259490269E+02 -0.11861690887E+02  0.35459113440E+02  0.00000000000E+00 0. -1.
<scales pt_clust_3="120.43517" pt_clust_4="34.14786" pt_clust_5="31.08802" pt_clust_6="31.08802"></scales>
<clustering>
<clus scale="   31.088">  5  6 -1 -1</clus>
<clus scale="   34.148">  2  4  1 -1</clus>
<clus scale="  120.435">  2  3  1 -1</clus>
<clus scale="  131.276">  1  3  2 -1</clus>
</clustering>
</event>
<event>
 6    0  0.3042851E+002  0.1317127E+03  0.7546771E-02  0.1224936E+00
         21   -1    0    0  503  501  0.00000000000E+00  0.00000000000E+00  0.22544324115E+02  0.22544324115E+02  0.00000000000E+00 0. -1.
         21   -1    0    0  504  502 -0.00000000000E+00 -0.00000000000E+00 -0.13391443078E+04  0.13391443078E+04  0.00000000000E+00 0.  1.
         21    1    1    2  503  502  0.80014081941E+02 -0.75933012590E+02 -0.21215929643E+03  0.23912265215E+03  0.00000000000E+00 0. -1.
         21    1    1    2  504  506 -0.38887649323E+02 -0.88997350554E+01 -0.24411472102E+03  0.24735288875E+03  0.00000000000E+00 0.  1.
         21    1    1    2  505  501  0.30354378185E+02  0.23685493784E+02 -0.75309038475E+02  0.84580388784E+02  0.00000000000E+00 0. -1.
         21    1    1    2  506  505 -0.71480810804E+02  0.61147253861E+02 -0.78501692777E+03  0.79063270224E+03  0.00000000000E+00 0.  1.
<scales pt_clust_3="118.14016" pt_clust_4="37.92310" pt_clust_5="38.50183" pt_clust_6="37.92310"></scales>
<clustering>
<clus scale="   37.923">  4  6 -1 -1</clus>
<clus scale="   38.502">  1  5  2 -1</clus>
<clus scale="  118.140">  1  3  2 -1</clus>
<clus scale="   38.502">  1  3  2 -1</clus>
</clustering>
</event>
<event>
 6    0  0.3042851E+002  0.1948726E+03  0.7546771E-02  0.1154139E+00
         21   -1    0    0  505  501  0.00000000000E+00  0.00000000000E+00  0.12536123623E+04  0.12536123623E+04  0.00000000000E+00 0. -1.
         21   -1    0    0  504  502 -0.00000000000E+00 -0.00000000000E+00 -0.79787271763E+03  0.79787271763E+03  0.00000000000E+00 0. -1.
         21    1    1    2  503  501 -0.16042260415E+02 -0.19471615475E+03 -0.67248844090E+03  0.70029453674E+03  0.00000000000E+00 0. -1.
         21    1    1    2  504  503  0.33019725672E+02 -0.30109863313E-01 -0.94654196595E+02  0.10024829237E+03  0.00000000000E+00 0.  1.
         21    1    1    2  505  506 -0.52945577879E+02  0.32741652334E+02  0.11562170431E+03  0.13131499732E+03  0.00000000000E+00 0.  1.
         21    1    1    2  506  502  0.35968112621E+02  0.16200461228E+03  0.11072605779E+04  0.11196272535E+04  0.00000000000E+00 0. -1.
<scales pt_clust_3="194.87257" pt_clust_4="33.01974" pt_clust_5="61.93702" pt_clust_6="14000.00000"></scales>
<clustering>
<clus scale="   33.020">  2  4  1 -1</clus>
<clus scale="   61.937">  1  5  2 -1</clus>
<clus scale="  194.873">  2  3  1 -1</clus>
<clus scale="   61.937">  1  3  2 -1</clus>
</clustering>
</event>
<event>
 6    0  0.3042851E+002  0.1778249E+03  0.7546771E-02  0.1169925E+00
         21   -1    0    0  506  501  0.00000000000E+00  0.00000000000E+00  0.12922935941E+03  0.12922935941E+03  0.00000000000E+00 0. -1.
         21   -1    0    0  503  502 -0.00000000000E+00 -0.00000000000E+00 -0.24715474742E+03  0.24715474742E+03  0.00000000000E+00 0. -1.
         21    1    1    2  503  505 -0.48328779979E+02 -0.44169577722E+02 -0.56107862866E+02  0.86224792524E+02  0.00000000000E+00 0. -1.
         21    1    1    2  504  502  0.45833806613E+02  0.48333294784E+02  0.13179427195E+02  0.67900975799E+02  0.00000000000E+00 0. -1.
         21    1    1    2  505  501 -0.84066881074E+02 -0.62493154677E+02 -0.34267436970E+02  0.11021293986E+03  0.00000000000E+00 0. -1.
         21    1    1    2  506  504  0.86561854440E+02  0.58329437616E+02 -0.40729515365E+02  0.11204539865E+03  0.00000000000E+00 0. -1.
<scales pt_clust_3="30.76743" pt_clust_4="41.63275" pt_clust_5="174.41355" pt_clust_6="41.63275"></scales>
<clustering>
<clus scale="   30.767">  3  5 -1 -1</clus>
<clus scale="   41.633">  4  6 -1 -1</clus>
<clus scale="  174.414">  2  3  1 -1</clus>
<clus scale="  177.825">  1  3  2 -1</clus>
</clustering>
</event>
<event>
 6    0  0.3042851E+002  0.6642211E+02  0.7546771E-02  0.1372701E+00
         21   -1    0    0  504  501  0.00000000000E+00  0.00000000000E+00  0.17525900426E+04  0.17525900426E+04  0.00000000000E+00 0. -1.
         21   -1    0    0  505  502 -0.00000000000E+00 -0.00000000000E+00 -0.30998805950E+03  0.30998805950E+03  0.00000000000E+00 0.  1.
         21    1    1    2  503  506 -0.38391214369E+02 -0.81934382144E+02 -0.19420422174E+03  0.21424847271E+03  0.00000000000E+00 0.  1.
         21    1    1    2  504  503  0.44764144446E+02  0.67002180703E+02  0.16030406205E+04  0.16050645943E+04  0.00000000000E+00 0. -1.
         21    1    1    2  505  501 -0.43972498164E+02 -0.96376678436E+00  0.13079819441E+03  0.13799520681E+03  0.00000000000E+00 0.  1.
         21    1    1    2  506  502  0.37599568088E+02  0.15895968226E+02 -0.97032610086E+02  0.10526982828E+03  0.00000000000E+00 0.  1.
<scales pt_clust_3="14000.00000" pt_clust_4="66.42211" pt_clust_5="43.33011" pt_clust_6="40.82168"></scales>
<clustering>
<clus scale="   40.822">  2  6  1 -1</clus>
<clus scale="   43.330">  1  5  2 -1</clus>
<clus scale="   66.422">  1  4  2 -1</clus>
<clus scale="   43.330">  1  3  2 -1</clus>
</clustering>
</event>
<event>
 6    0  0.3042851E+002  0.1217448E+03  0.7546771E-02  0.1240246E+00
         21   -1    0    0  505  501  0.00000000000E+00  0.00000000000E+00  0.35396430153E+03  0.35396430153E+03  0.00000000000E+00 0.  1.
         21   -1    0    0  504  502 -0.00000000000E+00 -0.00000000000E+00 -0.71847191716E+03  0.71847191716E+03  0.00000000000E+00 0. -1.
         21    1    1    2  503  502 -0.16059065663E+02  0.76116157363E+02 -0.52631844452E+03  0.53203634090E+03  0.00000000000E+00 0. -1.
         21    1    1    2  504  501 -0.46430183953E+02  0.43397156648E+02 -0.15634484300E+03  0.16876843639E+03  0.00000000000E+00 0.  1.
         21    1    1    2  505  506  0.30583699412E+02 -0.45075969151E+02  0.27405413916E+03  0.27941524092E+03  0.00000000000E+00 0.  1.
         21    1    1    2  506  503  0.31905550204E+02 -0.74437344860E+02  0.44101532731E+02  0.92216200490E+02  0.00000000000E+00 0.  1.
<scales pt_clust_3="121.74484" pt_clust_4="59.28879" pt_clust_5="54.47206" pt_clust_6="14000.00000"></scales>
<clustering>
<clus scale="   54.472">  1  5  2 -1</clus>
<clus scale="   59.289">  2  4  1 -1</clus>
<clus scale="  121.745">  2  3  1 -1</clus>
<clus scale="   54.472">  1  3  2 -1</clus>
</clustering>
</event>
<event>
 6    0  0.3042851E+002  0.2346737E+03  0.7546771E-02  0.1123393E+00
         21   -1    0    0  504  501  0.00000000000E+00  0.00000000000E+00  0.20707536926E+03  0.20707536926E+03  0.00000000000E+00 0. -1.
         21   -1    0    0  506  502 -0.00000000000E+00 -0.00000000000E+00 -0.45625095342E+03  0.45625095342E+03  0.00000000000E+00 0. -1.
         21    1    1    2  503  501  0.77124380304E+02  0.25790036529E+03 -0.19244921083E+03  0.33090401509E+03  0.00000000000E+00 0. -1.
         21    1    1    2  504  505 -0.43654848826E+02 -0.13175079214E+03 -0.14361293200E+02  0.13953588713E+03  0.00000000000E+00 0. -1.
         21    1    1    2  505  502  0.18338297646E+02 -0.67312602383E+02  0.38977205254E+02  0.79915593782E+02  0.00000000000E+00 0. -1.
         21    1    1    2  506  503 -0.51807829124E+02 -0.58836970760E+02 -0.81342285383E+02  0.11297082667E+03  0.00000000000E+00 0. -1.
<scales pt_clust_3="218.59988" pt_clust_4="60.51665" pt_clust_5="60.51665" pt_clust_6="78.39541"></scales>
<clustering>
<clus scale="   60.517">  4  5 -1 -1</clus>
<clus scale="   78.395">  2  6  1 -1</clus>
<clus scale="  218.600">  2  3  1 -1</clus>
<clus scale="  234.674">  1  3  2 -1</clus>
</clustering>
</event>
<event>
 6    0  0.3042851E+002  0.1180838E+03  0.7546771E-02  0.1246292E+00
         21   -1    0    0  503  501  0.00000000000E+00  0.00000000000E+00  0.12358058307E+03  0.12358058307E+03  0.00000000000E+00 0.  1.
         21   -1    0    0  505  502 -0.00000000000E+00 -0.00000000000E+00 -0.25748369594E+03  0.25748369594E+03  0.00000000000E+00 0.  1.
         21    1    1    2  503  506 -0.90912806525E+02  0.12470180836E+02  0.60832102799E+02  0.11009626938E+03  0.00000000000E+00 0.  1.
         21    1    1    2  504  502  0.35772324790E+02 -0.13257795136E+02 -0.80104458774E+02  0.88725152399E+02  0.00000000000E+00 0.  1.
         21    1    1    2  505  501 -0.18894829325E+02 -0.35055659637E+02  0.15940818273E+01  0.39855425536E+02  0.00000000000E+00 0. -1.
         21    1    1    2  506  504  0.74035311060E+02  0.35843273937E+02 -0.11622483872E+03  0.14238743170E+03  0.00000000000E+00 0.  1.
<scales pt_clust_3="107.90630" pt_clust_4="32.66107" pt_clust_5="39.82353" pt_clust_6="32.66107"></scales>
<clustering>
<clus scale="   32.661">  4  6 -1 -1</clus>
<clus scale="   39.824">  1  5  2 -1</clus>
<clus scale="  107.906">  1  3  2 -1</clus>
<clus scale="   39.824">  1  3  2 -1</clus>
</clustering>
</event>
<event>
 6    0  0.3042851E+002  0.1412208E+03  0.7546771E-02  0.1211696E+00
         21   -1    0    0  504  501  0.00000000000E+00  0.00000000000E+00  0.31592384936E+03  0.31592384936E+03  0.00000000000E+00 0.  1.
         21   -1    0    0  505  502 -0.00000000000E+00 -0.00000000000E+00 -0.14290439884E+03  0.14290439884E+03  0.00000000000E+00 0.  1.
         21    1    1    2  503  501 -0.53950121165E+02 -0.41720095259E+02 -0.19595271861E+02  0.70958837374E+02  0.00000000000E+00 0. -1.
         21    1    1    2  504  506  0.38135353967E+02  0.19509014189E+02  0.22624202396E+02  0.48443383355E+02  0.00000000000E+00 0.  1.
         21    1    1    2  505  503 -0.76637964931E+02 -0.37611713907E+01 -0.55260746404E+02  0.94558310963E+02  0.00000000000E+00 0.  1.
         21    1    1    2  506  502  0.92452732129E+02  0.25972252461E+02  0.22525126640E+03  0.24486771651E+03  0.00000000000E+00 0.  1.
<scales pt_clust_3="48.18927" pt_clust_4="42.83581" pt_clust_5="48.18927" pt_clust_6="131.42533"></scales>
<clustering>
<clus scale="   42.836">  1  4  2 -1</clus>
<clus scale="   48.189">  3  5 -1 -1</clus>
<clus scale="  131.425">  1  6  2 -1</clus>
<clus scale="   42.836">  1  3  2 -1</clus>
</clustering>
</event>
<event>
 6    0  0.3042851E+002  0.9013437E+02  0.7546771E-02  0.1302527E+00
         21   -1    0    0  506  501  0.00000000000E+00  0.00000000000E+00  0.12929667513E+03  0.12929667513E+03  0.00000000000E+00 0.  1.
         21   -1    0    0  505  502 -0.00000000000E+00 -0.00000000000E+00 -0.11330981860E+04  0.11330981860E+04  0.00000000000E+00 0.  1.
         21    1    1    2  503  501  0.17064400659E+02 -0.53691786413E+02  0.28162237026E+02  0.62985024350E+02  0.00000000000E+00 0.  1.
         21    1    1    2  504  503 -0.87026134090E+02 -0.24860350564E+01  0.53586146251E+02  0.10223112762E+03  0.00000000000E+00 0.  1.
         21    1    1    2  505  504 -0.15449554840E+02 -0.32043956249E+02 -0.19729913339E+03  0.20048055246E+03  0.00000000000E+00 0.  1.
         21    1    1    2  506  502  0.85411288271E+02  0.88221777718E+02 -0.88825076076E+03  0.89669815670E+03  0.00000000000E+00 0.  1.
<scales pt_clust_3="56.82206" pt_clust_4="90.13437" pt_clust_5="35.57392" pt_clust_6="14000.00000"></scales>
<clustering>
<clus scale="   35.574">  2  5  1 -1</clus>
<clus scale="   56.822">  1  3  2 -1</clus>
<clus scale="   90.134">  1  4  2 -1</clus>
<clus scale="   56.822">  1  3  2 -1</clus>
</clustering>
</event>
<event>
 6    0  0.3042851E+002  0.8844070E+02  0.7546771E-02  0.1306672E+00
         21   -1    0    0  504  501  0.00000000000E+00  0.00000000000E+00  0.32567459333E+02  0.32567459333E+02  0.00000000000E+00 0.  1.
         21   -1    0    0  505  502 -0.00000000000E+00 -0.00000000000E+00 -0.11251375718E+04  0.11251375718E+04  0.00000000000E+00 0.  1.
         21    1    1    2  503  502  0.38835130184E+02 -0.81474073507E+02 -0.45651283404E+03  0.46534950267E+03  0.00000000000E+00 0.  1.
         21    1    1    2  504  506 -0.12350394609E+02 -0.80299525848E+02 -0.16858281982E+03  0.18713821960E+03  0.00000000000E+00 0.  1.
         21    1    1    2  505  501 -0.45153480530E+02  0.66445422191E+02 -0.11991117646E+03  0.14433475387E+03  0.00000000000E+00 0.  1.
         21    1    1    2  506  503  0.18668744955E+02  0.95328177164E+02 -0.34756328211E+03  0.36088255495E+03  0.00000000000E+00 0.  1.
<scales pt_clust_3="14000.00000" pt_clust_4="59.88254" pt_clust_5="80.33574" pt_clust_6="88.44070"></scales>
<clustering>
<clus scale="   80.336">  1  5  2 -1</clus>
<clus scale="   59.883">  1  4  2 -1</clus>
<clus scale="   88.441">  1  6  2 -1</clus>
<clus scale="   80.336">  1  3  2 -1</clus>
</clustering>
</event>
<event>
 6    0  0.3042851E+002  0.1449198E+03  0.7546771E-02  0.1206858E+00
         21   -1    0    0  506  501  0.00000000000E+00  0.00000000000E+00  0.59444785936E+03  0.59444785936E+03  0.00000000000E+00 0. -1.
         21   -1    0    0  501  502 -0.00000000000E+00 -0.00000000000E+00 -0.23742951371E+03  0.23742951371E+03  0.00000000000E+00 0.  1.
         21    1    1    2  503  504  0.55566094104E+02 -0.69673251053E+02  0.26269245456E+03  0.27739732949E+03  0.00000000000E+00 0. -1.
         21    1    1    2  504  505 -0.44285505179E+02  0.26518489987E+02 -0.90078010665E+02  0.10381947932E+03  0.00000000000E+00 0. -1.
         21    1    1    2  505  502 -0.30967333207E+02  0.85840388553E+02 -0.11544090808E+03  0.14715349568E+03  0.00000000000E+00 0.  1.
         21    1    1    2  506  503  0.19686744283E+02 -0.42685627487E+02  0.29984480984E+03  0.30350706859E+03  0.00000000000E+00 0. -1.
<scales pt_clust_3="37.83747" pt_clust_4="37.31705" pt_clust_5="144.04655" pt_clust_6="37.83747"></scales>
<clustering>
<clus scale="   37.317">  4  5 -1 -1</clus>
<clus scale="   37.837">  3  6 -1 -1</clus>
<clus scale="  144.047">  2  4  1 -1</clus>
<clus scale="  144.920">  1  3  2 -1</clus>
</clustering>
</event>
<event>
 6    0  0.3042851E+002  0.1175686E+03  0.7546771E-02  0.1247163E+00
         21   -1    0    0  505  501  0.00000000000E+00  0.00000000000E+00  0.37595032086E+03  0.37595032086E+03  0.00000000000E+00 0. -1.
         21   -1    0    0  501  502 -0.00000000000E+00 -0.00000000000E+00 -0.11593914360E+03  0.11593914360E+03  0.00000000000E+00 0.  1.
         21    1    1    2  503  506  0.46713703624E+02 -0.58382124395E+02  0.24081177469E+02  0.78552820850E+02  0.00000000000E+00 0.  1.
         21    1    1    2  504  502  0.14134540126E+01  0.97166851483E+02  0.11957457818E+01  0.97184487894E+02  0.00000000000E+00 0.  1.
         21    1    1    2  505  503 -0.64679118796E+02  0.33725735649E+02  0.23037668363E+03  0.24164898099E+03  0.00000000000E+00 0. -1.
         21    1    1    2  506  504  0.16551961159E+02 -0.72510462737E+02  0.43575703847E+01  0.74503174725E+02  0.00000000000E+00 0. -1.
<scales pt_clust_3="38.39444" pt_clust_4="111.08746" pt_clust_5="72.94391" pt_clust_6="38.39444"></scales>
<clustering>
<clus scale="   38.394">  3  6 -1 -1</clus>
<clus scale="   72.944">  1  5  2 -1</clus>
<clus scale="  111.087">  2  4  1 -1</clus>
<clus scale="   72.944">  1  3  2 -1</clus>
</clustering>
</event>
<event>
 6    0  0.3042851E+002  0.2596496E+03  0.7546771E-02  0.1107354E+00
         21   -1    0    0  504  501  0.00000000000E+00  0.00000000000E+00  0.32042493484E+03  0.32042493484E+03  0.00000000000E+00 0. -1.
         21   -1    0    0  505  502 -0.00000000000E+00 -0.00000000000E+00 -0.33679704317E+03  0.33679704317E+03  0.00000000000E+00 0. -1.
         21    1    1    2  503  501  0.59716273104E+02 -0.15400372143E+03 -0.88456540088E+02  0.18737059260E+03  0.00000000000E+00 0. -1.
         21    1    1    2  504  506 -0.43581803382E+02  0.14551170911E+03  0.13193271206E+03  0.20119461123E+03  0.00000000000E+00 0. -1.
         21    1    1    2  505  503  0.55579420020E+02 -0.57157640007E+02 -0.12738481569E+03  0.15027627561E+03  0.00000000000E+00 0. -1.
         21    1    1    2  506  502 -0.71713889742E+02  0.65649652323E+02  0.67536535383E+02  0.11838049858E+03  0.00000000000E+00 0. -1.
<scales pt_clust_3="67.84216" pt_clust_4="249.68034" pt_clust_5="67.84216" pt_clust_6="53.41781"></scales>
<clustering>
<clus scale="   53.418">  4  6 -1 -1</clus>
<clus scale="   67.842">  3  5 -1 -1</clus>
<clus scale="  249.680">  1  4  2 -1</clus>
<clus scale="  249.680">  1  3  2 -1</clus>
</clustering>
</event>
<event>
 6    0  0.4218104E+002  0.7692114E+02  0.7546771E-02  0.1338023E+00
         21   -1    0    0  504  501  0.00000000000E+00  0.00000000000E+00  0.98886489004E+03  0.98886489004E+03  0.00000000000E+00 0. -1.
         21   -1    0    0  506  502 -0.00000000000E+00 -0.00000000000E+00 -0.15139997418E+03  0.15139997418E+03  0.00000000000E+00 0.  1.
         21    1    1    2  503  502  0.46010729917E+02 -0.10700708330E+03 -0.10810948710E+03  0.15891873503E+03  0.00000000000E+00 0.  1.
         21    1    1    2  504  503  0.20216840119E+01  0.66109577499E+02  0.84533971795E+03  0.84792322894E+03  0.00000000000E+00 0. -1.
         21    1    1    2  505  501 -0.29966917947E+02  0.51540539063E+01  0.85504970052E+02  0.90750649290E+02  0.00000000000E+00 0. -1.
         21    1    1    2  506  505 -0.18065495982E+02  0.35743451900E+02  0.14729714965E+02  0.42672250957E+02  0.00000000000E+00 0.  1.
<scales pt_clust_3="76.92114" pt_clust_4="14000.00000" pt_clust_5="30.40691" pt_clust_6="40.63417"></scales>
<clustering>
<clus scale="   30.407">  1  5  2 -1</clus>
<clus scale="   40.634">  2  6  1 -1</clus>
<clus scale="   76.921">  2  3  1 -1</clus>
<clus scale="   30.407">  1  3  2 -1</clus>
</clustering>
</event>
<event>
 6    0  0.3042851E+002  0.1129470E+03  0.7546771E-02  0.1255208E+00
         21   -1    0    0  504  501  0.00000000000E+00  0.00000000000E+00  0.40736599941E+02  0.40736599941E+02  0.00000000000E+00 0. -1.
         21   -1    0    0  506  502 -0.00000000000E+00 -0.00000000000E+00 -0.14130136555E+04  0.14130136555E+04  0.00000000000E+00 0. -1.
         21    1    1    2  503  502 -0.21125433462E+02 -0.77325076251E+02 -0.98752292002E+03  0.99077089629E+03  0.00000000000E+00 0. -1.
         21    1    1    2  504  503  0.21277990573E+02  0.85064663975E+02 -0.31898118120E+02  0.93307233801E+02  0.00000000000E+00 0. -1.
         21    1    1    2  505  501 -0.22626777111E+02  0.41030454259E+02 -0.90866672796E+02  0.10223610636E+03  0.00000000000E+00 0. -1.
         21    1    1    2  506  505  0.22474220001E+02 -0.48770041983E+02 -0.26198934466E+03  0.26743601903E+03  0.00000000000E+00 0. -1.
<scales pt_clust_3="14000.00000" pt_clust_4="112.94698" pt_clust_5="46.85583" pt_clust_6="50.06895"></scales>
<clustering>
<clus scale="   46.856">  1  5  2 -1</clus>
<clus scale="   50.069">  2  6  1 -1</clus>
<clus scale="  112.947">  1  4  2 -1</clus>
<clus scale="   46.856">  1  3  2 -1</clus>
</clustering>
</event>
<event>
 6    0  0.3042851E+002  0.4675688E+03  0.7546771E-02  0.1022609E+00
         21   -1    0    0  502  501  0.00000000000E+00  0.00000000000E+00  0.23696445673E+04  0.23696445673E+04  0.00000000000E+00 0.  1.
         21   -1    0    0  503  502 -0.00000000000E+00 -0.00000000000E+00 -0.14981541565E+03  0.14981541565E+03  0.00000000000E+00 0. -1.
         21    1    1    2  503  504 -0.10756424822E+03 -0.41788301008E+01  0.18004996628E+03  0.20977492813E+03  0.00000000000E+00 0.  1.
         21    1    1    2  504  505 -0.32155649647E+03  0.12980318395E+03  0.22084311571E+03  0.41111936070E+03  0.00000000000E+00 0. -1.
         21    1    1    2  505  506  0.42999341109E+03 -0.21930701336E+02  0.13023477058E+04  0.13716722772E+04  0.00000000000E+00 0.  1.
         21    1    1    2  506  501 -0.87266639906E+00 -0.10369365251E+03  0.51658836387E+03  0.52689341693E+03  0.00000000000E+00 0.  1.
<scales pt_clust_3="87.86226" pt_clust_4="87.86226" pt_clust_5="440.17292" pt_clust_6="103.69732"></scales>
<clustering>
<clus scale="   87.862">  3  4 -1 -1</clus>
<clus scale="  103.697">  1  6  2 -1</clus>
<clus scale="  440.173">  1  5  2 -1</clus>
<clus scale="  103.697">  1  3  2 -1</clus>
</clustering>
</event>
<event>
 6    0  0.3042851E+002  0.2471917E+03  0.7546771E-02  0.1115093E+00
         21   -1    0    0  503  501  0.00000000000E+00  0.00000000000E+00  0.98396474686E+03  0.98396474686E+03  0.00000000000E+00 0. -1.
         21   -1    0    0  505  502 -0.00000000000E+00 -0.00000000000E+00 -0.14205692635E+03  0.14205692635E+03  0.00000000000E+00 0.  1.
         21    1    1    2  503  506 -0.10005095744E+03 -0.44142188531E+02  0.52775753460E+03  0.53896822004E+03  0.00000000000E+00 0. -1.
         21    1    1    2  504  502 -0.14880192868E+02 -0.39026122482E+02  0.40011202173E+02  0.57839041098E+02  0.00000000000E+00 0.  1.
         21    1    1    2  505  501  0.22418139484E+03  0.12341038115E+03  0.28634464175E+02  0.25750214078E+03  0.00000000000E+00 0.  1.
         21    1    1    2  506  504 -0.10925024453E+03 -0.40242070141E+02  0.24550461957E+03  0.27171227129E+03  0.00000000000E+00 0.  1.
<scales pt_clust_3="87.98327" pt_clust_4="41.76671" pt_clust_5="229.70184" pt_clust_6="87.98327"></scales>
<clustering>
<clus scale="   41.767">  2  4  1 -1</clus>
<clus scale="   87.983">  3  6 -1 -1</clus>
<clus scale="  229.702">  2  5  1 -1</clus>
<clus scale="  247.192">  1  3  2 -1</clus>
</clustering>
</event>
<event>
 6    0  0.3042851E+002  0.1579702E+03  0.7546771E-02  0.1191008E+00
         21   -1    0    0  505  501  0.00000000000E+00  0.00000000000E+00  0.28097386881E+03  0.28097386881E+03  0.00000000000E+00 0.  1.
         21   -1    0    0  503  502 -0.00000000000E+00 -0.00000000000E+00 -0.11676233178E+03  0.11676233178E+03  0.00000000000E+00 0.  1.
         21    1    1    2  503  504  0.18627567128E+02 -0.28828506771E+02  0.24444025325E+02  0.42137624919E+02  0.00000000000E+00 0.  1.
         21    1    1    2  504  506  0.13296319182E+02 -0.40259722756E+02  0.90572413916E+02  0.10000499759E+03  0.00000000000E+00 0.  1.
         21    1    1    2  505  502 -0.10560160739E+03  0.78540174226E+02 -0.41841017455E+02  0.13809753507E+03  0.00000000000E+00 0.  1.
         21    1    1    2  506  501  0.73677721084E+02 -0.94519446982E+01  0.91036115251E+02  0.11749604301E+03  0.00000000000E+00 0.  1.
<scales pt_clust_3="30.95193" pt_clust_4="72.75138" pt_clust_5="131.60645" pt_clust_6="72.75138"></scales>
<clustering>
<clus scale="   30.952">  3  4 -1 -1</clus>
<clus scale="   72.751">  3  6 -1 -1</clus>
<clus scale="  131.606">  2  5  1 -1</clus>
<clus scale="  157.970">  1  3  2 -1</clus>
</clustering>
</event>
<event>
 6    0  0.3042851E+002  0.1448515E+03  0.7546771E-02  0.1206946E+00
         21   -1    0    0  502  501  0.00000000000E+00  0.00000000000E+00  0.73853953618E+03  0.73853953618E+03  0.00000000000E+00 0.  1.
         21   -1    0    0  503  502 -0.00000000000E+00 -0.00000000000E+00 -0.51308342026E+03  0.51308342026E+03  0.00000000000E+00 0.  1.
         21    1    1    2  503  504  0.63729288105E+02 -0.14046903589E+02 -0.17930011246E+03  0.19080688665E+03  0.00000000000E+00 0.  1.
         21    1    1    2  504  505  0.64975208625E+02 -0.17625902326E+02 -0.31730522849E+03  0.32436870718E+03  0.00000000000E+00 0.  1.
         21    1    1    2  505  506 -0.61401699244E+02  0.61652450174E+01  0.19600434018E+03  0.20548936782E+03  0.00000000000E+00 0.  1.
         21    1    1    2  506  501 -0.67302797486E+02  0.25507560898E+02  0.52605711669E+03  0.53095799479E+03  0.00000000000E+00 0.  1.
<scales pt_clust_3="34.40307" pt_clust_4="137.07307" pt_clust_5="54.10277" pt_clust_6="54.10277"></scales>
<clustering>
<clus scale="   34.403">  3  4 -1 -1</clus>
<clus scale="   54.103">  5  6 -1 -1</clus>
<clus scale="  137.073">  2  3  1 -1</clus>
<clus scale="  144.852">  1  3  2 -1</clus>
</clustering>
</event>
<event>
 6    0  0.3042851E+002  0.2969691E+03  0.7546771E-02  0.1086766E+00
         21   -1    0    0  506  501  0.00000000000E+00  0.00000000000E+00  0.27095654163E+03  0.27095654163E+03  0.00000000000E+00 0. -1.
         21   -1    0    0  504  502 -0.00000000000E+00 -0.00000000000E+00 -0.69925411648E+03  0.69925411648E+03  0.00000000000E+00 0. -1.
         21    1    1    2  503  505 -0.19463247166E+02  0.33887481317E+02 -0.56653399581E+01  0.39487662087E+02  0.00000000000E+00 0. -1.
         21    1    1    2  504  501  0.10286172675E+03 -0.22412617965E+03 -0.33880915827E+03  0.41905217451E+03  0.00000000000E+00 0.  1.
         21    1    1    2  505  502 -0.17731773575E+03 -0.80843273443E+02 -0.10967141160E+03  0.22361805113E+03  0.00000000000E+00 0. -1.
         21    1    1    2  506  503  0.93919256159E+02  0.27108197178E+03  0.25848334975E+02  0.28805277037E+03  0.00000000000E+00 0. -1.
<scales pt_clust_3="33.67555" pt_clust_4="282.60456" pt_clust_5="194.87743" pt_clust_6="33.67555"></scales>
<clustering>
<clus scale="   33.676">  3  6 -1 -1</clus>
<clus scale="  194.877">  2  5  1 -1</clus>
<clus scale="  282.605">  2  4  1 -1</clus>
<clus scale="  296.969">  1  3  2 -1</clus>
</clustering>
</event>
<event>
 6    0  0.3042851E+002  0.6219823E+02  0.7546771E-02  0.1388832E+00
         21   -1    0    0  505  501  0.00000000000E+00  0.00000000000E+00  0.58319804673E+03  0.58319804673E+03  0.00000000000E+00 0.  1.
         21   -1    0    0  504  502 -0.00000000000E+00 -0.00000000000E+00 -0.28717457374E+03  0.28717457374E+03  0.00000000000E+00 0. -1.
         21    1    1    2  503  501 -0.36261308248E+02 -0.53800832420E+02 -0.36402840756E+02  0.74394750219E+02  0.00000000000E+00 0. -1.
         21    1    1    2  504  503 -0.57590238786E+02 -0.20702165643E+02 -0.20652188754E+03  0.21539848026E+03  0.00000000000E+00 0. -1.
         21    1    1    2  505  506  0.13276294199E+02  0.54990843165E+02  0.46815945426E+03  0.47156497690E+03  0.00000000000E+00 0.  1.
         21    1    1    2  506  502  0.80575252835E+02  0.19512154898E+02  0.70788747018E+02  0.10901441310E+03  0.00000000000E+00 0.  1.
<scales pt_clust_3="56.09086" pt_clust_4="62.19823" pt_clust_5="56.57078" pt_clust_6="14000.00000"></scales>
<clustering>
<clus scale="   56.571">  1  5  2 -1</clus>
<clus scale="   56.091">  1  3  2 -1</clus>
<clus scale="   62.198">  2  4  1 -1</clus>
<clus scale="   56.571">  1  3  2 -1</clus>
</clustering>
</event>
<event>
 6    0  0.3042851E+002  0.2585607E+03  0.7546771E-02  0.1108011E+00
         21   -1    0    0  505  501  0.00000000000E+00  0.00000000000E+00  0.58777091326E+03  0.58777091326E+03  0.00000000000E+00 0. -1.
         21   -1    0    0  506  502 -0.00000000000E+00 -0.00000000000E+00 -0.22922328151E+03  0.22922328151E+03  0.00000000000E+00 0. -1.
         21    1    1    2  503  501  0.10537533551E+03  0.10427612085E+03  0.37097020561E+03  0.39949513660E+03  0.00000000000E+00 0. -1.
         21    1    1    2  504  502  0.24122019275E+02 -0.27027779693E+02 -0.39047264435E+02  0.53264073717E+02  0.00000000000E+00 0. -1.
         21    1    1    2  505  504 -0.20848083258E+03 -0.11865867072E+03 -0.51872934039E+02  0.24542807292E+03  0.00000000000E+00 0. -1.
         21    1    1    2  506  503  0.78983477790E+02  0.41410329564E+02  0.78497624621E+02  0.11880691154E+03  0.00000000000E+00 0. -1.
<scales pt_clust_3="83.34381" pt_clust_4="36.22668" pt_clust_5="235.47969" pt_clust_6="83.34381"></scales>
<clustering>
<clus scale="   36.227">  2  4  1 -1</clus>
<clus scale="   83.344">  3  6 -1 -1</clus>
<clus scale="  235.480">  2  5  1 -1</clus>
<clus scale="  258.561">  1  3  2 -1</clus>
</clustering>
</event>
<event>
 6    0  0.3042851E+002  0.1266919E+03  0.7546771E-02  0.1232449E+00
         21   -1    0    0  506  501  0.00000000000E+00  0.00000000000E+00  0.21928554504E+03  0.21928554504E+03  0.00000000000E+00 0. -1.
         21   -1    0    0  503  502 -0.00000000000E+00 -0.00000000000E+00 -0.31907755527E+03  0.31907755527E+03  0.00000000000E+00 0.  1.
         21    1    1    2  503  505  0.13501752296E+01 -0.85907659971E+02 -0.67872063709E+02  0.10949231045E+03  0.00000000000E+00 0.  1.
         21    1    1    2  504  502  0.48582186365E+02 -0.62104259738E+02 -0.18396509460E+03  0.20015075304E+03  0.00000000000E+00 0.  1.
         21    1    1    2  505  501 -0.60387765554E+02  0.11291613749E+03  0.14100747994E+03  0.19047269025E+03  0.00000000000E+00 0. -1.
         21    1    1    2  506  504  0.10455403959E+02  0.35095782216E+02  0.11037668147E+02  0.38247346567E+02  0.00000000000E+00 0.  1.
<scales pt_clust_3="126.69189" pt_clust_4="77.97743" pt_clust_5="14000.00000" pt_clust_6="36.62007"></scales>
<clustering>
<clus scale="   36.620">  1  6  2 -1</clus>
<clus scale="   77.977">  2  4  1 -1</clus>
<clus scale="  126.692">  2  3  1 -1</clus>
<clus scale="   36.620">  1  3  2 -1</clus>
</clustering>
</event>
<event>
 6    0  0.3042851E+002  0.1269214E+03  0.7546771E-02  0.1232097E+00
         21   -1    0    0  506  501  0.00000000000E+00  0.00000000000E+00  0.25450579898E+03  0.25450579898E+03  0.00000000000E+00 0. -1.
         21   -1    0    0  504  502 -0.00000000000E+00 -0.00000000000E+00 -0.23814428328E+03  0.23814428328E+03  0.00000000000E+00 0. -1.
         21    1    1    2  503  501 -0.30931778815E+02  0.63540827222E+02  0.13458891612E+03  0.15201443355E+03  0.00000000000E+00 0. -1.
         21    1    1    2  504  503 -0.49555258893E+02  0.25433036189E+02  0.85301108576E+02  0.10187660251E+03  0.00000000000E+00 0. -1.
         21    1    1    2  505  502  0.32677044581E+02 -0.61235628757E+02 -0.10755461635E+03  0.12800619895E+03  0.00000000000E+00 0. -1.
         21    1    1    2  506  505  0.47809993127E+02 -0.27738234654E+02 -0.95973892645E+02  0.11075284725E+03  0.00000000000E+00 0. -1.
<scales pt_clust_3="36.76082" pt_clust_4="36.76082" pt_clust_5="124.82799" pt_clust_6="30.75193"></scales>
<clustering>
<clus scale="   30.752">  5  6 -1 -1</clus>
<clus scale="   36.761">  3  4 -1 -1</clus>
<clus scale="  124.828">  2  5  1 -1</clus>
<clus scale="  126.921">  1  3  2 -1</clus>
</clustering>
</event>
<event>
 6    0  0.3042851E+002  0.9913342E+02  0.7546771E-02  0.1282129E+00
         21   -1    0    0  505  501  0.00000000000E+00  0.00000000000E+00  0.17558407993E+04  0.17558407993E+04  0.00000000000E+00 0.  1.
         21   -1    0    0  506  502 -0.00000000000E+00 -0.00000000000E+00 -0.91228936647E+02  0.91228936647E+02  0.00000000000E+00 0. -1.
         21    1    1    2  503  501  0.91897058482E+02 -0.31725879114E+02  0.41949031988E+03  0.43060855686E+03  0.00000000000E+00 0.  1.
         21    1    1    2  504  502  0.16425237897E+01  0.62694554537E+02  0.27985718678E+02  0.68676819254E+02  0.00000000000E+00 0.  1.
         21    1    1    2  505  504 -0.10112624499E+03 -0.84764532727E+02  0.12671130956E+04  0.12739651253E+04  0.00000000000E+00 0.  1.
         21    1    1    2  506  503  0.75866627176E+01  0.53795857305E+02 -0.49977271532E+02  0.73819234513E+02  0.00000000000E+00 0. -1.
<scales pt_clust_3="95.78596" pt_clust_4="14000.00000" pt_clust_5="99.13342" pt_clust_6="54.32819"></scales>
<clustering>
<clus scale="   54.328">  2  6  1 -1</clus>
<clus scale="   95.786">  1  3  2 -1</clus>
<clus scale="   99.133">  1  5  2 -1</clus>
<clus scale="   95.786">  1  3  2 -1</clus>
</clustering>
</event>
<event>
 6    0  0.3042851E+002  0.9936806E+02  0.7546771E-02  0.1281630E+00
         21   -1    0    0  503  501  0.00000000000E+00  0.00000000000E+00  0.82771911229E+02  0.82771911229E+02  0.00000000000E+00 0. -1.
         21   -1    0    0  505  502 -0.00000000000E+00 -0.00000000000E+00 -0.18949811325E+04  0.18949811325E+04  0.00000000000E+00 0. -1.
         21    1    1    2  503  504 -0.12953011894E+02 -0.10283500714E+03  0.23044775145E+02  0.10617853301E+03  0.00000000000E+00 0. -1.
         21    1    1    2  504  502 -0.87978265891E+01  0.43487805140E+02 -0.11288657254E+04  0.11297373221E+04  0.00000000000E+00 0. -1.
         21    1    1    2  505  506 -0.44697767320E+02 -0.13705362370E+02 -0.57787889855E+03  0.57976697798E+03  0.00000000000E+00 0.  1.
         21    1    1    2  506  501  0.66448605803E+02  0.73052564370E+02 -0.12850937255E+03  0.16207021073E+03  0.00000000000E+00 0. -1.
<scales pt_clust_3="99.36806" pt_clust_4="44.36881" pt_clust_5="54.81014" pt_clust_6="14000.00000"></scales>
<clustering>
<clus scale="   44.369">  2  4  1 -1</clus>
<clus scale="   54.810">  2  5  1 -1</clus>
<clus scale="   99.368">  1  3  2 -1</clus>
<clus scale="   99.368">  1  3  2 -1</clus>
</clustering>
</event>
<event>
 6    0  0.3042851E+002  0.1618726E+03  0.7546771E-02  0.1186599E+00
         21   -1    0    0  504  501  0.00000000000E+00  0.00000000000E+00  0.39837246413E+03  0.39837246413E+03  0.00000000000E+00 0.  1.
         21   -1    0    0  505  502 -0.00000000000E+00 -0.00000000000E+00 -0.48091923530E+03  0.48091923530E+03  0.00000000000E+00 0.  1.
         21    1    1    2  503  502  0.30483979892E+02 -0.45104388828E+00 -0.31202029780E+02  0.43623882599E+02  0.00000000000E+00 0.  1.
         21    1    1    2  504  503  0.50919116764E+02 -0.63426801257E+01  0.14604325764E+02  0.53350467423E+02  0.00000000000E+00 0.  1.
         21    1    1    2  505  506  0.89455063332E+02  0.10960937840E+03 -0.38270599572E+03  0.40801997910E+03  0.00000000000E+00 0.  1.
         21    1    1    2  506  501 -0.17085815999E+03 -0.10281565438E+03  0.31675692857E+03  0.37429737031E+03  0.00000000000E+00 0.  1.
<scales pt_clust_3="30.48732" pt_clust_4="52.63664" pt_clust_5="161.87263" pt_clust_6="14000.00000"></scales>
<clustering>
<clus scale="   30.487">  2  3  1 -1</clus>
<clus scale="   52.637">  1  4  2 -1</clus>
<clus scale="  161.873">  2  5  1 -1</clus>
<clus scale="   52.637">  1  3  2 -1</clus>
</clustering>
</event>
<event>
 6    0  0.3042851E+002  0.8952845E+02  0.7546771E-02  0.1303998E+00
         21   -1    0    0  503  501  0.00000000000E+00  0.00000000000E+00  0.33092727671E+03  0.33092727671E+03  0.00000000000E+00 0.  1.
         21   -1    0    0  504  502 -0.00000000000E+00 -0.00000000000E+00 -0.11326467099E+03  0.11326467099E+03  0.00000000000E+00 0.  1.
         21    1    1    2  503  502 -0.69014571137E+02 -0.79900421565E+01  0.17526225195E+03  0.18853039214E+03  0.00000000000E+00 0.  1.
         21    1    1    2  504  506  0.24852938871E+02 -0.79594218276E+02 -0.65144227663E+02  0.10581435891E+03  0.00000000000E+00 0.  1.
         21    1    1    2  505  501  0.15746880230E+02  0.48893511266E+02  0.32572137782E+02  0.60823382351E+02  0.00000000000E+00 0.  1.
         21    1    1    2  506  505  0.28414752035E+02  0.38690749167E+02  0.74972443656E+02  0.89023814297E+02  0.00000000000E+00 0.  1.
<scales pt_clust_3="69.47555" pt_clust_4="82.14773" pt_clust_5="34.41133" pt_clust_6="34.41133"></scales>
<clustering>
<clus scale="   34.411">  5  6 -1 -1</clus>
<clus scale="   69.476">  1  3  2 -1</clus>
<clus scale="   82.148">  2  4  1 -1</clus>
<clus scale="   69.476">  1  3  2 -1</clus>
</clustering>
</event>
<event>
 6    0  0.3042851E+002  0.8676301E+02  0.7546771E-02  0.1310885E+00
         21   -1    0    0  504  501  0.00000000000E+00  0.00000000000E+00  0.16293777152E+03  0.16293777152E+03  0.00000000000E+00 0.  1.
         21   -1    0    0  506  502 -0.00000000000E+00 -0.00000000000E+00 -0.92819171973E+03  0.92819171973E+03  0.00000000000E+00 0.  1.
         21    1    1    2  503  501  0.52097975720E+02  0.57780015642E+02  0.66318569467E+02  0.10222955511E+03  0.00000000000E+00 0.  1.
         21    1    1    2  504  505 -0.12811415283E+03 -0.66638603361E+02 -0.11231287713E+02  0.14484502558E+03  0.00000000000E+00 0.  1.
         21    1    1    2  505  502 -0.59554954402E+01 -0.64776173531E+02 -0.13433718421E+03  0.14925782942E+03  0.00000000000E+00 0.  1.
         21    1    1    2  506  503  0.81971672547E+02  0.73634761250E+02 -0.68600404576E+03  0.69479708114E+03  0.00000000000E+00 0.  1.
<scales pt_clust_3="76.61496" pt_clust_4="14000.00000" pt_clust_5="65.04937" pt_clust_6="86.76301"></scales>
<clustering>
<clus scale="   65.049">  2  5  1 -1</clus>
<clus scale="   76.615">  1  3  2 -1</clus>
<clus scale="   86.763">  2  6  1 -1</clus>
<clus scale="   76.615">  1  3  2 -1</clus>
</clustering>
</event>
<event>
 6    0  0.3042851E+002  0.7070447E+02  0.7546771E-02  0.1357714E+00
         21   -1    0    0  504  501  0.00000000000E+00  0.00000000000E+00  0.74201307512E+03  0.74201307512E+03  0.00000000000E+00 0.  1.
         21   -1    0    0  503  502 -0.00000000000E+00 -0.00000000000E+00 -0.23869770173E+03  0.23869770173E+03  0.00000000000E+00 0. -1.
         21    1    1    2  503  506  0.46499740332E+01 -0.55398888697E+02 -0.29687607987E+02  0.63023909711E+02  0.00000000000E+00 0.  1.
         21    1    1    2  504  502  0.53944636881E+02  0.34552297388E+02 -0.16125288013E+03  0.17351189139E+03  0.00000000000E+00 0. -1.
         21    1    1    2  505  501  0.53043501599E+02  0.42488554326E+02  0.57643505283E+03  0.58042765307E+03  0.00000000000E+00 0.  1.
         21    1    1    2  506  505 -0.11163811251E+03 -0.21641963017E+02  0.11782080867E+03  0.16374732268E+03  0.00000000000E+00 0. -1.
<scales pt_clust_3="55.59370" pt_clust_4="59.57777" pt_clust_5="14000.00000" pt_clust_6="70.70447"></scales>
<clustering>
<clus scale="   55.594">  2  3  1 -1</clus>
<clus scale="   59.578">  2  4  1 -1</clus>
<clus scale="   70.704">  2  6  1 -1</clus>
<clus scale="   70.704">  1  3  2 -1</clus>
</clustering>
</event>
<event>
 6    0  0.3042851E+002  0.7062860E+02  0.7546771E-02  0.1357968E+00
         21   -1    0    0  503  501  0.00000000000E+00  0.00000000000E+00  0.30307583823E+04  0.30307583823E+04  0.00000000000E+00 0. -1.
         21   -1    0    0  506  502 -0.00000000000E+00 -0.00000000000E+00 -0.49879384225E+03  0.49879384225E+03  0.00000000000E+00 0. -1.
         21    1    1    2  503  504 -0.57172219902E+02  0.79918110123E+02  0.44909844286E+03  0.45972271908E+03  0.00000000000E+00 0. -1.
         21    1    1    2  504  502  0.60829735162E-01 -0.50117350241E+02  0.49052878349E+01  0.50356869881E+02  0.00000000000E+00 0.  1.
         21    1    1    2  505  501 -0.86086984797E+01 -0.69706590260E+02  0.25450895865E+04  0.25460585464E+04  0.00000000000E+00 0. -1.
         21    1    1    2  506  505  0.65720088646E+02  0.39905830377E+02 -0.46712877718E+03  0.47341408916E+03  0.00000000000E+00 0. -1.
<scales pt_clust_3="14000.00000" pt_clust_4="50.11739" pt_clust_5="70.62860" pt_clust_6="66.47719"></scales>
<clustering>
<clus scale="   50.117">  2  4  1 -1</clus>
<clus scale="   66.477">  2  6  1 -1</clus>
<clus scale="   70.629">  1  5  2 -1</clus>
<clus scale="   70.629">  1  3  2 -1</clus>
</clustering>
</event>
<event>
 6    0  0.3042851E+002  0.1518423E+03  0.7546771E-02  0.1198227E+00
         21   -1    0    0  503  501  0.00000000000E+00  0.00000000000E+00  0.10689792812E+03  0.10689792812E+03  0.00000000000E+00 0. -1.
         21   -1    0    0  504  502 -0.00000000000E+00 -0.00000000000E+00 -0.30118198566E+03  0.30118198566E+03  0.00000000000E+00 0. -1.
         21    1    1    2  503  506  0.10341531190E+03 -0.68271289045E+02 -0.53552622587E+02  0.13499473704E+03  0.00000000000E+00 0. -1.
         21    1    1    2  504  505 -0.47475333217E+02 -0.37907274260E+01 -0.47792244127E+02  0.67471293727E+02  0.00000000000E+00 0. -1.
         21    1    1    2  505  501 -0.10591318750E+03  0.52160149892E+02 -0.28084156772E+02  0.12135486964E+03  0.00000000000E+00 0. -1.
         21    1    1    2  506  502  0.49973208818E+02  0.19901866579E+02 -0.64855034051E+02  0.84259013373E+02  0.00000000000E+00 0. -1.
<scales pt_clust_3="137.93341" pt_clust_4="40.32261" pt_clust_5="40.32261" pt_clust_6="53.79039"></scales>
<clustering>
<clus scale="   40.323">  4  5 -1 -1</clus>
<clus scale="   53.790">  2  6  1 -1</clus>
<clus scale="  137.933">  1  3  2 -1</clus>
<clus scale="  137.933">  1  3  2 -1</clus>
</clustering>
</event>
<event>
 6    0  0.3042851E+002  0.6522238E+02  0.7546771E-02  0.1377137E+00
         21   -1    0    0  505  501  0.00000000000E+00  0.00000000000E+00  0.36883213003E+03  0.36883213003E+03  0.00000000000E+00 0.  1.
         21   -1    0    0  506  502 -0.00000000000E+00 -0.00000000000E+00 -0.15817425425E+03  0.15817425425E+03  0.00000000000E+00 0. -1.
         21    1    1    2  503  502 -0.64431008080E+02  0.16310495985E+02 -0.39879516719E+01  0.66582962085E+02  0.00000000000E+00 0.  1.
         21    1    1    2  504  501  0.79392147254E+01  0.49816838384E+02  0.10386213138E+03  0.11546467361E+03  0.00000000000E+00 0.  1.
         21    1    1    2  505  503 -0.58445718293E+01 -0.95376022337E+02  0.20621567851E+03  0.22727879514E+03  0.00000000000E+00 0.  1.
         21    1    1    2  506  504  0.62336365184E+02  0.29248687969E+02 -0.95431982438E+02  0.11767995345E+03  0.00000000000E+00 0. -1.
<scales pt_clust_3="65.22238" pt_clust_4="50.44550" pt_clust_5="53.71923" pt_clust_6="14000.00000"></scales>
<clustering>
<clus scale="   50.446">  1  4  2 -1</clus>
<clus scale="   53.719">  1  5  2 -1</clus>
<clus scale="   65.222">  1  3  2 -1</clus>
<clus scale="   50.446">  1  3  2 -1</clus>
</clustering>
</event>
<event>
 6    0  0.3042851E+002  0.1353915E+03  0.7546771E-02  0.1219668E+00
         21   -1    0    0  505  501  0.00000000000E+00  0.00000000000E+00  0.49730127078E+03  0.49730127078E+03  0.00000000000E+00 0. -1.
         21   -1    0    0  504  502 -0.00000000000E+00 -0.00000000000E+00 -0.83825055026E+03  0.83825055026E+03  0.00000000000E+00 0. -1.
         21    1    1    2  503  502 -0.15003363110E+03  0.15507311292E+00 -0.78571950190E+03  0.79991577693E+03  0.00000000000E+00 0. -1.
         21    1    1    2  504  501  0.40441475728E+02  0.18279743120E+02  0.29738193441E+03  0.30067536794E+03  0.00000000000E+00 0. -1.
         21    1    1    2  505  506  0.39667829427E+02 -0.30987371434E+02  0.15551201296E+03  0.16345562106E+03  0.00000000000E+00 0. -1.
         21    1    1    2  506  503  0.69924325943E+02  0.12552555201E+02 -0.81237249537E+01  0.71505055121E+02  0.00000000000E+00 0. -1.
<scales pt_clust_3="14000.00000" pt_clust_4="44.38087" pt_clust_5="74.01117" pt_clust_6="135.39147"></scales>
<clustering>
<clus scale="   44.381">  1  4  2 -1</clus>
<clus scale="   74.011">  1  5  2 -1</clus>
<clus scale="  135.391">  1  6  2 -1</clus>
<clus scale="   44.381">  1  3  2 -1</clus>
</clustering>
</event>
<event>
 6    0  0.3042851E+002  0.1372277E+03  0.7546771E-02  0.1217109E+00
         21   -1    0    0  502  501  0.00000000000E+00  0.00000000000E+00  0.34454982856E+02  0.34454982856E+02  0.00000000000E+00 0. -1.
         21   -1    0    0  503  502 -0.00000000000E+00 -0.00000000000E+00 -0.21986714521E+04  0.21986714521E+04  0.00000000000E+00 0.  1.
         21    1    1    2  503  506  0.90514699838E+02  0.22283107198E+02 -0.14168608921E+04  0.14199240245E+04  0.00000000000E+00 0.  1.
         21    1    1    2  504  501 -0.76322723912E+02 -0.11364198141E+02 -0.37030740418E+02  0.85589595867E+02  0.00000000000E+00 0. -1.
         21    1    1    2  505  504 -0.66777727245E+02 -0.40544865205E+02 -0.21748063087E+03  0.23108651141E+03  0.00000000000E+00 0. -1.
         21    1    1    2  506  505  0.52585751320E+02  0.29625956148E+02 -0.49284420588E+03  0.49652630322E+03  0.00000000000E+00 0.  1.
<scales pt_clust_3="41.31320" pt_clust_4="77.16413" pt_clust_5="127.26131" pt_clust_6="41.31320"></scales>
<clustering>
<clus scale="   41.313">  3  6 -1 -1</clus>
<clus scale="   77.164">  1  4  2 -1</clus>
<clus scale="  127.261">  1  5  2 -1</clus>
<clus scale="   77.164">  1  3  2 -1</clus>
</clustering>
</event>
<event>
 6    0  0.3042851E+002  0.8197421E+02  0.7546771E-02  0.1323540E+00
         21   -1    0    0  505  501  0.00000000000E+00  0.00000000000E+00  0.63453322938E+03  0.63453322938E+03  0.00000000000E+00 0.  1.
         21   -1    0    0  503  502 -0.00000000000E+00 -0.00000000000E+00 -0.39124228708E+03  0.39124228708E+03  0.00000000000E+00 0.  1.
         21    1    1    2  503  504  0.12259453322E+02  0.61324788142E+02 -0.27828164161E+03  0.28522218689E+03  0.00000000000E+00 0.  1.
         21    1    1    2  504  501 -0.67000701728E+02 -0.47870702195E+02  0.58509429821E+03  0.59086042003E+03  0.00000000000E+00 0.  1.
         21    1    1    2  505  506  0.68914388063E+02 -0.51083462343E+02 -0.15691486829E+02  0.87206282836E+02  0.00000000000E+00 0.  1.
         21    1    1    2  506  502 -0.14173139657E+02  0.37629376396E+02 -0.47830227473E+02  0.62486626695E+02  0.00000000000E+00 0.  1.
<scales pt_clust_3="14000.00000" pt_clust_4="81.97421" pt_clust_5="80.67858" pt_clust_6="40.21005"></scales>
<clustering>
<clus scale="   40.210">  2  6  1 -1</clus>
<clus scale="   80.679">  2  5  1 -1</clus>
<clus scale="   81.974">  1  4  2 -1</clus>
<clus scale="   81.974">  1  3  2 -1</clus>
</clustering>
</event>
<event>
 6    0  0.3042851E+002  0.1558414E+03  0.7546771E-02  0.1193473E+00
         21   -1    0    0  506  501  0.00000000000E+00  0.00000000000E+00  0.25474716263E+03  0.25474716263E+03  0.00000000000E+00 0.  1.
         21   -1    0    0  505  502 -0.00000000000E+00 -0.00000000000E+00 -0.61246590287E+03  0.61246590287E+03  0.00000000000E+00 0. -1.
         21    1    1    2  503  501 -0.16456983216E+02 -0.79087762332E+02  0.10720895768E+03  0.13423660847E+03  0.00000000000E+00 0.  1.
         21    1    1    2  504  502  0.43239717547E+02  0.74807998901E+02 -0.42180335587E+03  0.43056240070E+03  0.00000000000E+00 0. -1.
         21    1    1    2  505  503 -0.39537193433E+02 -0.56569459460E+02  0.11409670110E+03  0.13334673078E+03  0.00000000000E+00 0. -1.
         21    1    1    2  506  504  0.12754459102E+02  0.60849222892E+02 -0.15722104316E+03  0.16906732554E+03  0.00000000000E+00 0. -1.
<scales pt_clust_3="150.41492" pt_clust_4="44.46919" pt_clust_5="30.46623" pt_clust_6="44.46919"></scales>
<clustering>
<clus scale="   30.466">  3  5 -1 -1</clus>
<clus scale="   44.469">  4  6 -1 -1</clus>
<clus scale="  150.415">  1  3  2 -1</clus>
<clus scale="  150.415">  1  3  2 -1</clus>
</clustering>
</event>
<event>
 6    0  0.3042851E+002  0.1217919E+03  0.7546771E-02  0.1240170E+00
         21   -1    0    0  503  501  0.00000000000E+00  0.00000000000E+00  0.38967429477E+03  0.38967429477E+03  0.00000000000E+00 0.  1.
         21   -1    0    0  505  502 -0.00000000000E+00 -0.00000000000E+00 -0.81746995567E+03  0.81746995567E+03  0.00000000000E+00 0. -1.
         21    1    1    2  503  506  0.12180892914E+03  0.54004902225E+02  0.33896758670E+03  0.36421555364E+03  0.00000000000E+00 0.  1.
         21    1    1    2  504  501 -0.35474505707E+02  0.35073020926E+02  0.76210039647E+01  0.50464215574E+02  0.00000000000E+00 0. -1.
         21    1    1    2  505  504 -0.47884887716E+02 -0.57643199279E+02 -0.69359057030E+03  0.69762710677E+03  0.00000000000E+00 0. -1.
         21    1    1    2  506  502 -0.38449535714E+02 -0.31434723872E+02 -0.80793681258E+02  0.94837374451E+02  0.00000000000E+00 0.  1.
<scales pt_clust_3="121.79194" pt_clust_4="50.06032" pt_clust_5="14000.00000" pt_clust_6="49.66396"></scales>
<clustering>
<clus scale="   49.664">  2  6  1 -1</clus>
<clus scale="   50.060">  1  4  2 -1</clus>
<clus scale="  121.792">  1  3  2 -1</clus>
<clus scale="   50.060">  1  3  2 -1</clus>
</clustering>
</event>
<event>
 6    0  0.3042851E+002  0.1356674E+03  0.7546771E-02  0.1219281E+00
         21   -1    0    0  505  501  0.00000000000E+00  0.00000000000E+00  0.15145298511E+03  0.15145298511E+03  0.00000000000E+00 0.  1.
         21   -1    0    0  504  502 -0.00000000000E+00 -0.00000000000E+00 -0.42214969348E+03  0.42214969348E+03  0.00000000000E+00 0.  1.
         21    1    1    2  503  506  0.58932566100E+02 -0.10971768840E+03 -0.14082239069E+03  0.18799458560E+03  0.00000000000E+00 0.  1.
         21    1    1    2  504  501 -0.58882538833E+02  0.12947461055E+03 -0.73489208643E+02  0.16009838207E+03  0.00000000000E+00 0.  1.
         21    1    1    2  505  503 -0.39785413941E+02 -0.13032532136E+02  0.76195423869E+02  0.86939454075E+02  0.00000000000E+00 0.  1.
         21    1    1    2  506  502  0.39735386674E+02 -0.67243900063E+01 -0.13258053290E+03  0.13857025684E+03  0.00000000000E+00 0.  1.
<scales pt_clust_3="135.66737" pt_clust_4="14000.00000" pt_clust_5="41.19846" pt_clust_6="40.30035"></scales>
<clustering>
<clus scale="   40.300">  2  6  1 -1</clus>
<clus scale="   41.198">  1  5  2 -1</clus>
<clus scale="  135.667">  2  3  1 -1</clus>
<clus scale="   41.198">  1  3  2 -1</clus>
</clustering>
</event>
<event>
 6    0  0.3042851E+002  0.1166977E+03  0.7546771E-02  0.1248646E+00
         21   -1    0    0  506  501  0.00000000000E+00  0.00000000000E+00  0.11745226661E+04  0.11745226661E+04  0.00000000000E+00 0.  1.
         21   -1    0    0  505  502 -0.00000000000E+00 -0.00000000000E+00 -0.30815805961E+02  0.30815805961E+02  0.00000000000E+00 0.  1.
         21    1    1    2  503  504  0.48499061124E+02 -0.49496120769E+02  0.40022591203E+03  0.40618075479E+03  0.00000000000E+00 0.  1.
         21    1    1    2  504  501  0.24712690025E+02 -0.33030921524E+02  0.54754055321E+03  0.54909235674E+03  0.00000000000E+00 0.  1.
         21    1    1    2  505  503  0.21076028644E+02  0.41275713178E+02  0.31369133724E+02  0.55963434780E+02  0.00000000000E+00 0.  1.
         21    1    1    2  506  502 -0.94287779793E+02  0.41251329115E+02  0.16457126114E+03  0.19410192571E+03  0.00000000000E+00 0.  1.
<scales pt_clust_3="35.48135" pt_clust_4="35.48135" pt_clust_5="46.34526" pt_clust_6="107.25477"></scales>
<clustering>
<clus scale="   35.481">  3  4 -1 -1</clus>
<clus scale="   46.345">  2  5  1 -1</clus>
<clus scale="  107.255">  2  6  1 -1</clus>
<clus scale="  116.698">  1  3  2 -1</clus>
</clustering>
</event>
<event>
 6    0  0.3042851E+002  0.7288364E+02  0.7546771E-02  0.1350553E+00
         21   -1    0    0  504  501  0.00000000000E+00  0.00000000000E+00  0.10369639792E+03  0.10369639792E+03  0.00000000000E+00 0.  1.
         21   -1    0    0  505  502 -0.00000000000E+00 -0.00000000000E+00 -0.61201709716E+03  0.61201709716E+03  0.00000000000E+00 0. -1.
         21    1    1    2  503  502 -0.38512833599E+02 -0.37899086975E+02 -0.19110527601E+03  0.19859709380E+03  0.00000000000E+00 0. -1.
         21    1    1    2  504  503 -0.12982401928E+02 -0.74096012801E+02  0.47700706726E+02  0.89073673411E+02  0.00000000000E+00 0.  1.
         21    1    1    2  505  506 -0.15261087921E+02  0.62521949017E+02 -0.33279344585E+03  0.33895924904E+03  0.00000000000E+00 0. -1.
         21    1    1    2  506  501  0.66756323448E+02  0.49473150758E+02 -0.32122684110E+02  0.89083478831E+02  0.00000000000E+00 0.  1.
<scales pt_clust_3="54.03313" pt_clust_4="72.88364" pt_clust_5="56.26146" pt_clust_6="14000.00000"></scales>
<clustering>
<clus scale="   54.033">  2  3  1 -1</clus>
<clus scale="   56.261">  2  5  1 -1</clus>
<clus scale="   72.884">  1  4  2 -1</clus>
<clus scale="   72.884">  1  3  2 -1</clus>
</clustering>
</event>
<event>
 6    0  0.3042851E+002  0.1124272E+03  0.7546771E-02  0.1256140E+00
         21   -1    0    0  505  501  0.00000000000E+00  0.00000000000E+00  0.14424416993E+03  0.14424416993E+03  0.00000000000E+00 0.  1.
         21   -1    0    0  501  502 -0.00000000000E+00 -0.00000000000E+00 -0.37641457951E+03  0.37641457951E+03  0.00000000000E+00 0.  1.
         21    1    1    2  503  502  0.35972580344E+02 -0.54207440034E+02 -0.20054383855E+03  0.21083240802E+03  0.00000000000E+00 0.  1.
         21    1    1    2  504  503 -0.10032002472E+03  0.12895375667E+03 -0.54668962216E+02  0.17228428294E+03  0.00000000000E+00 0.  1.
         21    1    1    2  505  506 -0.19802173747E+02 -0.39802453613E+02  0.63099056750E+01  0.44901851948E+02  0.00000000000E+00 0. -1.
         21    1    1    2  506  504  0.84149618125E+02 -0.34943863022E+02  0.16732485510E+02  0.92640206524E+02  0.00000000000E+00 0.  1.
<scales pt_clust_3="66.04184" pt_clust_4="112.42715" pt_clust_5="44.45629" pt_clust_6="14000.00000"></scales>
<clustering>
<clus scale="   44.456">  1  5  2 -1</clus>
<clus scale="   66.042">  2  3  1 -1</clus>
<clus scale="  112.427">  2  4  1 -1</clus>
<clus scale="   44.456">  1  3  2 -1</clus>
</clustering>
</event>
<event>
 6    0  0.3042851E+002  0.1246642E+03  0.7546771E-02  0.1235595E+00
         21   -1    0    0  506  501  0.00000000000E+00  0.00000000000E+00  0.19702674801E+03  0.19702674801E+03  0.00000000000E+00 0.  1.
         21   -1    0    0  504  502 -0.00000000000E+00 -0.00000000000E+00 -0.15105979064E+03  0.15105979064E+03  0.00000000000E+00 0.  1.
         21    1    1    2  503  502 -0.74533972129E+02 -0.21781154911E+02 -0.11352521614E+02  0.78476821148E+02  0.00000000000E+00 0.  1.
         21    1    1    2  504  505  0.71498250949E+02  0.46475635039E+02 -0.16459756378E+02  0.86849917220E+02  0.00000000000E+00 0.  1.
         21    1    1    2  505  501  0.43130304147E+02  0.52351984802E+02  0.67476572715E+02  0.95676754302E+02  0.00000000000E+00 0. -1.
         21    1    1    2  506  503 -0.40094582967E+02 -0.77046464930E+02  0.63026626437E+01  0.87083045985E+02  0.00000000000E+00 0.  1.
<scales pt_clust_3="63.27297" pt_clust_4="105.18172" pt_clust_5="67.83033" pt_clust_6="63.27297"></scales>
<clustering>
<clus scale="   63.273">  3  6 -1 -1</clus>
<clus scale="   67.830">  1  5  2 -1</clus>
<clus scale="  105.182">  2  4  1 -1</clus>
<clus scale="   67.830">  1  3  2 -1</clus>
</clustering>
</event>
<event>
 6    0  0.3042851E+002  0.1109604E+03  0.7546771E-02  0.1258802E+00
         21   -1    0    0  503  501  0.00000000000E+00  0.00000000000E+00  0.55301063162E+03  0.55301063162E+03  0.00000000000E+00 0.  1.
         21   -1    0    0  505  502 -0.00000000000E+00 -0.00000000000E+00 -0.75970083163E+02  0.75970083163E+02  0.00000000000E+00 0.  1.
         21    1    1    2  503  504 -0.31479076580E+02  0.10256766067E+02  0.41153165429E+02  0.52817767251E+02  0.00000000000E+00 0.  1.
         21    1    1    2  504  502 -0.10525306803E+03 -0.34988980076E+02 -0.35999072519E+01  0.11097475563E+03  0.00000000000E+00 0.  1.
         21    1    1    2  505  506  0.10597105562E+03  0.34012518414E+02  0.39454254616E+03  0.40993967454E+03  0.00000000000E+00 0.  1.
         21    1    1    2  506  501  0.30761088986E+02 -0.92803044049E+01  0.44944744118E+02  0.55248517349E+02  0.00000000000E+00 0. -1.
<scales pt_clust_3="30.10687" pt_clust_4="110.96039" pt_clust_5="14000.00000" pt_clust_6="32.13049"></scales>
<clustering>
<clus scale="   32.130">  1  6  2 -1</clus>
<clus scale="   30.107">  1  3  2 -1</clus>
<clus scale="  110.960">  2  4  1 -1</clus>
<clus scale="   32.130">  1  3  2 -1</clus>
</clustering>
</event>
<event>
 6    0  0.3042851E+002  0.7676983E+02  0.7546771E-02  0.1338476E+00
         21   -1    0    0  505  501  0.00000000000E+00  0.00000000000E+00  0.23051758137E+03  0.23051758137E+03  0.00000000000E+00 0.  1.
         21   -1    0    0  506  502 -0.00000000000E+00 -0.00000000000E+00 -0.73150860345E+02  0.73150860345E+02  0.00000000000E+00 0.  1.
         21    1    1    2  503  502 -0.65407531370E+02  0.37072609848E+02  0.28912152157E+02  0.80550829314E+02  0.00000000000E+00 0.  1.
         21    1    1    2  504  503  0.17794465999E+02  0.56882526773E+02  0.23465833084E+02  0.64053963145E+02  0.00000000000E+00 0.  1.
         21    1    1    2  505  504 -0.82656197352E+01 -0.35249124144E+02  0.47369396879E+02  0.59621145437E+02  0.00000000000E+00 0.  1.
         21    1    1    2  506  501  0.55878685106E+02 -0.58706012477E+02  0.57619338906E+02  0.99442503821E+02  0.00000000000E+00 0.  1.
<scales pt_clust_3="76.76983" pt_clust_4="50.67887" pt_clust_5="36.20527" pt_clust_6="14000.00000"></scales>
<clustering>
<clus scale="   36.205">  1  5  2 -1</clus>
<clus scale="   50.679">  1  4  2 -1</clus>
<clus scale="   76.770">  2  3  1 -1</clus>
<clus scale="   36.205">  1  3  2 -1</clus>
</clustering>
</event>
<event>
 6    0  0.3042851E+002  0.1310259E+03  0.7546771E-02  0.1225941E+00
         21   -1    0    0  506  501  0.00000000000E+00  0.00000000000E+00  0.32609332306E+03  0.32609332306E+03  0.00000000000E+00 0. -1.
         21   -1    0    0  503  502 -0.00000000000E+00 -0.00000000000E+00 -0.33723223945E+03  0.33723223945E+03  0.00000000000E+00 0. -1.
         21    1    1    2  503  505  0.13422489317E+03  0.99863996358E+01 -0.26402334642E+03  0.29635178011E+03  0.00000000000E+00 0. -1.
         21    1    1    2  504  502 -0.34828133254E+01  0.31588362374E+02 -0.92848566971E+01  0.33108355290E+02  0.00000000000E+00 0.  1.
         21    1    1    2  505  501 -0.67731722028E+02  0.37449963278E+02  0.34434603983E+02  0.84710258350E+02  0.00000000000E+00 0. -1.
         21    1    1    2  506  504 -0.63010357814E+02 -0.79024725287E+02  0.22773468274E+03  0.24915516876E+03  0.00000000000E+00 0. -1.
<scales pt_clust_3="131.02586" pt_clust_4="31.77978" pt_clust_5="78.88089" pt_clust_6="14000.00000"></scales>
<clustering>
<clus scale="   31.780">  2  4  1 -1</clus>
<clus scale="   78.881">  1  5  2 -1</clus>
<clus scale="  131.026">  2  3  1 -1</clus>
<clus scale="   78.881">  1  3  2 -1</clus>
</clustering>
</event>
<event>
 6    0  0.3042851E+002  0.2759603E+03  0.7546771E-02  0.1097916E+00
         21   -1    0    0  503  501  0.00000000000E+00  0.00000000000E+00  0.91566611219E+03  0.91566611219E+03  0.00000000000E+00 0. -1.
         21   -1    0    0  501  502 -0.00000000000E+00 -0.00000000000E+00 -0.14669527337E+03  0.14669527337E+03  0.00000000000E+00 0.  1.
         21    1    1    2  503  505  0.23864395194E+03 -0.52315627080E+02  0.66991030962E+03  0.71306919971E+03  0.00000000000E+00 0. -1.
         21    1    1    2  504  502 -0.89825063523E+02  0.41329547466E+02  0.12420789396E+02  0.99654149637E+02  0.00000000000E+00 0.  1.
         21    1    1    2  505  506  0.22015940670E+02  0.22163887015E+02  0.71189181193E+02  0.77742131757E+02  0.00000000000E+00 0.  1.
         21    1    1    2  506  504 -0.17083482909E+03 -0.11177807401E+02  0.15450558603E+02  0.17189590446E+03  0.00000000000E+00 0.  1.
<scales pt_clust_3="30.55535" pt_clust_4="48.72053" pt_clust_5="30.55535" pt_clust_6="270.11594"></scales>
<clustering>
<clus scale="   30.555">  3  5 -1 -1</clus>
<clus scale="   48.721">  4  6 -1 -1</clus>
<clus scale="  270.116">  2  4  1 -1</clus>
<clus scale="  275.960">  1  3  2 -1</clus>
</clustering>
</event>
<event>
 6    0  0.3042851E+002  0.1403899E+03  0.7546771E-02  0.1212805E+00
         21   -1    0    0  505  501  0.00000000000E+00  0.00000000000E+00  0.49672568913E+02  0.49672568913E+02  0.00000000000E+00 0.  1.
         21   -1    0    0  503  502 -0.00000000000E+00 -0.00000000000E+00 -0.13025436080E+04  0.13025436080E+04  0.00000000000E+00 0.  1.
         21    1    1    2  503  504  0.15056774324E+02 -0.30201735003E+02 -0.97588775039E+02  0.10325899604E+03  0.00000000000E+00 0.  1.
         21    1    1    2  504  506  0.12415111115E+03 -0.59554260161E+02 -0.95924613370E+03  0.96907861050E+03  0.00000000000E+00 0.  1.
         21    1    1    2  505  502 -0.96988085743E+02  0.12249948503E+01 -0.67396857599E+02  0.11811234399E+03  0.00000000000E+00 0.  1.
         21    1    1    2  506  501 -0.42219799729E+02  0.88531000313E+02 -0.12863927276E+03  0.16176622639E+03  0.00000000000E+00 0.  1.
<scales pt_clust_3="33.74687" pt_clust_4="14000.00000" pt_clust_5="140.38990" pt_clust_6="94.00727"></scales>
<clustering>
<clus scale="   33.747">  2  3  1 -1</clus>
<clus scale="   94.007">  1  6  2 -1</clus>
<clus scale="  140.390">  1  5  2 -1</clus>
<clus scale="   94.007">  1  3  2 -1</clus>
</clustering>
</event>
<event>
 6    0  0.3042851E+002  0.9918640E+02  0.7546771E-02  0.1282016E+00
         21   -1    0    0  502  501  0.00000000000E+00  0.00000000000E+00  0.59017888428E+02  0.59017888428E+02  0.00000000000E+00 0.  1.
         21   -1    0    0  505  502 -0.00000000000E+00 -0.00000000000E+00 -0.20207413387E+04  0.20207413387E+04  0.00000000000E+00 0.  1.
         21    1    1    2  503  506 -0.21328818795E+02  0.89478325745E+02 -0.70093222873E+01  0.92251937043E+02  0.00000000000E+00 0.  1.
         21    1    1    2  504  503  0.60882073386E+02 -0.39634673952E+02 -0.45006540551E+03  0.45589078020E+03  0.00000000000E+00 0.  1.
         21    1    1    2  505  504 -0.84864431614E+01 -0.54512492044E+02 -0.14986107070E+04  0.14996258476E+04  0.00000000000E+00 0.  1.
         21    1    1    2  506  501 -0.31066811430E+02  0.46688402508E+01 -0.60380154045E+01  0.31990662259E+02  0.00000000000E+00 0.  1.
<scales pt_clust_3="14000.00000" pt_clust_4="99.18640" pt_clust_5="55.17203" pt_clust_6="31.41568"></scales>
<clustering>
<clus scale="   31.416">  1  6  2 -1</clus>
<clus scale="   55.172">  2  5  1 -1</clus>
<clus scale="   99.186">  2  4  1 -1</clus>
<clus scale="   31.416">  1  3  2 -1</clus>
</clustering>
</event>
<event>
 6    0  0.3042851E+002  0.1630821E+03  0.7546771E-02  0.1185260E+00
         21   -1    0    0  506  501  0.00000000000E+00  0.00000000000E+00  0.88873483036E+02  0.88873483036E+02  0.00000000000E+00 0. -1.
         21   -1    0    0  503  502 -0.00000000000E+00 -0.00000000000E+00 -0.21719601309E+04  0.21719601309E+04  0.00000000000E+00 0. -1.
         21    1    1    2  503  501  0.23439438171E+02  0.50572566589E+02 -0.46058663408E+03  0.46394723757E+03  0.00000000000E+00 0. -1.
         21    1    1    2  504  505  0.30294705637E+01  0.62131967669E+02  0.17115048416E+02  0.64517315355E+02  0.00000000000E+00 0. -1.
         21    1    1    2  505  502  0.19244635338E+02 -0.19642887883E+03 -0.16237091928E+04  0.16356607849E+04  0.00000000000E+00 0. -1.
         21    1    1    2  506  504 -0.45713544073E+02  0.83724344574E+02 -0.15905869372E+02  0.96708276101E+02  0.00000000000E+00 0. -1.
<scales pt_clust_3="55.74040" pt_clust_4="43.45882" pt_clust_5="153.94654" pt_clust_6="43.45882"></scales>
<clustering>
<clus scale="   43.459">  4  6 -1 -1</clus>
<clus scale="   55.740">  2  3  1 -1</clus>
<clus scale="  153.947">  2  5  1 -1</clus>
<clus scale="  163.082">  1  3  2 -1</clus>
</clustering>
</event>
<event>
 6    0  0.3042851E+002  0.1739620E+03  0.7546771E-02  0.1173778E+00
         21   -1    0    0  502  501  0.00000000000E+00  0.00000000000E+00  0.22267578876E+04  0.22267578876E+04  0.00000000000E+00 0.  1.
         21   -1    0    0  506  502 -0.00000000000E+00 -0.00000000000E+00 -0.92427077938E+02  0.92427077938E+02  0.00000000000E+00 0.  1.
         21    1    1    2  503  501  0.69067992116E+02  0.31891558626E+02  0.67941537482E+03  0.68366125427E+03  0.00000000000E+00 0. -1.
         21    1    1    2  504  505 -0.11548464699E+03 -0.36155623966E+02 -0.29764536727E+01  0.12104871793E+03  0.00000000000E+00 0.  1.
         21    1    1    2  505  503  0.70858228566E+02  0.51234658283E+02  0.14588980657E+04  0.14615161459E+04  0.00000000000E+00 0.  1.
         21    1    1    2  506  504 -0.24441573687E+02 -0.46970592943E+02 -0.10061771751E+01  0.52958847403E+02  0.00000000000E+00 0.  1.
<scales pt_clust_3="50.33733" pt_clust_4="40.63360" pt_clust_5="171.46926" pt_clust_6="40.63360"></scales>
<clustering>
<clus scale="   40.634">  4  6 -1 -1</clus>
<clus scale="   50.337">  3  5 -1 -1</clus>
<clus scale="  171.469">  1  3  2 -1</clus>
<clus scale="  171.469">  1  3  2 -1</clus>
</clustering>
</event>
<event>
 6    0  0.3042851E+002  0.1851542E+03  0.7546771E-02  0.1162906E+00
         21   -1    0    0  503  501  0.00000000000E+00  0.00000000000E+00  0.13347313346E+04  0.13347313346E+04  0.00000000000E+00 0.  1.
         21   -1    0    0  501  502 -0.00000000000E+00 -0.00000000000E+00 -0.10074072221E+04  0.10074072221E+04  0.00000000000E+00 0. -1.
         21    1    1    2  503  506  0.30897912151E+01 -0.94581364886E+02  0.78419907855E+03  0.78988820487E+03  0.00000000000E+00 0.  1.
         21    1    1    2  504  505  0.10352162876E+02  0.15783419163E+03 -0.93063096137E+03  0.94397711073E+03  0.00000000000E+00 0. -1.
         21    1    1    2  505  502 -0.33862172033E+02  0.22735130489E+02 -0.57066563814E+02  0.70143606685E+02  0.00000000000E+00 0. -1.
         21    1    1    2  506  504  0.20420217942E+02 -0.85987957232E+02  0.53082255913E+03  0.53812963436E+03  0.00000000000E+00 0.  1.
<scales pt_clust_3="33.35792" pt_clust_4="181.90818" pt_clust_5="40.78643" pt_clust_6="33.35792"></scales>
<clustering>
<clus scale="   33.358">  3  6 -1 -1</clus>
<clus scale="   40.786">  2  5  1 -1</clus>
<clus scale="  181.908">  2  4  1 -1</clus>
<clus scale="  185.154">  1  3  2 -1</clus>
</clustering>
</event>
<event>
 6    0  0.3042851E+002  0.7444724E+02  0.7546771E-02  0.1345591E+00
         21   -1    0    0  506  501  0.00000000000E+00  0.00000000000E+00  0.31033177486E+02  0.31033177486E+02  0.00000000000E+00 0.  1.
         21   -1    0    0  503  502 -0.00000000000E+00 -0.00000000000E+00 -0.20337998364E+04  0.20337998364E+04  0.00000000000E+00 0.  1.
         21    1    1    2  503  504 -0.55813170351E+02  0.42934840691E+02 -0.45963529871E+03  0.46499797672E+03  0.00000000000E+00 0.  1.
         21    1    1    2  504  505  0.79160661664E+02 -0.12796157542E+02 -0.20401456682E+03  0.21920788188E+03  0.00000000000E+00 0. -1.
         21    1    1    2  505  501 -0.44437580370E+02 -0.64734384449E+02 -0.54986917526E+02  0.95858229579E+02  0.00000000000E+00 0.  1.
         21    1    1    2  506  502  0.21090089057E+02  0.34595701300E+02 -0.12841298758E+04  0.12847689257E+04  0.00000000000E+00 0.  1.
<scales pt_clust_3="72.03822" pt_clust_4="14000.00000" pt_clust_5="74.44724" pt_clust_6="40.51733"></scales>
<clustering>
<clus scale="   40.517">  2  6  1 -1</clus>
<clus scale="   74.447">  1  5  2 -1</clus>
<clus scale="   72.038">  2  3  1 -1</clus>
<clus scale="   74.447">  1  3  2 -1</clus>
</clustering>
</event>
<event>
 6    0  0.3042851E+002  0.6935917E+02  0.7546771E-02  0.1362286E+00
         21   -1    0    0  504  501  0.00000000000E+00  0.00000000000E+00  0.88463888811E+02  0.88463888811E+02  0.00000000000E+00 0. -1.
         21   -1    0    0  503  502 -0.00000000000E+00 -0.00000000000E+00 -0.53172201613E+03  0.53172201613E+03  0.00000000000E+00 0.  1.
         21    1    1    2  503  505 -0.51206064648E+02 -0.10880902355E+02 -0.23018649258E+03  0.23606413633E+03  0.00000000000E+00 0. -1.
         21    1    1    2  504  502  0.18218934829E+02  0.76412271091E+02 -0.23753393371E+03  0.25018619950E+03  0.00000000000E+00 0.  1.
         21    1    1    2  505  506 -0.22195513713E+02 -0.64702131595E+02  0.36378097545E+02  0.77474980755E+02  0.00000000000E+00 0. -1.
         21    1    1    2  506  501  0.55182643532E+02 -0.82923714177E+00 -0.11915798571E+02  0.56460588351E+02  0.00000000000E+00 0. -1.
<scales pt_clust_3="52.34936" pt_clust_4="69.35917" pt_clust_5="14000.00000" pt_clust_6="49.36338"></scales>
<clustering>
<clus scale="   52.349">  2  3  1 -1</clus>
<clus scale="   49.363">  1  6  2 -1</clus>
<clus scale="   69.359">  2  4  1 -1</clus>
<clus scale="   49.363">  1  3  2 -1</clus>
</clustering>
</event>
<event>
 6    0  0.3042851E+002  0.9938887E+02  0.7546771E-02  0.1281586E+00
         21   -1    0    0  505  501  0.00000000000E+00  0.00000000000E+00  0.83104500789E+03  0.83104500789E+03  0.00000000000E+00 0.  1.
         21   -1    0    0  504  502 -0.00000000000E+00 -0.00000000000E+00 -0.10760711029E+04  0.10760711029E+04  0.00000000000E+00 0. -1.
         21    1    1    2  503  502 -0.42117777573E+02  0.28903474567E+02 -0.81774276455E+03  0.81933665059E+03  0.00000000000E+00 0. -1.
         21    1    1    2  504  506  0.76283706233E+02 -0.13024662516E+03  0.24489211002E+03  0.28767261383E+03  0.00000000000E+00 0. -1.
         21    1    1    2  505  503 -0.50817660901E+02  0.15603572759E+02 -0.22970572624E+03  0.23577664602E+03  0.00000000000E+00 0. -1.
         21    1    1    2  506  501  0.16651732241E+02  0.85739577831E+02  0.55753028580E+03  0.56433020031E+03  0.00000000000E+00 0.  1.
<scales pt_clust_3="51.08148" pt_clust_4="99.38887" pt_clust_5="14000.00000" pt_clust_6="87.61236"></scales>
<clustering>
<clus scale="   51.081">  2  3  1 -1</clus>
<clus scale="   87.612">  1  6  2 -1</clus>
<clus scale="   99.389">  1  4  2 -1</clus>
<clus scale="   87.612">  1  3  2 -1</clus>
</clustering>
</event>
<event>
 6    0  0.3042851E+002  0.2686921E+03  0.7546771E-02  0.1102031E+00
         21   -1    0    0  506  501  0.00000000000E+00  0.00000000000E+00  0.33306700483E+03  0.33306700483E+03  0.00000000000E+00 0.  1.
         21   -1    0    0  505  502 -0.00000000000E+00 -0.00000000000E+00 -0.97220198271E+03  0.97220198271E+03  0.00000000000E+00 0. -1.
         21    1    1    2  503  501 -0.21692936145E+03  0.64902473304E+01  0.57677095293E+02  0.22455983276E+03  0.00000000000E+00 0.  1.
         21    1    1    2  504  503  0.11155880923E+03  0.64918499326E+02 -0.38893451374E+03  0.40979242971E+03  0.00000000000E+00 0. -1.
         21    1    1    2  505  504  0.10873668939E+03  0.11101656922E+03 -0.42606973684E+03  0.45352372254E+03  0.00000000000E+00 0. -1.
         21    1    1    2  506  502 -0.33661371754E+01 -0.18242531587E+03  0.11819217740E+03  0.21739300253E+03  0.00000000000E+00 0.  1.
<scales pt_clust_3="265.69877" pt_clust_4="36.45025" pt_clust_5="36.45025" pt_clust_6="182.45637"></scales>
<clustering>
<clus scale="   36.450">  4  5 -1 -1</clus>
<clus scale="  182.456">  1  6  2 -1</clus>
<clus scale="  265.699">  1  3  2 -1</clus>
<clus scale="  182.456">  1  3  2 -1</clus>
</clustering>
</event>
<event>
 6    0  0.3042851E+002  0.1139568E+03  0.7546771E-02  0.1253413E+00
         21   -1    0    0  504  501  0.00000000000E+00  0.00000000000E+00  0.13361819859E+03  0.13361819859E+03  0.00000000000E+00 0. -1.
         21   -1    0    0  506  502 -0.00000000000E+00 -0.00000000000E+00 -0.15186430608E+03  0.15186430608E+03  0.00000000000E+00 0. -1.
         21    1    1    2  503  505  0.58819078213E+02  0.44238741409E+02 -0.29488029562E+02  0.79286153209E+02  0.00000000000E+00 0. -1.
         21    1    1    2  504  502 -0.18610943573E+02 -0.51879493043E+02  0.94836322814E+01  0.55926633193E+02  0.00000000000E+00 0. -1.
         21    1    1    2  505  501 -0.94868628997E+02  0.20930115955E+01  0.65650531705E+01  0.95118543873E+02  0.00000000000E+00 0. -1.
         21    1    1    2  506  503  0.54660494358E+02  0.55477400388E+01 -0.48067633851E+01  0.55151174396E+02  0.00000000000E+00 0. -1.
<scales pt_clust_3="33.91640" pt_clust_4="55.11669" pt_clust_5="106.98226" pt_clust_6="33.91640"></scales>
<clustering>
<clus scale="   33.916">  3  6 -1 -1</clus>
<clus scale="   55.117">  1  4  2 -1</clus>
<clus scale="  106.982">  1  5  2 -1</clus>
<clus scale="   55.117">  1  3  2 -1</clus>
</clustering>
</event>
<event>
 6    0  0.3042851E+002  0.2206443E+03  0.7546771E-02  0.1133404E+00
         21   -1    0    0  503  501  0.00000000000E+00  0.00000000000E+00  0.52585287401E+03  0.52585287401E+03  0.00000000000E+00 0.  1.
         21   -1    0    0  506  502 -0.00000000000E+00 -0.00000000000E+00 -0.10951550597E+04  0.10951550597E+04  0.00000000000E+00 0.  1.
         21    1    1    2  503  505 -0.18787430016E+01  0.47163416988E+02 -0.13043078018E+02  0.48969781105E+02  0.00000000000E+00 0.  1.
         21    1    1    2  504  501 -0.12145717888E+03  0.22898808471E+02  0.31176218736E+03  0.33536825014E+03  0.00000000000E+00 0.  1.
         21    1    1    2  505  502  0.17063149430E+03 -0.12553773039E+03 -0.10339529582E+04  0.10554305038E+04  0.00000000000E+00 0.  1.
         21    1    1    2  506  504 -0.47295572413E+02  0.55475504928E+02  0.16593166312E+03  0.18123939871E+03  0.00000000000E+00 0.  1.
<scales pt_clust_3="47.20082" pt_clust_4="51.24714" pt_clust_5="211.21527" pt_clust_6="51.24714"></scales>
<clustering>
<clus scale="   47.201">  1  3  2 -1</clus>
<clus scale="   51.247">  4  6 -1 -1</clus>
<clus scale="  211.215">  2  5  1 -1</clus>
<clus scale="   47.201">  1  3  2 -1</clus>
</clustering>
</event>
<event>
 6    0  0.3042851E+002  0.1092531E+03  0.7546771E-02  0.1261959E+00
         21   -1    0    0  503  501  0.00000000000E+00  0.00000000000E+00  0.27424526350E+03  0.27424526350E+03  0.00000000000E+00 0.  1.
         21   -1    0    0  506  502 -0.00000000000E+00 -0.00000000000E+00 -0.57430731370E+03  0.57430731370E+03  0.00000000000E+00 0.  1.
         21    1    1    2  503  505 -0.95141249288E+02 -0.10261779592E+03  0.20831988659E+03  0.25095705709E+03  0.00000000000E+00 0.  1.
         21    1    1    2  504  501 -0.76789716529E+00  0.45993822915E+02  0.13380930970E+02  0.47906896435E+02  0.00000000000E+00 0.  1.
         21    1    1    2  505  502  0.35374100099E+02  0.53837408469E+02 -0.45494826494E+03  0.45948636245E+03  0.00000000000E+00 0.  1.
         21    1    1    2  506  504  0.60535046355E+02  0.27865645360E+01 -0.66814602815E+02  0.90202261215E+02  0.00000000000E+00 0.  1.
<scales pt_clust_3="109.25307" pt_clust_4="46.00023" pt_clust_5="14000.00000" pt_clust_6="60.70399"></scales>
<clustering>
<clus scale="   46.000">  1  4  2 -1</clus>
<clus scale="   60.704">  2  6  1 -1</clus>
<clus scale="  109.253">  1  3  2 -1</clus>
<clus scale="   46.000">  1  3  2 -1</clus>
</clustering>
</event>
<event>
 6    0  0.3042851E+002  0.2411004E+03  0.7546771E-02  0.1119062E+00
         21   -1    0    0  505  501  0.00000000000E+00  0.00000000000E+00  0.18839059106E+03  0.18839059106E+03  0.00000000000E+00 0. -1.
         21   -1    0    0  501  502 -0.00000000000E+00 -0.00000000000E+00 -0.14957865969E+04  0.14957865969E+04  0.00000000000E+00 0.  1.
         21    1    1    2  503  506  0.14027129582E+01 -0.18224635221E+03 -0.62175397156E+03  0.64791488766E+03  0.00000000000E+00 0.  1.
         21    1    1    2  504  503  0.24358117040E+02  0.82006572403E+02  0.41967091628E+01  0.85650500003E+02  0.00000000000E+00 0.  1.
         21    1    1    2  505  504 -0.31743070181E+02  0.15242392316E+03  0.82696151886E+02  0.17629330218E+03  0.00000000000E+00 0. -1.
         21    1    1    2  506  502  0.59822401821E+01 -0.52184143350E+02 -0.77253489531E+03  0.77431849809E+03  0.00000000000E+00 0.  1.
<scales pt_clust_3="228.20476" pt_clust_4="57.37050" pt_clust_5="57.37050" pt_clust_6="52.52592"></scales>
<clustering>
<clus scale="   52.526">  2  6  1 -1</clus>
<clus scale="   57.370">  4  5 -1 -1</clus>
<clus scale="  228.205">  2  3  1 -1</clus>
<clus scale="  241.100">  1  3  2 -1</clus>
</clustering>
</event>
<event>
 6    0  0.3042851E+002  0.1214749E+03  0.7546771E-02  0.1240684E+00
         21   -1    0    0  506  501  0.00000000000E+00  0.00000000000E+00  0.31420718574E+03  0.31420718574E+03  0.00000000000E+00 0. -1.
         21   -1    0    0  503  502 -0.00000000000E+00 -0.00000000000E+00 -0.22535660329E+03  0.22535660329E+03  0.00000000000E+00 0. -1.
         21    1    1    2  503  501 -0.48245058308E+02  0.75754517837E+01  0.38201687825E+02  0.62002758596E+02  0.00000000000E+00 0. -1.
         21    1    1    2  504  502 -0.34946477745E+02 -0.66951534193E+02 -0.10053036645E+03  0.12573829495E+03  0.00000000000E+00 0. -1.
         21    1    1    2  505  504  0.12106552582E+03 -0.39517702581E+02 -0.39818640702E+02  0.13343175973E+03  0.00000000000E+00 0. -1.
         21    1    1    2  506  505 -0.37873989763E+02  0.98893784991E+02  0.19099790177E+03  0.21839097576E+03  0.00000000000E+00 0. -1.
<scales pt_clust_3="48.83619" pt_clust_4="76.30013" pt_clust_5="14000.00000" pt_clust_6="121.47493"></scales>
<clustering>
<clus scale="   48.836">  1  3  2 -1</clus>
<clus scale="   76.300">  2  4  1 -1</clus>
<clus scale="  121.475">  1  6  2 -1</clus>
<clus scale="   48.836">  1  3  2 -1</clus>
</clustering>
</event>
<event>
 6    0  0.3042851E+002  0.8683366E+02  0.7546771E-02  0.1310706E+00
         21   -1    0    0  504  501  0.00000000000E+00  0.00000000000E+00  0.21335177047E+03  0.21335177047E+03  0.00000000000E+00 0.  1.
         21   -1    0    0  505  502 -0.00000000000E+00 -0.00000000000E+00 -0.21649883815E+03  0.21649883815E+03  0.00000000000E+00 0.  1.
         21    1    1    2  503  501 -0.20999604837E+02  0.58477733235E+02  0.83670199100E+02  0.10421770917E+03  0.00000000000E+00 0.  1.
         21    1    1    2  504  502 -0.56959769095E+02 -0.64552432472E+02  0.46366369471E+02  0.97781757252E+02  0.00000000000E+00 0.  1.
         21    1    1    2  505  506  0.42118664974E+02  0.76496725632E+02 -0.11894776321E+03  0.14756117831E+03  0.00000000000E+00 0.  1.
         21    1    1    2  506  503  0.35840708957E+02 -0.70422026395E+02 -0.14235873040E+02  0.80289963889E+02  0.00000000000E+00 0.  1.
<scales pt_clust_3="62.13396" pt_clust_4="86.83366" pt_clust_5="14000.00000" pt_clust_6="62.00608"></scales>
<clustering>
<clus scale="   62.134">  1  3  2 -1</clus>
<clus scale="   62.006">  1  6  2 -1</clus>
<clus scale="   86.834">  1  4  2 -1</clus>
<clus scale="   62.134">  1  3  2 -1</clus>
</clustering>
</event>
<event>
 6    0  0.3042851E+002  0.1277462E+03  0.7546771E-02  0.1230839E+00
         21   -1    0    0  503  501  0.00000000000E+00  0.00000000000E+00  0.26151800359E+03  0.26151800359E+03  0.00000000000E+00 0. -1.
         21   -1    0    0  506  502 -0.00000000000E+00 -0.00000000000E+00 -0.19835898795E+03  0.19835898795E+03  0.00000000000E+00 0. -1.
         21    1    1    2  503  504  0.42453627097E+02  0.89723012381E+02 -0.13852820998E+03  0.17041887913E+03  0.00000000000E+00 0. -1.
         21    1    1    2  504  502 -0.12568330667E+02  0.29707172003E+02 -0.15817384887E+02  0.35925877426E+02  0.00000000000E+00 0.  1.
         21    1    1    2  505  501 -0.84392069316E+01 -0.45419416317E+02  0.12425702292E+03  0.13256678067E+03  0.00000000000E+00 0. -1.
         21    1    1    2  506  505 -0.21446089499E+02 -0.74010768067E+02  0.93247587594E+02  0.12096545431E+03  0.00000000000E+00 0.  1.
<scales pt_clust_3="120.43854" pt_clust_4="32.25646" pt_clust_5="33.17518" pt_clust_6="33.17518"></scales>
<clustering>
<clus scale="   32.256">  2  4  1 -1</clus>
<clus scale="   33.175">  5  6 -1 -1</clus>
<clus scale="  120.439">  2  3  1 -1</clus>
<clus scale="  127.746">  1  3  2 -1</clus>
</clustering>
</event>
<event>
 6    0  0.3042851E+002  0.1194765E+03  0.7546771E-02  0.1243963E+00
         21   -1    0    0  505  501  0.00000000000E+00  0.00000000000E+00  0.16875672868E+03  0.16875672868E+03  0.00000000000E+00 0. -1.
         21   -1    0    0  503  502 -0.00000000000E+00 -0.00000000000E+00 -0.45796115272E+03  0.45796115272E+03  0.00000000000E+00 0.  1.
         21    1    1    2  503  506 -0.82334462581E+02  0.36587263327E+02 -0.37131490323E+03  0.38208945147E+03  0.00000000000E+00 0.  1.
         21    1    1    2  504  502 -0.37008288352E+02  0.40208658019E+00 -0.43253538696E+02  0.56926651844E+02  0.00000000000E+00 0. -1.
         21    1    1    2  505  504  0.10165692995E+03 -0.93605920895E+01  0.11389443720E+03  0.15294997520E+03  0.00000000000E+00 0. -1.
         21    1    1    2  506  501  0.17685820987E+02 -0.27628757818E+02  0.11469580687E+02  0.34751802884E+02  0.00000000000E+00 0.  1.
<scales pt_clust_3="119.47653" pt_clust_4="36.18919" pt_clust_5="14000.00000" pt_clust_6="32.80452"></scales>
<clustering>
<clus scale="   32.805">  1  6  2 -1</clus>
<clus scale="   36.189">  2  4  1 -1</clus>
<clus scale="  119.477">  2  3  1 -1</clus>
<clus scale="   32.805">  1  3  2 -1</clus>
</clustering>
</event>
<event>
 6    0  0.3042851E+002  0.9841525E+02  0.7546771E-02  0.1283664E+00
         21   -1    0    0  505  501  0.00000000000E+00  0.00000000000E+00  0.89702561383E+02  0.89702561383E+02  0.00000000000E+00 0.  1.
         21   -1    0    0  504  502 -0.00000000000E+00 -0.00000000000E+00 -0.98932193598E+03  0.98932193598E+03  0.00000000000E+00 0. -1.
         21    1    1    2  503  502  0.53430318110E+02  0.86482556047E+02 -0.52348317523E+03  0.53326228645E+03  0.00000000000E+00 0. -1.
         21    1    1    2  504  501 -0.11280807823E+03 -0.24309426898E+02 -0.33013333567E+03  0.34972078873E+03  0.00000000000E+00 0.  1.
         21    1    1    2  505  506 -0.44502689625E+02 -0.68119048008E+02  0.21339901456E+01  0.81395626414E+02  0.00000000000E+00 0.  1.
         21    1    1    2  506  503  0.10388044975E+03  0.59459188587E+01 -0.48136853840E+02  0.11464579577E+03  0.00000000000E+00 0.  1.
<scales pt_clust_3="98.41525" pt_clust_4="14000.00000" pt_clust_5="81.36765" pt_clust_6="83.88490"></scales>
<clustering>
<clus scale="   81.368">  1  5  2 -1</clus>
<clus scale="   83.885">  1  6  2 -1</clus>
<clus scale="   98.415">  2  3  1 -1</clus>
<clus scale="   81.368">  1  3  2 -1</clus>
</clustering>
</event>
<event>
 6    0  0.3042851E+002  0.1220069E+03  0.7546771E-02  0.1239823E+00
         21   -1    0    0  502  501  0.00000000000E+00  0.00000000000E+00  0.23999884133E+03  0.23999884133E+03  0.00000000000E+00 0. -1.
         21   -1    0    0  503  502 -0.00000000000E+00 -0.00000000000E+00 -0.14605259104E+03  0.14605259104E+03  0.00000000000E+00 0. -1.
         21    1    1    2  503  505  0.62304035440E+02  0.74430410797E+02 -0.50478927431E+02  0.10940658572E+03  0.00000000000E+00 0. -1.
         21    1    1    2  504  506 -0.81340720477E+02 -0.12048237238E+02  0.89016045059E+02  0.12118303968E+03  0.00000000000E+00 0. -1.
         21    1    1    2  505  504 -0.53983862231E+02 -0.35205214329E+02  0.98271429768E+01  0.65193843547E+02  0.00000000000E+00 0. -1.
         21    1    1    2  506  501  0.73020547268E+02 -0.27176959230E+02  0.45581989685E+02  0.90267963420E+02  0.00000000000E+00 0. -1.
<scales pt_clust_3="102.29828" pt_clust_4="58.86332" pt_clust_5="58.86332" pt_clust_6="77.91397"></scales>
<clustering>
<clus scale="   58.863">  4  5 -1 -1</clus>
<clus scale="   77.914">  1  6  2 -1</clus>
<clus scale="  102.298">  2  3  1 -1</clus>
<clus scale="   77.914">  1  3  2 -1</clus>
</clustering>
</event>
<event>
 6    0  0.3042851E+002  0.3261732E+03  0.7546771E-02  0.1072843E+00
         21   -1    0    0  505  501  0.00000000000E+00  0.00000000000E+00  0.85855499559E+03  0.85855499559E+03  0.00000000000E+00 0. -1.
         21   -1    0    0  504  502 -0.00000000000E+00 -0.00000000000E+00 -0.22512797530E+03  0.22512797530E+03  0.00000000000E+00 0. -1.
         21    1    1    2  503  502 -0.96262000107E+02 -0.23081726018E+02  0.64541053567E+02  0.11817227397E+03  0.00000000000E+00 0.  1.
         21    1    1    2  504  506 -0.52758849604E+02 -0.11289124045E+02 -0.35610018148E+02  0.64645293144E+02  0.00000000000E+00 0. -1.
         21    1    1    2  505  503  0.26274700460E+03  0.20001178167E+03  0.61673018360E+03  0.69956902490E+03  0.00000000000E+00 0. -1.
         21    1    1    2  506  501 -0.11372615489E+03 -0.16564093161E+03 -0.12234198731E+02  0.20129637888E+03  0.00000000000E+00 0. -1.
<scales pt_clust_3="98.99060" pt_clust_4="50.27922" pt_clust_5="311.40734" pt_clust_6="50.27922"></scales>
<clustering>
<clus scale="   50.279">  4  6 -1 -1</clus>
<clus scale="   98.991">  2  3  1 -1</clus>
<clus scale="  311.407">  1  5  2 -1</clus>
<clus scale="  311.407">  1  3  2 -1</clus>
</clustering>
</event>
<event>
 6    0  0.3042851E+002  0.1971687E+03  0.7546771E-02  0.1152150E+00
         21   -1    0    0  505  501  0.00000000000E+00  0.00000000000E+00  0.98616837104E+03  0.98616837104E+03  0.00000000000E+00 0. -1.
         21   -1    0    0  506  502 -0.00000000000E+00 -0.00000000000E+00 -0.62597392843E+02  0.62597392843E+02  0.00000000000E+00 0. -1.
         21    1    1    2  503  501  0.23483054275E+02  0.37226980884E+02  0.13893773009E+03  0.14574290647E+03  0.00000000000E+00 0. -1.
         21    1    1    2  504  502  0.18355383872E+02 -0.15399127861E+03  0.10510361858E+03  0.18734194577E+03  0.00000000000E+00 0. -1.
         21    1    1    2  505  504 -0.32796066535E+02 -0.26193813293E+02  0.32774588634E+02  0.53252901284E+02  0.00000000000E+00 0. -1.
         21    1    1    2  506  503 -0.90423716120E+01  0.14295811102E+03  0.64675504089E+03  0.66242801036E+03  0.00000000000E+00 0. -1.
<scales pt_clust_3="31.12058" pt_clust_4="40.96460" pt_clust_5="40.96460" pt_clust_6="189.28048"></scales>
<clustering>
<clus scale="   31.121">  3  6 -1 -1</clus>
<clus scale="   40.965">  4  5 -1 -1</clus>
<clus scale="  189.280">  1  3  2 -1</clus>
<clus scale="  189.280">  1  3  2 -1</clus>
</clustering>
</event>
<event>
 6    0  0.3042851E+002  0.1386689E+03  0.7546771E-02  0.1215131E+00
         21   -1    0    0  504  501  0.00000000000E+00  0.00000000000E+00  0.74401352156E+03  0.74401352156E+03  0.00000000000E+00 0. -1.
         21   -1    0    0  501  502 -0.00000000000E+00 -0.00000000000E+00 -0.31925684826E+03  0.31925684826E+03  0.00000000000E+00 0. -1.
         21    1    1    2  503  505 -0.61397283819E+02  0.14845117666E+02  0.22769231096E+03  0.23629175282E+03  0.00000000000E+00 0.  1.
         21    1    1    2  504  503 -0.61255435207E+02 -0.28175042776E+02  0.49650785525E+03  0.50106497752E+03  0.00000000000E+00 0. -1.
         21    1    1    2  505  506  0.73106061448E+02 -0.34566116432E+01 -0.20882936291E+03  0.22128295731E+03  0.00000000000E+00 0. -1.
         21    1    1    2  506  502  0.49546657578E+02  0.16786536753E+02 -0.90614129999E+02  0.10463068216E+03  0.00000000000E+00 0.  1.
<scales pt_clust_3="61.27476" pt_clust_4="61.27476" pt_clust_5="128.65961" pt_clust_6="30.85495"></scales>
<clustering>
<clus scale="   30.855">  5  6 -1 -1</clus>
<clus scale="   61.275">  3  4 -1 -1</clus>
<clus scale="  128.660">  2  5  1 -1</clus>
<clus scale="  138.669">  1  3  2 -1</clus>
</clustering>
</event>
<event>
 6    0  0.3042851E+002  0.2134528E+03  0.7546771E-02  0.1138861E+00
         21   -1    0    0  506  501  0.00000000000E+00  0.00000000000E+00  0.80863128585E+03  0.80863128585E+03  0.00000000000E+00 0. -1.
         21   -1    0    0  504  502 -0.00000000000E+00 -0.00000000000E+00 -0.24836547702E+03  0.24836547702E+03  0.00000000000E+00 0.  1.
         21    1    1    2  503  505  0.98948307070E+02  0.15189715679E+03  0.44279773555E+03  0.47846979876E+03  0.00000000000E+00 0. -1.
         21    1    1    2  504  503 -0.85541760175E+01 -0.85941552879E+02  0.12684604841E+02  0.87292746769E+02  0.00000000000E+00 0. -1.
         21    1    1    2  505  501  0.83494797523E+02 -0.70400732761E+01  0.24582629463E+03  0.25971428720E+03  0.00000000000E+00 0. -1.
         21    1    1    2  506  502 -0.17388892858E+03 -0.58915530636E+02 -0.14104282619E+03  0.23151993014E+03  0.00000000000E+00 0.  1.
<scales pt_clust_3="213.45278" pt_clust_4="86.58098" pt_clust_5="83.79107" pt_clust_6="14000.00000"></scales>
<clustering>
<clus scale="   83.791">  1  5  2 -1</clus>
<clus scale="   86.581">  2  4  1 -1</clus>
<clus scale="  213.453">  1  3  2 -1</clus>
<clus scale="   83.791">  1  3  2 -1</clus>
</clustering>
</event>
<event>
 6    0  0.3042851E+002  0.3402607E+03  0.7546771E-02  0.1066685E+00
         21   -1    0    0  506  501  0.00000000000E+00  0.00000000000E+00  0.27471419212E+03  0.27471419212E+03  0.00000000000E+00 0. -1.
         21   -1    0    0  505  502 -0.00000000000E+00 -0.00000000000E+00 -0.17200075747E+04  0.17200075747E+04  0.00000000000E+00 0. -1.
         21    1    1    2  503  504 -0.14945760586E+03 -0.18106914346E+03  0.46429496321E+02  0.23933096079E+03  0.00000000000E+00 0. -1.
         21    1    1    2  504  502  0.16267034843E+02  0.30244390523E+03 -0.37699269107E+03  0.48359117171E+03  0.00000000000E+00 0. -1.
         21    1    1    2  505  501  0.26708576046E+03 -0.91916929737E+02 -0.10979243526E+04  0.11336760602E+04  0.00000000000E+00 0. -1.
         21    1    1    2  506  503 -0.13389518944E+03 -0.29457832032E+02 -0.16805835184E+02  0.13812357409E+03  0.00000000000E+00 0. -1.
<scales pt_clust_3="99.58627" pt_clust_4="314.31416" pt_clust_5="282.45978" pt_clust_6="99.58627"></scales>
<clustering>
<clus scale="   99.586">  3  6 -1 -1</clus>
<clus scale="  282.460">  2  5  1 -1</clus>
<clus scale="  314.314">  2  4  1 -1</clus>
<clus scale="  340.261">  1  3  2 -1</clus>
</clustering>
</event>
<event>
 6    0  0.3042851E+002  0.6262864E+02  0.7546771E-02  0.1387120E+00
         21   -1    0    0  506  501  0.00000000000E+00  0.00000000000E+00  0.96242990682E+02  0.96242990682E+02  0.00000000000E+00 0.  1.
         21   -1    0    0  504  502 -0.00000000000E+00 -0.00000000000E+00 -0.17588109674E+03  0.17588109674E+03  0.00000000000E+00 0.  1.
         21    1    1    2  503  505 -0.81960855917E+02 -0.47482674360E+02 -0.36600437166E+02  0.10154692643E+03  0.00000000000E+00 0.  1.
         21    1    1    2  504  503  0.38906569585E+02  0.32675485005E+02 -0.40268780318E+02  0.64830418366E+02  0.00000000000E+00 0.  1.
         21    1    1    2  505  501  0.15604884200E+02  0.54443421589E+02  0.52221805338E+01  0.56875915243E+02  0.00000000000E+00 0.  1.
         21    1    1    2  506  502  0.27449402132E+02 -0.39636232234E+02 -0.79910691048E+01  0.48870827377E+02  0.00000000000E+00 0.  1.
<scales pt_clust_3="62.62864" pt_clust_4="14000.00000" pt_clust_5="46.69802" pt_clust_6="48.21307"></scales>
<clustering>
<clus scale="   48.213">  1  6  2 -1</clus>
<clus scale="   46.698">  1  5  2 -1</clus>
<clus scale="   62.629">  1  3  2 -1</clus>
<clus scale="   48.213">  1  3  2 -1</clus>
</clustering>
</event>
<event>
 6    0  0.3042851E+002  0.1319948E+03  0.7546771E-02  0.1224525E+00
         21   -1    0    0  504  501  0.00000000000E+00  0.00000000000E+00  0.15988414354E+03  0.15988414354E+03  0.00000000000E+00 0.  1.
         21   -1    0    0  503  502 -0.00000000000E+00 -0.00000000000E+00 -0.46508790920E+03  0.46508790920E+03  0.00000000000E+00 0.  1.
         21    1    1    2  503  505 -0.10050828568E+03 -0.68567636543E+02 -0.32992771844E+03  0.35164717497E+03  0.00000000000E+00 0.  1.
         21    1    1    2  504  506  0.46657815875E+02  0.72939782602E+02  0.34621677395E+02  0.93251403282E+02  0.00000000000E+00 0.  1.
         21    1    1    2  505  501 -0.28389380820E+02 -0.61646774456E+02 -0.35560421493E+02  0.76621311141E+02  0.00000000000E+00 0.  1.
         21    1    1    2  506  502  0.82239850629E+02  0.57274628396E+02  0.25662696875E+02  0.10345216334E+03  0.00000000000E+00 0.  1.
<scales pt_clust_3="126.23368" pt_clust_4="35.85136" pt_clust_5="67.86959" pt_clust_6="35.85136"></scales>
<clustering>
<clus scale="   35.851">  4  6 -1 -1</clus>
<clus scale="   67.870">  1  5  2 -1</clus>
<clus scale="  126.234">  2  3  1 -1</clus>
<clus scale="   67.870">  1  3  2 -1</clus>
</clustering>
</event>
<event>
 6    0  0.3042851E+002  0.1949393E+03  0.7546771E-02  0.1154080E+00
         21   -1    0    0  503  501  0.00000000000E+00  0.00000000000E+00  0.76421871445E+02  0.76421871445E+02  0.00000000000E+00 0. -1.
         21   -1    0    0  504  502 -0.00000000000E+00 -0.00000000000E+00 -0.11382893166E+04  0.11382893166E+04  0.00000000000E+00 0.  1.
         21    1    1    2  503  506  0.16302580879E+02  0.31345675278E+02 -0.40032651325E+02  0.53394182025E+02  0.00000000000E+00 0.  1.
         21    1    1    2  504  501 -0.20127016601E+03 -0.77508356943E+01 -0.11050842202E+03  0.22974304455E+03  0.00000000000E+00 0. -1.
         21    1    1    2  505  502  0.83911081829E+02 -0.28862229319E+02 -0.51153640594E+03  0.51917587823E+03  0.00000000000E+00 0.  1.
         21    1    1    2  506  505  0.10105650330E+03  0.52673897354E+01 -0.39978996585E+03  0.41239808323E+03  0.00000000000E+00 0.  1.
<scales pt_clust_3="35.33165" pt_clust_4="188.29967" pt_clust_5="46.93582" pt_clust_6="46.93582"></scales>
<clustering>
<clus scale="   35.332">  1  3  2 -1</clus>
<clus scale="   46.936">  5  6 -1 -1</clus>
<clus scale="  188.300">  1  4  2 -1</clus>
<clus scale="   35.332">  1  3  2 -1</clus>
</clustering>
</event>
<event>
 6    0  0.3042851E+002  0.8518039E+02  0.7546771E-02  0.1314961E+00
         21   -1    0    0  504  501  0.00000000000E+00  0.00000000000E+00  0.27785340217E+04  0.27785340217E+04  0.00000000000E+00 0.  1.
         21   -1    0    0  505  502 -0.00000000000E+00 -0.00000000000E+00 -0.13624071170E+02  0.13624071170E+02  0.00000000000E+00 0.  1.
         21    1    1    2  503  501  0.42083271324E+02 -0.40370615629E+02  0.53789702138E+03  0.54104897555E+03  0.00000000000E+00 0.  1.
         21    1    1    2  504  502 -0.12676119177E+03 -0.17175387787E+01  0.19373255635E+04  0.19414689512E+04  0.00000000000E+00 0.  1.
         21    1    1    2  505  506  0.39621851312E+02  0.24441424865E+02  0.21954313001E+03  0.22442473189E+03  0.00000000000E+00 0.  1.
         21    1    1    2  506  503  0.45056069131E+02  0.17646729543E+02  0.70144235656E+02  0.85215434194E+02  0.00000000000E+00 0.  1.
<scales pt_clust_3="60.29661" pt_clust_4="14000.00000" pt_clust_5="46.55399" pt_clust_6="85.18039"></scales>
<clustering>
<clus scale="   46.554">  2  5  1 -1</clus>
<clus scale="   60.297">  1  3  2 -1</clus>
<clus scale="   85.180">  2  6  1 -1</clus>
<clus scale="   60.297">  1  3  2 -1</clus>
</clustering>
</event>
<event>
 6    0  0.3042851E+002  0.9482832E+02  0.7546771E-02  0.1291563E+00
         21   -1    0    0  505  501  0.00000000000E+00  0.00000000000E+00  0.59986344089E+03  0.59986344089E+03  0.00000000000E+00 0. -1.
         21   -1    0    0  503  502 -0.00000000000E+00 -0.00000000000E+00 -0.20971556043E+03  0.20971556043E+03  0.00000000000E+00 0.  1.
         21    1    1    2  503  501 -0.16727310069E+02  0.26849580232E+02 -0.25144615217E+02  0.40409832160E+02  0.00000000000E+00 0.  1.
         21    1    1    2  504  506 -0.18448359485E+01 -0.10886691876E+03  0.93623272780E+02  0.14359918742E+03  0.00000000000E+00 0. -1.
         21    1    1    2  505  504  0.54492232950E+02  0.77935198918E+02  0.46660330056E+03  0.47619527378E+03  0.00000000000E+00 0. -1.
         21    1    1    2  506  502 -0.35920086932E+02  0.40821396144E+01 -0.14493407767E+03  0.14937470796E+03  0.00000000000E+00 0.  1.
<scales pt_clust_3="31.63389" pt_clust_4="94.82832" pt_clust_5="14000.00000" pt_clust_6="56.39858"></scales>
<clustering>
<clus scale="   31.634">  2  3  1 -1</clus>
<clus scale="   56.399">  2  6  1 -1</clus>
<clus scale="   94.828">  2  4  1 -1</clus>
<clus scale="   94.828">  1  3  2 -1</clus>
</clustering>
</event>
<event>
 6    0  0.3042851E+002  0.8498995E+02  0.7546771E-02  0.1315459E+00
         21   -1    0    0  503  501  0.00000000000E+00  0.00000000000E+00  0.24413147324E+03  0.24413147324E+03  0.00000000000E+00 0.  1.
         21   -1    0    0  504  502 -0.00000000000E+00 -0.00000000000E+00 -0.38460034205E+03  0.38460034205E+03  0.00000000000E+00 0. -1.
         21    1    1    2  503  505  0.17165693463E+02 -0.56165237985E+02  0.17796912748E+03  0.18740919222E+03  0.00000000000E+00 0.  1.
         21    1    1    2  504  506 -0.65634590088E+02  0.28044594743E+02 -0.17976267442E+02  0.73603973408E+02  0.00000000000E+00 0. -1.
         21    1    1    2  505  502  0.91642071142E+02  0.61004903952E+02 -0.29292205233E+03  0.31292682251E+03  0.00000000000E+00 0. -1.
         21    1    1    2  506  501 -0.43173174517E+02 -0.32884260710E+02 -0.75396765287E+01  0.54791827151E+02  0.00000000000E+00 0. -1.
<scales pt_clust_3="84.98995" pt_clust_4="74.98975" pt_clust_5="14000.00000" pt_clust_6="54.27060"></scales>
<clustering>
<clus scale="   54.271">  1  6  2 -1</clus>
<clus scale="   74.990">  2  4  1 -1</clus>
<clus scale="   84.990">  1  3  2 -1</clus>
<clus scale="   54.271">  1  3  2 -1</clus>
</clustering>
</event>
<event>
 6    0  0.3042851E+002  0.1774859E+03  0.7546771E-02  0.1170259E+00
         21   -1    0    0  505  501  0.00000000000E+00  0.00000000000E+00  0.91910309666E+03  0.91910309666E+03  0.00000000000E+00 0.  1.
         21   -1    0    0  504  502 -0.00000000000E+00 -0.00000000000E+00 -0.37068373727E+03  0.37068373727E+03  0.00000000000E+00 0. -1.
         21    1    1    2  503  501 -0.50393514561E+02 -0.15676641984E+03 -0.42899949295E+02  0.17016351651E+03  0.00000000000E+00 0. -1.
         21    1    1    2  504  503 -0.64829476311E+02  0.15512685165E+02 -0.22146051287E+03  0.23127529734E+03  0.00000000000E+00 0. -1.
         21    1    1    2  505  506  0.10745108490E+03 -0.81930054064E+02  0.29638076452E+03  0.32572968391E+03  0.00000000000E+00 0.  1.
         21    1    1    2  506  502  0.77719059713E+01  0.22318378874E+03  0.51639905703E+03  0.56261833616E+03  0.00000000000E+00 0.  1.
<scales pt_clust_3="14000.00000" pt_clust_4="66.65962" pt_clust_5="128.95386" pt_clust_6="177.48591"></scales>
<clustering>
<clus scale="   66.660">  2  4  1 -1</clus>
<clus scale="  128.954">  1  5  2 -1</clus>
<clus scale="  177.486">  1  6  2 -1</clus>
<clus scale="  128.954">  1  3  2 -1</clus>
</clustering>
</event>
<event>
 6    0  0.3042851E+002  0.1024043E+03  0.7546771E-02  0.1275320E+00
         21   -1    0    0  504  501  0.00000000000E+00  0.00000000000E+00  0.65611965709E+03  0.65611965709E+03  0.00000000000E+00 0.  1.
         21   -1    0    0  505  502 -0.00000000000E+00 -0.00000000000E+00 -0.35023390999E+03  0.35023390999E+03  0.00000000000E+00 0.  1.
         21    1    1    2  503  502 -0.40920126470E+02 -0.12851551263E+03  0.48977496574E+03  0.50800611296E+03  0.00000000000E+00 0.  1.
         21    1    1    2  504  503  0.41157456147E+02  0.24234201577E+02  0.14186923093E+03  0.14969339132E+03  0.00000000000E+00 0.  1.
         21    1    1    2  505  506  0.32980610298E+02  0.43488785372E+02 -0.15766124247E+03  0.16684142917E+03  0.00000000000E+00 0.  1.
         21    1    1    2  506  501 -0.33217939975E+02  0.60792525681E+02 -0.16809720709E+03  0.18181263363E+03  0.00000000000E+00 0.  1.
<scales pt_clust_3="102.40427" pt_clust_4="47.76225" pt_clust_5="54.97777" pt_clust_6="14000.00000"></scales>
<clustering>
<clus scale="   47.762">  1  4  2 -1</clus>
<clus scale="   54.978">  2  5  1 -1</clus>
<clus scale="  102.404">  1  3  2 -1</clus>
<clus scale="   47.762">  1  3  2 -1</clus>
</clustering>
</event>
<event>
 6    0  0.3042851E+002  0.2230639E+03  0.7546771E-02  0.1131619E+00
         21   -1    0    0  505  501  0.00000000000E+00  0.00000000000E+00  0.17308368235E+03  0.17308368235E+03  0.00000000000E+00 0. -1.
         21   -1    0    0  506  502 -0.00000000000E+00 -0.00000000000E+00 -0.15940539908E+04  0.15940539908E+04  0.00000000000E+00 0. -1.
         21    1    1    2  503  501  0.19237502038E+03  0.12296977198E+03  0.47742907088E+02  0.23325757965E+03  0.00000000000E+00 0. -1.
         21    1    1    2  504  503 -0.10558769620E+03 -0.15292240114E+03 -0.88421388134E+03  0.90353096810E+03  0.00000000000E+00 0. -1.
         21    1    1    2  505  502 -0.11332908453E+03  0.49627793129E+02 -0.14930744742E+03  0.19390490739E+03  0.00000000000E+00 0. -1.
         21    1    1    2  506  504  0.26541760354E+02 -0.19675163968E+02 -0.43519188674E+03  0.43644421798E+03  0.00000000000E+00 0. -1.
<scales pt_clust_3="223.06390" pt_clust_4="14000.00000" pt_clust_5="118.95249" pt_clust_6="33.03902"></scales>
<clustering>
<clus scale="   33.039">  2  6  1 -1</clus>
<clus scale="  118.952">  2  5  1 -1</clus>
<clus scale="  223.064">  1  3  2 -1</clus>
<clus scale="  223.064">  1  3  2 -1</clus>
</clustering>
</event>
<event>
 6    0  0.3042851E+002  0.2750893E+03  0.7546771E-02  0.1098402E+00
         21   -1    0    0  504  501  0.00000000000E+00  0.00000000000E+00  0.58160469480E+03  0.58160469480E+03  0.00000000000E+00 0. -1.
         21   -1    0    0  503  502 -0.00000000000E+00 -0.00000000000E+00 -0.14764592499E+04  0.14764592499E+04  0.00000000000E+00 0. -1.
         21    1    1    2  503  505 -0.33511205206E+02  0.12113945086E+01 -0.25297855750E+02  0.42005355094E+02  0.00000000000E+00 0. -1.
         21    1    1    2  504  506  0.23717315178E+03 -0.13636883890E+03  0.48660711234E+03  0.55824192419E+03  0.00000000000E+00 0. -1.
         21    1    1    2  505  501  0.37884623147E+02 -0.10529915841E+03 -0.81675953721E+02  0.13854284120E+03  0.00000000000E+00 0. -1.
         21    1    1    2  506  502 -0.24154656972E+03  0.24045660280E+03 -0.12744878580E+04  0.13192738242E+04  0.00000000000E+00 0. -1.
<scales pt_clust_3="33.53309" pt_clust_4="275.08931" pt_clust_5="110.97955" pt_clust_6="14000.00000"></scales>
<clustering>
<clus scale="   33.533">  2  3  1 -1</clus>
<clus scale="  110.980">  2  5  1 -1</clus>
<clus scale="  275.089">  1  4  2 -1</clus>
<clus scale="  275.089">  1  3  2 -1</clus>
</clustering>
</event>
<event>
 6    0  0.3042851E+002  0.1742333E+03  0.7546771E-02  0.1173504E+00
         21   -1    0    0  504  501  0.00000000000E+00  0.00000000000E+00  0.31990030916E+03  0.31990030916E+03  0.00000000000E+00 0. -1.
         21   -1    0    0  506  502 -0.00000000000E+00 -0.00000000000E+00 -0.74267160256E+03  0.74267160256E+03  0.00000000000E+00 0. -1.
         21    1    1    2  503  501  0.94056914573E+02 -0.11049355133E+02  0.21887982943E+03  0.23848935230E+03  0.00000000000E+00 0. -1.
         21    1    1    2  504  502 -0.39646659037E+02 -0.43736879800E+01 -0.44305470865E+02  0.59615111071E+02  0.00000000000E+00 0. -1.
         21    1    1    2  505  503  0.65453810608E+02  0.22363051171E+02  0.62840819105E+02  0.93451997981E+02  0.00000000000E+00 0. -1.
         21    1    1    2  506  505 -0.11986406614E+03 -0.69400080581E+01 -0.66018647107E+03  0.67101545038E+03  0.00000000000E+00 0. -1.
<scales pt_clust_3="61.69717" pt_clust_4="39.88717" pt_clust_5="61.69717" pt_clust_6="158.46249"></scales>
<clustering>
<clus scale="   39.887">  2  4  1 -1</clus>
<clus scale="   61.697">  3  5 -1 -1</clus>
<clus scale="  158.462">  2  6  1 -1</clus>
<clus scale="  174.233">  1  3  2 -1</clus>
</clustering>
</event>
<event>
 6    0  0.3042851E+002  0.1043679E+03  0.7546771E-02  0.1271370E+00
         21   -1    0    0  505  501  0.00000000000E+00  0.00000000000E+00  0.23345024321E+02  0.23345024321E+02  0.00000000000E+00 0. -1.
         21   -1    0    0  503  502 -0.00000000000E+00 -0.00000000000E+00 -0.16572296964E+04  0.16572296964E+04  0.00000000000E+00 0. -1.
         21    1    1    2  503  501 -0.20816095442E+02  0.99513005947E+02 -0.32963858625E+03  0.34496049879E+03  0.00000000000E+00 0. -1.
         21    1    1    2  504  506 -0.38137085873E+02 -0.39397071310E+02 -0.75162062467E+03  0.75361802657E+03  0.00000000000E+00 0. -1.
         21    1    1    2  505  504  0.71027170244E+02 -0.96107980447E+01 -0.83660117487E+02  0.11016461142E+03  0.00000000000E+00 0. -1.
         21    1    1    2  506  502 -0.12073988929E+02 -0.50505136592E+02 -0.46896534367E+03  0.47183158393E+03  0.00000000000E+00 0. -1.
<scales pt_clust_3="97.97741" pt_clust_4="34.99432" pt_clust_5="71.67445" pt_clust_6="34.99432"></scales>
<clustering>
<clus scale="   34.994">  4  6 -1 -1</clus>
<clus scale="   71.674">  1  5  2 -1</clus>
<clus scale="   97.977">  1  3  2 -1</clus>
<clus scale="   71.674">  1  3  2 -1</clus>
</clustering>
</event>
<event>
 6    0  0.3042851E+002  0.6413247E+02  0.7546771E-02  0.1381265E+00
         21   -1    0    0  503  501  0.00000000000E+00  0.00000000000E+00  0.26336820650E+03  0.26336820650E+03  0.00000000000E+00 0.  1.
         21   -1    0    0  505  502 -0.00000000000E+00 -0.00000000000E+00 -0.76431049800E+02  0.76431049800E+02  0.00000000000E+00 0.  1.
         21    1    1    2  503  504  0.62425743509E+02  0.19186218038E+02  0.12089981769E+03  0.13741124529E+03  0.00000000000E+00 0.  1.
         21    1    1    2  504  502  0.39348624473E+02  0.17008805040E+02  0.18297922409E+02  0.46609308741E+02  0.00000000000E+00 0.  1.
         21    1    1    2  505  506 -0.63393645862E+02  0.28085354267E+02  0.48709618375E+01  0.69507321407E+02  0.00000000000E+00 0.  1.
         21    1    1    2  506  501 -0.38380722120E+02 -0.64280377344E+02  0.42868454767E+02  0.86271380864E+02  0.00000000000E+00 0.  1.
<scales pt_clust_3="64.13247" pt_clust_4="42.86740" pt_clust_5="56.65002" pt_clust_6="14000.00000"></scales>
<clustering>
<clus scale="   42.867">  2  4  1 -1</clus>
<clus scale="   56.650">  2  5  1 -1</clus>
<clus scale="   64.132">  1  3  2 -1</clus>
<clus scale="   64.132">  1  3  2 -1</clus>
</clustering>
</event>
<event>
 6    0  0.3042851E+002  0.1318032E+03  0.7546771E-02  0.1224804E+00
         21   -1    0    0  504  501  0.00000000000E+00  0.00000000000E+00  0.95011735406E+03  0.95011735406E+03  0.00000000000E+00 0. -1.
         21   -1    0    0  505  502 -0.00000000000E+00 -0.00000000000E+00 -0.54357388956E+02  0.54357388956E+02  0.00000000000E+00 0.  1.
         21    1    1    2  503  501  0.33185066695E+02 -0.22930477367E+01  0.12085059042E+03  0.12534501156E+03  0.00000000000E+00 0.  1.
         21    1    1    2  504  506  0.48930683742E+02 -0.71492700789E+02  0.59209865060E+03  0.59840306660E+03  0.00000000000E+00 0. -1.
         21    1    1    2  505  503 -0.54722255955E+01 -0.43450926707E+02  0.11901305879E+03  0.12681496933E+03  0.00000000000E+00 0.  1.
         21    1    1    2  506  502 -0.76643524841E+02  0.11723667523E+03  0.63797665299E+02  0.15391169552E+03  0.00000000000E+00 0.  1.
<scales pt_clust_3="33.26420" pt_clust_4="131.80324" pt_clust_5="43.79506" pt_clust_6="14000.00000"></scales>
<clustering>
<clus scale="   33.264">  1  3  2 -1</clus>
<clus scale="   43.795">  1  5  2 -1</clus>
<clus scale="  131.803">  1  4  2 -1</clus>
<clus scale="   33.264">  1  3  2 -1</clus>
</clustering>
</event>
<event>
 6    0  0.3042851E+002  0.1837408E+03  0.7546771E-02  0.1164231E+00
         21   -1    0    0  504  501  0.00000000000E+00  0.00000000000E+00  0.35689937235E+03  0.35689937235E+03  0.00000000000E+00 0.  1.
         21   -1    0    0  505  502 -0.00000000000E+00 -0.00000000000E+00 -0.17272223650E+03  0.17272223650E+03  0.00000000000E+00 0.  1.
         21    1    1    2  503  501 -0.99562658374E+02  0.35541212458E+02  0.91827468935E+02  0.14002922829E+03  0.00000000000E+00 0.  1.
         21    1    1    2  504  506  0.98888765504E+02  0.72074646497E+02  0.23838333490E+02  0.12466759304E+03  0.00000000000E+00 0.  1.
         21    1    1    2  505  503 -0.38370345917E+02 -0.17301183869E+03  0.30570377092E+02  0.17983305516E+03  0.00000000000E+00 0.  1.
         21    1    1    2  506  502  0.39044238788E+02  0.65395979732E+02  0.37940956330E+02  0.85091732353E+02  0.00000000000E+00 0.  1.
<scales pt_clust_3="105.71613" pt_clust_4="37.49429" pt_clust_5="177.48827" pt_clust_6="37.49429"></scales>
<clustering>
<clus scale="   37.494">  4  6 -1 -1</clus>
<clus scale="  105.716">  1  3  2 -1</clus>
<clus scale="  177.488">  2  5  1 -1</clus>
<clus scale="  105.716">  1  3  2 -1</clus>
</clustering>
</event>
<event>
 6    0  0.3042851E+002  0.1587332E+03  0.7546771E-02  0.1190134E+00
         21   -1    0    0  504  501  0.00000000000E+00  0.00000000000E+00  0.29807100133E+02  0.29807100133E+02  0.00000000000E+00 0. -1.
         21   -1    0    0  506  502 -0.00000000000E+00 -0.00000000000E+00 -0.33351593027E+04  0.33351593027E+04  0.00000000000E+00 0.  1.
         21    1    1    2  503  505 -0.32084823672E+02  0.80250826856E+02 -0.11661489084E+03  0.14515048703E+03  0.00000000000E+00 0. -1.
         21    1    1    2  504  503  0.70778701000E+01  0.71715505806E+02 -0.93904570339E+02  0.11836924579E+03  0.00000000000E+00 0. -1.
         21    1    1    2  505  502  0.61264906363E+02 -0.14864292313E+03 -0.27503645819E+04  0.27550596074E+04  0.00000000000E+00 0.  1.
         21    1    1    2  506  501 -0.36257952790E+02 -0.33234095298E+01 -0.34446815958E+03  0.34638706263E+03  0.00000000000E+00 0. -1.
<scales pt_clust_3="34.22840" pt_clust_4="34.22840" pt_clust_5="154.24374" pt_clust_6="36.40995"></scales>
<clustering>
<clus scale="   34.228">  3  4 -1 -1</clus>
<clus scale="   36.410">  2  6  1 -1</clus>
<clus scale="  154.244">  2  5  1 -1</clus>
<clus scale="  158.733">  1  3  2 -1</clus>
</clustering>
</event>
<event>
 6    0  0.3042851E+002  0.1354900E+03  0.7546771E-02  0.1219530E+00
         21   -1    0    0  503  501  0.00000000000E+00  0.00000000000E+00  0.40347959792E+02  0.40347959792E+02  0.00000000000E+00 0. -1.
         21   -1    0    0  504  502 -0.00000000000E+00 -0.00000000000E+00 -0.11947845702E+04  0.11947845702E+04  0.00000000000E+00 0. -1.
         21    1    1    2  503  502 -0.29138107491E+02 -0.41732190348E+02 -0.19701835827E+03  0.20348670354E+03  0.00000000000E+00 0. -1.
         21    1    1    2  504  505  0.33440501032E+02 -0.90187902741E+02 -0.84741279851E+03  0.85285436974E+03  0.00000000000E+00 0. -1.
         21    1    1    2  505  506 -0.12741863634E+02  0.34857828852E+02 -0.56608191955E+02  0.67689812509E+02  0.00000000000E+00 0.  1.
         21    1    1    2  506  501  0.84394700929E+01  0.97062264238E+02 -0.53397261700E+02  0.11110164423E+03  0.00000000000E+00 0. -1.
<scales pt_clust_3="50.89799" pt_clust_4="126.14982" pt_clust_5="30.51079" pt_clust_6="30.51079"></scales>
<clustering>
<clus scale="   30.511">  5  6 -1 -1</clus>
<clus scale="   50.898">  2  3  1 -1</clus>
<clus scale="  126.150">  2  4  1 -1</clus>
<clus scale="  135.490">  1  3  2 -1</clus>
</clustering>
</event>
<event>
 6    0  0.3042851E+002  0.1722998E+03  0.7546771E-02  0.1175471E+00
         21   -1    0    0  505  501  0.00000000000E+00  0.00000000000E+00  0.10558419950E+03  0.10558419950E+03  0.00000000000E+00 0.  1.
         21   -1    0    0  503  502 -0.00000000000E+00 -0.00000000000E+00 -0.40583429154E+03  0.40583429154E+03  0.00000000000E+00 0.  1.
         21    1    1    2  503  504 -0.46572547733E+02 -0.12859733172E+03 -0.55844522163E+02  0.14773248317E+03  0.00000000000E+00 0.  1.
         21    1    1    2  504  501 -0.16174093996E+02 -0.28464798891E+02  0.22475241063E+02  0.39711239635E+02  0.00000000000E+00 0.  1.
         21    1    1    2  505  506  0.68267220164E+02  0.98625848551E+02 -0.14124719493E+03  0.18530580516E+03  0.00000000000E+00 0.  1.
         21    1    1    2  506  502 -0.55205784353E+01  0.58436282064E+02 -0.12563361602E+03  0.13866896308E+03  0.00000000000E+00 0.  1.
<scales pt_clust_3="156.71182" pt_clust_4="32.73906" pt_clust_5="51.19624" pt_clust_6="51.19624"></scales>
<clustering>
<clus scale="   32.739">  1  4  2 -1</clus>
<clus scale="   51.196">  5  6 -1 -1</clus>
<clus scale="  156.712">  1  3  2 -1</clus>
<clus scale="   32.739">  1  3  2 -1</clus>
</clustering>
</event>
<event>
 6    0  0.3042851E+002  0.7385599E+02  0.7546771E-02  0.1347451E+00
         21   -1    0    0  503  501  0.00000000000E+00  0.00000000000E+00  0.13918318569E+04  0.13918318569E+04  0.00000000000E+00 0. -1.
         21   -1    0    0  505  502 -0.00000000000E+00 -0.00000000000E+00 -0.14703696535E+03  0.14703696535E+03  0.00000000000E+00 0. -1.
         21    1    1    2  503  504  0.55552697546E+02  0.44000398385E+02  0.86720727973E+03  0.87009804234E+03  0.00000000000E+00 0. -1.
         21    1    1    2  504  502  0.25630839812E+02  0.29268157282E+02 -0.47692940540E+02  0.61548205152E+02  0.00000000000E+00 0. -1.
         21    1    1    2  505  506  0.65275544612E+01 -0.57153512509E+02 -0.77543681525E+02  0.96551310213E+02  0.00000000000E+00 0. -1.
         21    1    1    2  506  501 -0.87711091819E+02 -0.16115043158E+02  0.50282423393E+03  0.51067126458E+03  0.00000000000E+00 0. -1.
<scales pt_clust_3="14000.00000" pt_clust_4="38.90456" pt_clust_5="42.61365" pt_clust_6="73.85599"></scales>
<clustering>
<clus scale="   38.905">  2  4  1 -1</clus>
<clus scale="   42.614">  2  5  1 -1</clus>
<clus scale="   73.856">  2  6  1 -1</clus>
<clus scale="   73.856">  1  3  2 -1</clus>
</clustering>
</event>
<event>
 6    0  0.3042851E+002  0.1757133E+03  0.7546771E-02  0.1172017E+00
         21   -1    0    0  506  501  0.00000000000E+00  0.00000000000E+00  0.96204510210E+03  0.96204510210E+03  0.00000000000E+00 0. -1.
         21   -1    0    0  503  502 -0.00000000000E+00 -0.00000000000E+00 -0.22764535957E+03  0.22764535957E+03  0.00000000000E+00 0. -1.
         21    1    1    2  503  504  0.93670673701E+02  0.67358695277E+02  0.31698267604E+03  0.33732685315E+03  0.00000000000E+00 0. -1.
         21    1    1    2  504  501  0.61693908109E+02  0.18646449570E+02  0.59469552555E+03  0.59817772985E+03  0.00000000000E+00 0. -1.
         21    1    1    2  505  502 -0.61555634917E+02 -0.52386473133E+02 -0.96697937098E+02  0.12603146352E+03  0.00000000000E+00 0. -1.
         21    1    1    2  506  505 -0.93808946893E+02 -0.33618671715E+02 -0.80580521967E+02  0.12815441516E+03  0.00000000000E+00 0. -1.
<scales pt_clust_3="170.96019" pt_clust_4="64.45020" pt_clust_5="36.55888" pt_clust_6="36.55888"></scales>
<clustering>
<clus scale="   36.559">  5  6 -1 -1</clus>
<clus scale="   64.450">  1  4  2 -1</clus>
<clus scale="  170.960">  1  3  2 -1</clus>
<clus scale="   64.450">  1  3  2 -1</clus>
</clustering>
</event>
<event>
 6    0  0.3042851E+002  0.1158797E+03  0.7546771E-02  0.1250053E+00
         21   -1    0    0  504  501  0.00000000000E+00  0.00000000000E+00  0.59125236954E+02  0.59125236954E+02  0.00000000000E+00 0.  1.
         21   -1    0    0  505  502 -0.00000000000E+00 -0.00000000000E+00 -0.12989186766E+04  0.12989186766E+04  0.00000000000E+00 0. -1.
         21    1    1    2  503  502 -0.38943825591E+02  0.53144647571E+02 -0.99072855009E+03  0.99291693262E+03  0.00000000000E+00 0. -1.
         21    1    1    2  504  503  0.55903285798E+01 -0.30436907076E+02 -0.28181459946E+02  0.41855128368E+02  0.00000000000E+00 0.  1.
         21    1    1    2  505  506 -0.48808576377E+02  0.34889198239E+02 -0.21449663886E+03  0.22272930064E+03  0.00000000000E+00 0. -1.
         21    1    1    2  506  501  0.82162073387E+02 -0.57596938734E+02 -0.63867907645E+01  0.10054255194E+03  0.00000000000E+00 0.  1.
<scales pt_clust_3="115.87974" pt_clust_4="30.94604" pt_clust_5="58.26930" pt_clust_6="14000.00000"></scales>
<clustering>
<clus scale="   30.946">  1  4  2 -1</clus>
<clus scale="   58.269">  2  5  1 -1</clus>
<clus scale="  115.880">  2  3  1 -1</clus>
<clus scale="   30.946">  1  3  2 -1</clus>
</clustering>
</event>
<event>
 6    0  0.3042851E+002  0.1387391E+03  0.7546771E-02  0.1215036E+00
         21   -1    0    0  502  501  0.00000000000E+00  0.00000000000E+00  0.76665204646E+01  0.76665204646E+01  0.00000000000E+00 0. -1.
         21   -1    0    0  506  502 -0.00000000000E+00 -0.00000000000E+00 -0.24766885931E+04  0.24766885931E+04  0.00000000000E+00 0. -1.
         21    1    1    2  503  505  0.24061270302E+02 -0.59461924305E+02 -0.42675645227E+03  0.43155038492E+03  0.00000000000E+00 0. -1.
         21    1    1    2  504  501  0.29435362520E+01  0.35346552380E+02 -0.45452674413E+03  0.45590854818E+03  0.00000000000E+00 0.  1.
         21    1    1    2  505  504 -0.57507297391E+02  0.80691936262E+02 -0.72094216814E+03  0.72771964907E+03  0.00000000000E+00 0. -1.
         21    1    1    2  506  503  0.30502490837E+02 -0.56576564337E+02 -0.86679670813E+03  0.86917653144E+03  0.00000000000E+00 0. -1.
<scales pt_clust_3="46.52123" pt_clust_4="31.69499" pt_clust_5="31.69499" pt_clust_6="136.42116"></scales>
<clustering>
<clus scale="   31.695">  4  5 -1 -1</clus>
<clus scale="   46.521">  3  6 -1 -1</clus>
<clus scale="  136.421">  2  3  1 -1</clus>
<clus scale="  138.739">  1  3  2 -1</clus>
</clustering>
</event>
<event>
 6    0  0.3042851E+002  0.1365080E+03  0.7546771E-02  0.1218106E+00
         21   -1    0    0  502  501  0.00000000000E+00  0.00000000000E+00  0.66567473453E+03  0.66567473453E+03  0.00000000000E+00 0. -1.
         21   -1    0    0  503  502 -0.00000000000E+00 -0.00000000000E+00 -0.28113468164E+02  0.28113468164E+02  0.00000000000E+00 0. -1.
         21    1    1    2  503  505  0.49045168504E+02 -0.37364818601E+02  0.10521620728E+03  0.12195084460E+03  0.00000000000E+00 0. -1.
         21    1    1    2  504  506 -0.74882541258E+02  0.29214227001E+02  0.17117216543E+03  0.18910519893E+03  0.00000000000E+00 0. -1.
         21    1    1    2  505  504  0.65468657089E+02 -0.96209652047E+01  0.11434223335E+03  0.13210925161E+03  0.00000000000E+00 0. -1.
         21    1    1    2  506  501 -0.39631284335E+02  0.17771556804E+02  0.24683066029E+03  0.25062290755E+03  0.00000000000E+00 0. -1.
<scales pt_clust_3="30.82171" pt_clust_4="42.31304" pt_clust_5="127.83045" pt_clust_6="42.31304"></scales>
<clustering>
<clus scale="   30.822">  3  5 -1 -1</clus>
<clus scale="   42.313">  4  6 -1 -1</clus>
<clus scale="  127.830">  2  3  1 -1</clus>
<clus scale="  136.508">  1  3  2 -1</clus>
</clustering>
</event>
<event>
 6    0  0.3042851E+002  0.1198906E+03  0.7546771E-02  0.1243278E+00
         21   -1    0    0  504  501  0.00000000000E+00  0.00000000000E+00  0.37258730177E+03  0.37258730177E+03  0.00000000000E+00 0.  1.
         21   -1    0    0  503  502 -0.00000000000E+00 -0.00000000000E+00 -0.56522546567E+03  0.56522546567E+03  0.00000000000E+00 0. -1.
         21    1    1    2  503  506 -0.44006738984E+02 -0.95082159072E+02 -0.42606661763E+03  0.43875958418E+03  0.00000000000E+00 0. -1.
         21    1    1    2  504  505 -0.25616413934E+02  0.84943842281E+02  0.31571790352E+03  0.32794733054E+03  0.00000000000E+00 0.  1.
         21    1    1    2  505  502  0.53927351764E+02 -0.27549605912E+02 -0.10731389224E+03  0.12322098653E+03  0.00000000000E+00 0. -1.
         21    1    1    2  506  501  0.15695801154E+02  0.37687922703E+02  0.25024442438E+02  0.47884866198E+02  0.00000000000E+00 0.  1.
<scales pt_clust_3="14000.00000" pt_clust_4="119.89059" pt_clust_5="60.48962" pt_clust_6="40.82570"></scales>
<clustering>
<clus scale="   40.826">  1  6  2 -1</clus>
<clus scale="   60.490">  2  5  1 -1</clus>
<clus scale="  119.891">  1  4  2 -1</clus>
<clus scale="   40.826">  1  3  2 -1</clus>
</clustering>
</event>
<event>
 6    0  0.3042851E+002  0.7253138E+02  0.7546771E-02  0.1351691E+00
         21   -1    0    0  504  501  0.00000000000E+00  0.00000000000E+00  0.74641811674E+02  0.74641811674E+02  0.00000000000E+00 0. -1.
         21   -1    0    0  503  502 -0.00000000000E+00 -0.00000000000E+00 -0.67581309071E+03  0.67581309071E+03  0.00000000000E+00 0.  1.
         21    1    1    2  503  501 -0.36145391839E+02 -0.31585019564E+02  0.27487109430E+02  0.55314048820E+02  0.00000000000E+00 0. -1.
         21    1    1    2  504  505 -0.44545817617E+02  0.14896319452E+02 -0.15771035765E+02  0.49547510225E+02  0.00000000000E+00 0. -1.
         21    1    1    2  505  506  0.28097620381E+02  0.75703090673E+02 -0.10959248803E+03  0.13612842334E+03  0.00000000000E+00 0.  1.
         21    1    1    2  506  502  0.52593589075E+02 -0.59014390561E+02 -0.50329486468E+03  0.50946492001E+03  0.00000000000E+00 0.  1.
<scales pt_clust_3="71.21588" pt_clust_4="46.97052" pt_clust_5="14000.00000" pt_clust_6="72.53138"></scales>
<clustering>
<clus scale="   46.971">  1  4  2 -1</clus>
<clus scale="   71.216">  1  3  2 -1</clus>
<clus scale="   72.531">  2  6  1 -1</clus>
<clus scale="   46.971">  1  3  2 -1</clus>
</clustering>
</event>
<event>
 6    0  0.3042851E+002  0.1145254E+03  0.7546771E-02  0.1252412E+00
         21   -1    0    0  504  501  0.00000000000E+00  0.00000000000E+00  0.53403725534E+03  0.53403725534E+03  0.00000000000E+00 0.  1.
         21   -1    0    0  503  502 -0.00000000000E+00 -0.00000000000E+00 -0.11792029981E+03  0.11792029981E+03  0.00000000000E+00 0.  1.
         21    1    1    2  503  501 -0.61933892028E+02  0.16178014729E+02 -0.22127165560E+02  0.67728477009E+02  0.00000000000E+00 0.  1.
         21    1    1    2  504  506 -0.93443133463E+01  0.89389798440E+02  0.14622628050E+03  0.17163909044E+03  0.00000000000E+00 0.  1.
         21    1    1    2  505  502  0.36780198459E+02  0.35814505177E+02 -0.29826312007E+02  0.59372305562E+02  0.00000000000E+00 0.  1.
         21    1    1    2  506  505  0.34498006915E+02 -0.14138231835E+03  0.32184415260E+03  0.35321768215E+03  0.00000000000E+00 0.  1.
<scales pt_clust_3="54.82243" pt_clust_4="14000.00000" pt_clust_5="51.33675" pt_clust_6="114.52540"></scales>
<clustering>
<clus scale="   51.337">  2  5  1 -1</clus>
<clus scale="   54.822">  2  3  1 -1</clus>
<clus scale="  114.525">  2  6  1 -1</clus>
<clus scale="  114.525">  1  3  2 -1</clus>
</clustering>
</event>
<event>
 6    0  0.3042851E+002  0.1366555E+03  0.7546771E-02  0.1217901E+00
         21   -1    0    0  503  501  0.00000000000E+00  0.00000000000E+00  0.13470453721E+03  0.13470453721E+03  0.00000000000E+00 0.  1.
         21   -1    0    0  506  502 -0.00000000000E+00 -0.00000000000E+00 -0.22539047771E+04  0.22539047771E+04  0.00000000000E+00 0.  1.
         21    1    1    2  503  504 -0.10109829318E+03 -0.35119279771E+02  0.96031227691E+02  0.14379229947E+03  0.00000000000E+00 0.  1.
         21    1    1    2  504  502  0.38454171676E+02 -0.25029191232E+02 -0.11247441674E+03  0.12147295235E+03  0.00000000000E+00 0. -1.
         21    1    1    2  505  501 -0.32772635791E+02 -0.28980629183E+01 -0.22299642544E+02  0.39745672506E+02  0.00000000000E+00 0.  1.
         21    1    1    2  506  505  0.95416757292E+02  0.63046533922E+02 -0.20804574083E+04  0.20835983900E+04  0.00000000000E+00 0.  1.
<scales pt_clust_3="14000.00000" pt_clust_4="44.96365" pt_clust_5="32.90052" pt_clust_6="136.65551"></scales>
<clustering>
<clus scale="   32.901">  1  5  2 -1</clus>
<clus scale="   44.964">  2  4  1 -1</clus>
<clus scale="  136.656">  2  6  1 -1</clus>
<clus scale="   32.901">  1  3  2 -1</clus>
</clustering>
</event>
<event>
 6    0  0.3042851E+002  0.4640107E+03  0.7546771E-02  0.1023624E+00
         21   -1    0    0  503  501  0.00000000000E+00  0.00000000000E+00  0.16295277695E+03  0.16295277695E+03  0.00000000000E+00 0. -1.
         21   -1    0    0  505  502 -0.00000000000E+00 -0.00000000000E+00 -0.16759729728E+04  0.16759729728E+04  0.00000000000E+00 0. -1.
         21    1    1    2  503  506 -0.24696247790E+03 -0.33145648421E+03 -0.94660554990E+03  0.10329162277E+04  0.00000000000E+00 0. -1.
         21    1    1    2  504  501  0.49477440479E+02 -0.34476856434E+01 -0.74353546680E+01  0.50151651535E+02  0.00000000000E+00 0.  1.
         21    1    1    2  505  504  0.20524486340E+03  0.39268483283E+03 -0.44577650878E+03  0.62852488229E+03  0.00000000000E+00 0. -1.
         21    1    1    2  506  502 -0.77598259758E+01 -0.57780662979E+02 -0.11320278251E+03  0.12733298819E+03  0.00000000000E+00 0. -1.
<scales pt_clust_3="30.50007" pt_clust_4="49.59742" pt_clust_5="456.84831" pt_clust_6="30.50007"></scales>
<clustering>
<clus scale="   30.500">  3  6 -1 -1</clus>
<clus scale="   49.597">  1  4  2 -1</clus>
<clus scale="  456.848">  1  5  2 -1</clus>
<clus scale="   49.597">  1  3  2 -1</clus>
</clustering>
</event>
<event>
 6    0  0.3042851E+002  0.1727735E+03  0.7546771E-02  0.1174986E+00
         21   -1    0    0  505  501  0.00000000000E+00  0.00000000000E+00  0.16847181270E+03  0.16847181270E+03  0.00000000000E+00 0. -1.
         21   -1    0    0  501  502 -0.00000000000E+00 -0.00000000000E+00 -0.35049784035E+04  0.35049784035E+04  0.00000000000E+00 0. -1.
         21    1    1    2  503  502  0.72061308686E+01  0.47698301430E+02 -0.25585001983E+04  0.25589549275E+04  0.00000000000E+00 0. -1.
         21    1    1    2  504  503  0.29435195830E+02  0.10886938856E+03 -0.89626551906E+03  0.90333319167E+03  0.00000000000E+00 0. -1.
         21    1    1    2  505  506 -0.38751862079E+02 -0.10659022534E+03  0.11424118923E+03  0.16097898083E+03  0.00000000000E+00 0. -1.
         21    1    1    2  506  504  0.21105353806E+01 -0.49977464655E+02  0.40179373061E+01  0.50183116216E+02  0.00000000000E+00 0.  1.
<scales pt_clust_3="48.23957" pt_clust_4="158.43769" pt_clust_5="45.76222" pt_clust_6="45.76222"></scales>
<clustering>
<clus scale="   45.762">  5  6 -1 -1</clus>
<clus scale="   48.240">  2  3  1 -1</clus>
<clus scale="  158.438">  2  4  1 -1</clus>
<clus scale="  172.774">  1  3  2 -1</clus>
</clustering>
</event>
<event>
 6    0  0.3042851E+002  0.7195861E+02  0.7546771E-02  0.1353557E+00
         21   -1    0    0  506  501  0.00000000000E+00  0.00000000000E+00  0.13073287447E+03  0.13073287447E+03  0.00000000000E+00 0.  1.
         21   -1    0    0  503  502 -0.00000000000E+00 -0.00000000000E+00 -0.43003052498E+03  0.43003052498E+03  0.00000000000E+00 0.  1.
         21    1    1    2  503  505 -0.22884433552E+02  0.77288866694E+02 -0.10664861024E+03  0.13368317874E+03  0.00000000000E+00 0.  1.
         21    1    1    2  504  502 -0.39004052983E+02 -0.41909070090E+02 -0.26387347400E+03  0.27001277115E+03  0.00000000000E+00 0.  1.
         21    1    1    2  505  501 -0.34828960508E+02 -0.19240271643E+02  0.85636302314E+01  0.40701109392E+02  0.00000000000E+00 0.  1.
         21    1    1    2  506  504  0.96717447044E+02 -0.16139524961E+02  0.62660803497E+02  0.11636634017E+03  0.00000000000E+00 0.  1.
<scales pt_clust_3="71.95861" pt_clust_4="58.34616" pt_clust_5="39.79001" pt_clust_6="14000.00000"></scales>
<clustering>
<clus scale="   39.790">  1  5  2 -1</clus>
<clus scale="   58.346">  2  4  1 -1</clus>
<clus scale="   71.959">  2  3  1 -1</clus>
<clus scale="   39.790">  1  3  2 -1</clus>
</clustering>
</event>
<event>
 6    0  0.3042851E+002  0.9405827E+02  0.7546771E-02  0.1293311E+00
         21   -1    0    0  503  501  0.00000000000E+00  0.00000000000E+00  0.23647678906E+02  0.23647678906E+02  0.00000000000E+00 0.  1.
         21   -1    0    0  506  502 -0.00000000000E+00 -0.00000000000E+00 -0.16621429930E+04  0.16621429930E+04  0.00000000000E+00 0.  1.
         21    1    1    2  503  505 -0.46817346166E+02  0.10496068001E+03 -0.31215927644E+03  0.33264398705E+03  0.00000000000E+00 0.  1.
         21    1    1    2  504  501  0.10597916525E+02 -0.84173933728E+02 -0.15481460240E+03  0.17653647802E+03  0.00000000000E+00 0.  1.
         21    1    1    2  505  502  0.39305368467E+01 -0.41865906757E+02 -0.99670020257E+03  0.99758683685E+03  0.00000000000E+00 0.  1.
         21    1    1    2  506  504  0.32288892794E+02  0.21079160473E+02 -0.17482123269E+03  0.17902336999E+03  0.00000000000E+00 0. -1.
<scales pt_clust_3="94.05827" pt_clust_4="14000.00000" pt_clust_5="37.73401" pt_clust_6="38.56039"></scales>
<clustering>
<clus scale="   38.560">  2  6  1 -1</clus>
<clus scale="   37.734">  2  5  1 -1</clus>
<clus scale="   94.058">  2  3  1 -1</clus>
<clus scale="   94.058">  1  3  2 -1</clus>
</clustering>
</event>
<event>
 6    0  0.3042851E+002  0.1060321E+03  0.7546771E-02  0.1268099E+00
         21   -1    0    0  506  501  0.00000000000E+00  0.00000000000E+00  0.12446763009E+03  0.12446763009E+03  0.00000000000E+00 0.  1.
         21   -1    0    0  503  502 -0.00000000000E+00 -0.00000000000E+00 -0.20157558332E+03  0.20157558332E+03  0.00000000000E+00 0.  1.
         21    1    1    2  503  504 -0.10664692226E+03 -0.58474507295E+02 -0.11777056784E+03  0.16930074034E+03  0.00000000000E+00 0.  1.
         21    1    1    2  504  501  0.34281748186E+02  0.40710118487E+02  0.52367689197E+02  0.74665432951E+02  0.00000000000E+00 0.  1.
         21    1    1    2  505  502  0.36650601124E+02 -0.66778570872E+01 -0.36766709763E-01  0.37254015754E+02  0.00000000000E+00 0.  1.
         21    1    1    2  506  505  0.35714572947E+02  0.24442245895E+02 -0.11668307880E+02  0.44823024373E+02  0.00000000000E+00 0.  1.
<scales pt_clust_3="100.97264" pt_clust_4="53.22172" pt_clust_5="30.02607" pt_clust_6="30.02607"></scales>
<clustering>
<clus scale="   30.026">  5  6 -1 -1</clus>
<clus scale="   53.222">  1  4  2 -1</clus>
<clus scale="  100.973">  2  3  1 -1</clus>
<clus scale="   53.222">  1  3  2 -1</clus>
</clustering>
</event>
<event>
 6    0  0.6716501E+002  0.1362187E+03  0.7546771E-02  0.1218509E+00
         21   -1    0    0  504  501  0.00000000000E+00  0.00000000000E+00  0.11160380276E+04  0.11160380276E+04  0.00000000000E+00 0.  1.
         21   -1    0    0  506  502 -0.00000000000E+00 -0.00000000000E+00 -0.11726579152E+04  0.11726579152E+04  0.00000000000E+00 0.  1.
         21    1    1    2  503  501  0.37619163850E+02  0.18495420963E+03  0.10442984837E+04  0.10612175009E+04  0.00000000000E+00 0.  1.
         21    1    1    2  504  505  0.30936304125E+01 -0.55014554436E+02  0.39943314344E+02  0.68056154092E+02  0.00000000000E+00 0.  1.
         21    1    1    2  505  502 -0.57214724696E+02 -0.10028552732E+03 -0.11011448680E+04  0.11071814360E+04  0.00000000000E+00 0.  1.
         21    1    1    2  506  503  0.16501930434E+02 -0.29654127876E+02 -0.39716817611E+02  0.52240851919E+02  0.00000000000E+00 0.  1.
<scales pt_clust_3="14000.00000" pt_clust_4="55.48271" pt_clust_5="136.21874" pt_clust_6="33.93643"></scales>
<clustering>
<clus scale="   33.936">  2  6  1 -1</clus>
<clus scale="   55.483">  1  4  2 -1</clus>
<clus scale="  136.219">  2  5  1 -1</clus>
<clus scale="   55.483">  1  3  2 -1</clus>
</clustering>
</event>
<event>
 6    0  0.3042851E+002  0.1368783E+03  0.7546771E-02  0.1217592E+00
         21   -1    0    0  502  501  0.00000000000E+00  0.00000000000E+00  0.64165118138E+02  0.64165118138E+02  0.00000000000E+00 0. -1.
         21   -1    0    0  506  502 -0.00000000000E+00 -0.00000000000E+00 -0.39171495316E+03  0.39171495316E+03  0.00000000000E+00 0. -1.
         21    1    1    2  503  504  0.65161128860E+02  0.30782291236E+02 -0.12700566345E+03  0.14602726019E+03  0.00000000000E+00 0. -1.
         21    1    1    2  504  505 -0.77119831950E+02  0.43347418527E+00 -0.17303074075E+02  0.79038299275E+02  0.00000000000E+00 0. -1.
         21    1    1    2  505  501 -0.51252285915E+02 -0.25913026884E+02 -0.29634659847E+02  0.64625806285E+02  0.00000000000E+00 0. -1.
         21    1    1    2  506  503  0.63210989005E+02 -0.53027385373E+01 -0.15360643765E+03  0.16618870555E+03  0.00000000000E+00 0.  1.
<scales pt_clust_3="37.61031" pt_clust_4="135.78006" pt_clust_5="31.20510" pt_clust_6="37.61031"></scales>
<clustering>
<clus scale="   31.205">  4  5 -1 -1</clus>
<clus scale="   37.610">  3  6 -1 -1</clus>
<clus scale="  135.780">  1  4  2 -1</clus>
<clus scale="  135.780">  1  3  2 -1</clus>
</clustering>
</event>
<event>
 6    0  0.3042851E+002  0.9382263E+02  0.7546771E-02  0.1293850E+00
         21   -1    0    0  503  501  0.00000000000E+00  0.00000000000E+00  0.18268444397E+03  0.18268444397E+03  0.00000000000E+00 0.  1.
         21   -1    0    0  504  502 -0.00000000000E+00 -0.00000000000E+00 -0.10123875084E+04  0.10123875084E+04  0.00000000000E+00 0. -1.
         21    1    1    2  503  506 -0.24775918223E+02  0.19972128403E+02  0.67692716793E+01  0.32535443378E+02  0.00000000000E+00 0.  1.
         21    1    1    2  504  501 -0.96925446953E+02 -0.10107214034E+02  0.13174902276E+03  0.16387343604E+03  0.00000000000E+00 0.  1.
         21    1    1    2  505  502  0.85686120194E+02 -0.38581534823E+02 -0.93990964117E+03  0.94459556403E+03  0.00000000000E+00 0. -1.
         21    1    1    2  506  505  0.36015244983E+02  0.28716620454E+02 -0.28311717703E+02  0.54067508919E+02  0.00000000000E+00 0. -1.
<scales pt_clust_3="31.82345" pt_clust_4="14000.00000" pt_clust_5="93.82263" pt_clust_6="45.58180"></scales>
<clustering>
<clus scale="   31.823">  1  3  2 -1</clus>
<clus scale="   45.582">  1  6  2 -1</clus>
<clus scale="   93.823">  2  5  1 -1</clus>
<clus scale="   31.823">  1  3  2 -1</clus>
</clustering>
</event>
<event>
 6    0  0.3042851E+002  0.2567102E+03  0.7546771E-02  0.1109136E+00
         21   -1    0    0  502  501  0.00000000000E+00  0.00000000000E+00  0.19386503917E+03  0.19386503917E+03  0.00000000000E+00 0. -1.
         21   -1    0    0  505  502 -0.00000000000E+00 -0.00000000000E+00 -0.38566033780E+03  0.38566033780E+03  0.00000000000E+00 0. -1.
         21    1    1    2  503  504 -0.36279703264E+02 -0.24260257046E+02 -0.18258083640E+02  0.47308926843E+02  0.00000000000E+00 0.  1.
         21    1    1    2  504  506  0.52645528334E+02  0.94024995702E+01 -0.26609350487E+02  0.59732873572E+02  0.00000000000E+00 0. -1.
         21    1    1    2  505  503 -0.21063803460E+03  0.60311964243E+01 -0.17762881420E+03  0.27560252645E+03  0.00000000000E+00 0. -1.
         21    1    1    2  506  501  0.19427220953E+03  0.88265610515E+01  0.30700949697E+02  0.19688105010E+03  0.00000000000E+00 0. -1.
<scales pt_clust_3="30.86435" pt_clust_4="35.30757" pt_clust_5="30.86435" pt_clust_6="256.58130"></scales>
<clustering>
<clus scale="   30.864">  3  5 -1 -1</clus>
<clus scale="   35.308">  4  6 -1 -1</clus>
<clus scale="  256.581">  1  4  2 -1</clus>
<clus scale="  256.581">  1  3  2 -1</clus>
</clustering>
</event>
<event>
 6    0  0.3574806E+002  0.1144149E+03  0.7546771E-02  0.1252606E+00
         21   -1    0    0  504  501  0.00000000000E+00  0.00000000000E+00  0.71263965614E+03  0.71263965614E+03  0.00000000000E+00 0. -1.
         21   -1    0    0  503  502 -0.00000000000E+00 -0.00000000000E+00 -0.13920254199E+04  0.13920254199E+04  0.00000000000E+00 0.  1.
         21    1    1    2  503  506  0.78370591980E+01  0.42743904923E+02 -0.14249960951E+03  0.14897852065E+03  0.00000000000E+00 0.  1.
         21    1    1    2  504  505  0.13203249810E+02  0.32352063345E+02  0.15339674081E+02  0.38161333954E+02  0.00000000000E+00 0.  1.
         21    1    1    2  505  502 -0.27889610299E+02  0.70260439176E+02 -0.12259432290E+04  0.12282716151E+04  0.00000000000E+00 0.  1.
         21    1    1    2  506  501  0.68493012913E+01 -0.14535640744E+03  0.67371740060E+03  0.68925360643E+03  0.00000000000E+00 0. -1.
<scales pt_clust_3="43.61798" pt_clust_4="34.94255" pt_clust_5="114.41491" pt_clust_6="14000.00000"></scales>
<clustering>
<clus scale="   34.943">  1  4  2 -1</clus>
<clus scale="   43.618">  2  3  1 -1</clus>
<clus scale="  114.415">  2  5  1 -1</clus>
<clus scale="   34.943">  1  3  2 -1</clus>
</clustering>
</event>
<event>
 6    0  0.3042851E+002  0.1680405E+03  0.7546771E-02  0.1179907E+00
         21   -1    0    0  505  501  0.00000000000E+00  0.00000000000E+00  0.20551154804E+03  0.20551154804E+03  0.00000000000E+00 0.  1.
         21   -1    0    0  504  502 -0.00000000000E+00 -0.00000000000E+00 -0.58747037151E+03  0.58747037151E+03  0.00000000000E+00 0.  1.
         21    1    1    2  503  502  0.15438503123E+03  0.78699336716E+02 -0.38238595323E+03  0.41981822340E+03  0.00000000000E+00 0.  1.
         21    1    1    2  504  506 -0.24028582064E+02  0.33299487437E+02 -0.11624927247E+03  0.12328877471E+03  0.00000000000E+00 0.  1.
         21    1    1    2  505  503 -0.55465627655E+02  0.27386211472E+02  0.23009227871E+02  0.65998977243E+02  0.00000000000E+00 0.  1.
         21    1    1    2  506  501 -0.74890821513E+02 -0.13938503563E+03  0.93667174363E+02  0.18387594420E+03  0.00000000000E+00 0.  1.
<scales pt_clust_3="14000.00000" pt_clust_4="41.06371" pt_clust_5="63.53211" pt_clust_6="168.04054"></scales>
<clustering>
<clus scale="   41.064">  2  4  1 -1</clus>
<clus scale="   63.532">  1  5  2 -1</clus>
<clus scale="  168.041">  1  6  2 -1</clus>
<clus scale="   63.532">  1  3  2 -1</clus>
</clustering>
</event>
<event>
 6    0  0.3042851E+002  0.1540663E+03  0.7546771E-02  0.1195564E+00
         21   -1    0    0  503  501  0.00000000000E+00  0.00000000000E+00  0.14938534742E+03  0.14938534742E+03  0.00000000000E+00 0.  1.
         21   -1    0    0  505  502 -0.00000000000E+00 -0.00000000000E+00 -0.43289464036E+03  0.43289464036E+03  0.00000000000E+00 0. -1.
         21    1    1    2  503  504 -0.76585555516E+02  0.61246001473E+02  0.62942537912E+02  0.11652546112E+03  0.00000000000E+00 0.  1.
         21    1    1    2  504  502 -0.60293610876E+02 -0.58253300085E+01  0.18703549148E+02  0.63396188631E+02  0.00000000000E+00 0. -1.
         21    1    1    2  505  506  0.40596901237E+02 -0.35735132080E+02 -0.55549204022E+02  0.77529491952E+02  0.00000000000E+00 0.  1.
         21    1    1    2  506  501  0.96282265155E+02 -0.19685539384E+02 -0.30960617598E+03  0.32482884608E+03  0.00000000000E+00 0. -1.
<scales pt_clust_3="49.07180" pt_clust_4="49.07180" pt_clust_5="54.08427" pt_clust_6="140.84770"></scales>
<clustering>
<clus scale="   49.072">  3  4 -1 -1</clus>
<clus scale="   54.084">  2  5  1 -1</clus>
<clus scale="  140.848">  2  6  1 -1</clus>
<clus scale="  154.066">  1  3  2 -1</clus>
</clustering>
</event>
<event>
 6    0  0.3042851E+002  0.1352209E+03  0.7546771E-02  0.1219908E+00
         21   -1    0    0  502  501  0.00000000000E+00  0.00000000000E+00  0.46941421019E+02  0.46941421019E+02  0.00000000000E+00 0. -1.
         21   -1    0    0  506  502 -0.00000000000E+00 -0.00000000000E+00 -0.39255719815E+03  0.39255719815E+03  0.00000000000E+00 0. -1.
         21    1    1    2  503  501  0.31060665209E+02 -0.58643293450E+02 -0.51136757657E+02  0.83778092444E+02  0.00000000000E+00 0. -1.
         21    1    1    2  504  503 -0.83739052399E+01 -0.62137199313E+02 -0.73043633374E+02  0.96262797611E+02  0.00000000000E+00 0. -1.
         21    1    1    2  505  504 -0.27582132365E+02  0.19400900711E+02 -0.54748029864E+02  0.64300200219E+02  0.00000000000E+00 0. -1.
         21    1    1    2  506  505  0.48953723962E+01  0.10137959205E+03 -0.16668735623E+03  0.19515752889E+03  0.00000000000E+00 0. -1.
<scales pt_clust_3="130.36086" pt_clust_4="42.27245" pt_clust_5="32.51492" pt_clust_6="32.51492"></scales>
<clustering>
<clus scale="   32.515">  5  6 -1 -1</clus>
<clus scale="   42.272">  3  4 -1 -1</clus>
<clus scale="  130.361">  1  3  2 -1</clus>
<clus scale="  130.361">  1  3  2 -1</clus>
</clustering>
</event>
<event>
 6    0  0.3042851E+002  0.1514016E+03  0.7546771E-02  0.1198761E+00
         21   -1    0    0  503  501  0.00000000000E+00  0.00000000000E+00  0.67199396214E+03  0.67199396214E+03  0.00000000000E+00 0. -1.
         21   -1    0    0  506  502 -0.00000000000E+00 -0.00000000000E+00 -0.56155993662E+02  0.56155993662E+02  0.00000000000E+00 0. -1.
         21    1    1    2  503  504 -0.36378003345E+02  0.61982531587E+02  0.32508756832E+03  0.33293711182E+03  0.00000000000E+00 0. -1.
         21    1    1    2  504  502 -0.50813276711E+01  0.75397532663E+02  0.21120949913E+03  0.22432133279E+03  0.00000000000E+00 0. -1.
         21    1    1    2  505  501  0.36926468408E+01 -0.79115763042E+02  0.58085212533E+02  0.98218285047E+02  0.00000000000E+00 0. -1.
         21    1    1    2  506  505  0.37766684175E+02 -0.58264301209E+02  0.21455688487E+02  0.72673226138E+02  0.00000000000E+00 0. -1.
<scales pt_clust_3="47.07652" pt_clust_4="47.07652" pt_clust_5="151.25195" pt_clust_6="44.75693"></scales>
<clustering>
<clus scale="   44.757">  5  6 -1 -1</clus>
<clus scale="   47.077">  3  4 -1 -1</clus>
<clus scale="  151.252">  2  5  1 -1</clus>
<clus scale="  151.402">  1  3  2 -1</clus>
</clustering>
</event>
<event>
 6    0  0.3042851E+002  0.1675130E+03  0.7546771E-02  0.1180466E+00
         21   -1    0    0  504  501  0.00000000000E+00  0.00000000000E+00  0.22194421185E+03  0.22194421185E+03  0.00000000000E+00 0. -1.
         21   -1    0    0  503  502 -0.00000000000E+00 -0.00000000000E+00 -0.17944441704E+03  0.17944441704E+03  0.00000000000E+00 0. -1.
         21    1    1    2  503  506 -0.88828084333E+02  0.35088860496E+02 -0.70100156429E+02  0.11847231165E+03  0.00000000000E+00 0. -1.
         21    1    1    2  504  505  0.41729072703E+02 -0.17902865512E+02  0.73447667765E+02  0.86350379283E+02  0.00000000000E+00 0. -1.
         21    1    1    2  505  502  0.11205243754E+03 -0.14200008323E+02  0.60497262660E+02  0.12813004247E+03  0.00000000000E+00 0. -1.
         21    1    1    2  506  501 -0.64953425910E+02 -0.29859866616E+01 -0.21344979187E+02  0.68435895481E+02  0.00000000000E+00 0. -1.
<scales pt_clust_3="163.01063" pt_clust_4="36.86905" pt_clust_5="36.86905" pt_clust_6="35.90051"></scales>
<clustering>
<clus scale="   35.901">  3  6 -1 -1</clus>
<clus scale="   36.869">  4  5 -1 -1</clus>
<clus scale="  163.011">  2  3  1 -1</clus>
<clus scale="  167.513">  1  3  2 -1</clus>
</clustering>
</event>
<event>
 6    0  0.3042851E+002  0.7053201E+02  0.7546771E-02  0.1358293E+00
         21   -1    0    0  506  501  0.00000000000E+00  0.00000000000E+00  0.51337468116E+03  0.51337468116E+03  0.00000000000E+00 0. -1.
         21   -1    0    0  503  502 -0.00000000000E+00 -0.00000000000E+00 -0.18657215502E+03  0.18657215502E+03  0.00000000000E+00 0.  1.
         21    1    1    2  503  505 -0.15896149408E+02 -0.34138595695E+02 -0.11158647553E+03  0.11776957504E+03  0.00000000000E+00 0.  1.
         21    1    1    2  504  501 -0.64806542180E+02 -0.28268798638E+02  0.30927629593E+03  0.31725516561E+03  0.00000000000E+00 0. -1.
         21    1    1    2  505  504  0.31410199662E+02  0.83378059689E+02  0.17370502446E+03  0.19522278812E+03  0.00000000000E+00 0. -1.
         21    1    1    2  506  502  0.49292491926E+02 -0.20970665355E+02 -0.44592318710E+02  0.69699307412E+02  0.00000000000E+00 0.  1.
<scales pt_clust_3="37.65808" pt_clust_4="14000.00000" pt_clust_5="70.53201" pt_clust_6="60.48100"></scales>
<clustering>
<clus scale="   37.658">  2  3  1 -1</clus>
<clus scale="   60.481">  2  6  1 -1</clus>
<clus scale="   70.532">  2  5  1 -1</clus>
<clus scale="   70.532">  1  3  2 -1</clus>
</clustering>
</event>
<event>
 6    0  0.3042851E+002  0.1189302E+03  0.7546771E-02  0.1244872E+00
         21   -1    0    0  503  501  0.00000000000E+00  0.00000000000E+00  0.28335994087E+03  0.28335994087E+03  0.00000000000E+00 0. -1.
         21   -1    0    0  505  502 -0.00000000000E+00 -0.00000000000E+00 -0.16577612424E+03  0.16577612424E+03  0.00000000000E+00 0. -1.
         21    1    1    2  503  504  0.44743038402E+01 -0.95130670578E+02 -0.81917661024E+02  0.12561993101E+03  0.00000000000E+00 0. -1.
         21    1    1    2  504  502 -0.39859974057E+02 -0.88359757672E+01 -0.38696789875E+02  0.56252409248E+02  0.00000000000E+00 0. -1.
         21    1    1    2  505  506  0.11200877278E+01  0.73595277851E+02  0.12358758199E+03  0.14384509008E+03  0.00000000000E+00 0. -1.
         21    1    1    2  506  501  0.34265582489E+02  0.30371368495E+02  0.11461068554E+03  0.12341863476E+03  0.00000000000E+00 0. -1.
<scales pt_clust_3="107.30388" pt_clust_4="40.82759" pt_clust_5="40.45077" pt_clust_6="40.45077"></scales>
<clustering>
<clus scale="   40.451">  5  6 -1 -1</clus>
<clus scale="   40.828">  2  4  1 -1</clus>
<clus scale="  107.304">  2  3  1 -1</clus>
<clus scale="  118.930">  1  3  2 -1</clus>
</clustering>
</event>
<event>
 6    0  0.3042851E+002  0.1622250E+03  0.7546771E-02  0.1186207E+00
         21   -1    0    0  503  501  0.00000000000E+00  0.00000000000E+00  0.63139825361E+03  0.63139825361E+03  0.00000000000E+00 0. -1.
         21   -1    0    0  504  502 -0.00000000000E+00 -0.00000000000E+00 -0.12960477269E+03  0.12960477269E+03  0.00000000000E+00 0. -1.
         21    1    1    2  503  505  0.30646833540E+02 -0.17612861498E+02  0.23301901110E+03  0.23568474883E+03  0.00000000000E+00 0. -1.
         21    1    1    2  504  501 -0.50135762146E+02  0.20566831654E+02  0.27389769208E+02  0.60718931706E+02  0.00000000000E+00 0.  1.
         21    1    1    2  505  506  0.10555686502E+03 -0.59213752261E+02  0.31545363461E+03  0.33787500026E+03  0.00000000000E+00 0. -1.
         21    1    1    2  506  502 -0.86067936419E+02  0.56259782105E+02 -0.74068933995E+02  0.12672434551E+03  0.00000000000E+00 0. -1.
<scales pt_clust_3="32.84914" pt_clust_4="54.19031" pt_clust_5="32.84914" pt_clust_6="150.40673"></scales>
<clustering>
<clus scale="   32.849">  3  5 -1 -1</clus>
<clus scale="   54.190">  2  4  1 -1</clus>
<clus scale="  150.407">  2  6  1 -1</clus>
<clus scale="  162.225">  1  3  2 -1</clus>
</clustering>
</event>
<event>
 6    0  0.3042851E+002  0.1669546E+03  0.7546771E-02  0.1181061E+00
         21   -1    0    0  505  501  0.00000000000E+00  0.00000000000E+00  0.67920995194E+03  0.67920995194E+03  0.00000000000E+00 0. -1.
         21   -1    0    0  503  502 -0.00000000000E+00 -0.00000000000E+00 -0.80758950662E+02  0.80758950662E+02  0.00000000000E+00 0. -1.
         21    1    1    2  503  501  0.11119734246E+02  0.19024241844E+03  0.16966548801E+03  0.25515133565E+03  0.00000000000E+00 0. -1.
         21    1    1    2  504  506  0.33677403954E+02 -0.61942235860E+02  0.12115935202E+03  0.14018058604E+03  0.00000000000E+00 0. -1.
         21    1    1    2  505  504  0.29912843435E+02 -0.82944153730E+02  0.23501077273E+03  0.25100711970E+03  0.00000000000E+00 0. -1.
         21    1    1    2  506  502 -0.74709981635E+02 -0.45356028851E+02  0.72615388513E+02  0.11362986121E+03  0.00000000000E+00 0. -1.
<scales pt_clust_3="163.52057" pt_clust_4="30.12433" pt_clust_5="30.12433" pt_clust_6="87.39995"></scales>
<clustering>
<clus scale="   30.124">  4  5 -1 -1</clus>
<clus scale="   87.400">  2  6  1 -1</clus>
<clus scale="  163.521">  2  3  1 -1</clus>
<clus scale="  166.955">  1  3  2 -1</clus>
</clustering>
</event>
<event>
 6    0  0.3042851E+002  0.1130007E+03  0.7546771E-02  0.1255112E+00
         21   -1    0    0  505  501  0.00000000000E+00  0.00000000000E+00  0.21278177431E+03  0.21278177431E+03  0.00000000000E+00 0. -1.
         21   -1    0    0  503  502 -0.00000000000E+00 -0.00000000000E+00 -0.26490528861E+03  0.26490528861E+03  0.00000000000E+00 0. -1.
         21    1    1    2  503  501  0.52518989171E+02  0.17414583309E+02  0.45626217118E+01  0.55518730643E+02  0.00000000000E+00 0. -1.
         21    1    1    2  504  502 -0.31856002927E+02  0.86631429391E+01 -0.24447669140E+02  0.41079721207E+02  0.00000000000E+00 0. -1.
         21    1    1    2  505  506  0.63270693804E+02  0.26918524565E+02  0.15477651680E+03  0.16936220892E+03  0.00000000000E+00 0. -1.
         21    1    1    2  506  504 -0.83933680048E+02 -0.52996250812E+02 -0.18701498367E+03  0.21172640214E+03  0.00000000000E+00 0. -1.
<scales pt_clust_3="52.34992" pt_clust_4="33.01295" pt_clust_5="113.00071" pt_clust_6="14000.00000"></scales>
<clustering>
<clus scale="   33.013">  2  4  1 -1</clus>
<clus scale="   52.350">  1  3  2 -1</clus>
<clus scale="  113.001">  1  5  2 -1</clus>
<clus scale="   52.350">  1  3  2 -1</clus>
</clustering>
</event>
<event>
 6    0  0.3042851E+002  0.2764809E+03  0.7546771E-02  0.1097627E+00
         21   -1    0    0  503  501  0.00000000000E+00  0.00000000000E+00  0.45215412588E+03  0.45215412588E+03  0.00000000000E+00 0.  1.
         21   -1    0    0  506  502 -0.00000000000E+00 -0.00000000000E+00 -0.27480096345E+03  0.27480096345E+03  0.00000000000E+00 0. -1.
         21    1    1    2  503  505  0.16210655624E+03  0.89513136813E+02  0.24292752963E+03  0.30545854365E+03  0.00000000000E+00 0.  1.
         21    1    1    2  504  501 -0.39262642988E+02  0.14575105935E+01  0.16520061635E+02  0.42621495843E+02  0.00000000000E+00 0.  1.
         21    1    1    2  505  502  0.93764423936E+02  0.31292492037E+02  0.33801514527E+02  0.10446784021E+03  0.00000000000E+00 0.  1.
         21    1    1    2  506  504 -0.21660833719E+03 -0.12226313944E+03 -0.11589594337E+03  0.27440720963E+03  0.00000000000E+00 0. -1.
<scales pt_clust_3="80.36386" pt_clust_4="39.28969" pt_clust_5="80.36386" pt_clust_6="255.03919"></scales>
<clustering>
<clus scale="   39.290">  1  4  2 -1</clus>
<clus scale="   80.364">  3  5 -1 -1</clus>
<clus scale="  255.039">  2  6  1 -1</clus>
<clus scale="   39.290">  1  3  2 -1</clus>
</clustering>
</event>
<event>
 6    0  0.3042851E+002  0.3099709E+03  0.7546771E-02  0.1080360E+00
         21   -1    0    0  504  501  0.00000000000E+00  0.00000000000E+00  0.91589124727E+03  0.91589124727E+03  0.00000000000E+00 0. -1.
         21   -1    0    0  501  502 -0.00000000000E+00 -0.00000000000E+00 -0.28388439654E+03  0.28388439654E+03  0.00000000000E+00 0. -1.
         21    1    1    2  503  502  0.27687336508E-01 -0.11124261870E+03 -0.89937243732E+02  0.14305114048E+03  0.00000000000E+00 0. -1.
         21    1    1    2  504  506 -0.26523218394E+02  0.22512893582E+02  0.17914640391E+03  0.18249313829E+03  0.00000000000E+00 0. -1.
         21    1    1    2  505  503  0.62093832165E+02 -0.18601477418E+03 -0.64734760797E+02  0.20651326704E+03  0.00000000000E+00 0. -1.
         21    1    1    2  506  505 -0.35598301107E+02  0.27474449930E+03  0.60753245135E+03  0.66771809799E+03  0.00000000000E+00 0. -1.
<scales pt_clust_3="58.80361" pt_clust_4="34.78953" pt_clust_5="58.80361" pt_clust_6="300.05191"></scales>
<clustering>
<clus scale="   34.790">  1  4  2 -1</clus>
<clus scale="   58.804">  3  5 -1 -1</clus>
<clus scale="  300.052">  1  6  2 -1</clus>
<clus scale="   34.790">  1  3  2 -1</clus>
</clustering>
</event>
<event>
 6    0  0.3042851E+002  0.6991982E+02  0.7546771E-02  0.1360366E+00
         21   -1    0    0  506  501  0.00000000000E+00  0.00000000000E+00  0.18987320603E+04  0.18987320603E+04  0.00000000000E+00 0. -1.
         21   -1    0    0  501  502 -0.00000000000E+00 -0.00000000000E+00 -0.18471459703E+03  0.18471459703E+03  0.00000000000E+00 0. -1.
         21    1    1    2  503  502  0.89594344103E+01 -0.51716176784E+02 -0.49722123065E+02  0.72298851500E+02  0.00000000000E+00 0. -1.
         21    1    1    2  504  505 -0.10555341266E+03 -0.37031423801E+02  0.23813584382E+03  0.26309984679E+03  0.00000000000E+00 0. -1.
         21    1    1    2  505  503  0.28794001959E+02  0.94203963335E+02 -0.88553445269E+02  0.13245827239E+03  0.00000000000E+00 0. -1.
         21    1    1    2  506  504  0.67799976286E+02 -0.54563627500E+01  0.16141571878E+04  0.16155896866E+04  0.00000000000E+00 0. -1.
<scales pt_clust_3="52.48652" pt_clust_4="14000.00000" pt_clust_5="60.48625" pt_clust_6="69.91982"></scales>
<clustering>
<clus scale="   52.487">  2  3  1 -1</clus>
<clus scale="   60.486">  2  5  1 -1</clus>
<clus scale="   69.920">  1  6  2 -1</clus>
<clus scale="   69.920">  1  3  2 -1</clus>
</clustering>
</event>
<event>
 6    0  0.3042851E+002  0.1276898E+03  0.7546771E-02  0.1230924E+00
         21   -1    0    0  506  501  0.00000000000E+00  0.00000000000E+00  0.16346761015E+03  0.16346761015E+03  0.00000000000E+00 0.  1.
         21   -1    0    0  504  502 -0.00000000000E+00 -0.00000000000E+00 -0.18430596645E+03  0.18430596645E+03  0.00000000000E+00 0. -1.
         21    1    1    2  503  505 -0.55278359431E+02  0.29290777603E+02 -0.42624379193E+02  0.75699962851E+02  0.00000000000E+00 0. -1.
         21    1    1    2  504  503 -0.40723069163E+02  0.59889626600E+02 -0.27053942648E+02  0.77311393398E+02  0.00000000000E+00 0. -1.
         21    1    1    2  505  501 -0.20319585243E+02 -0.67053609449E+02  0.20679037783E+02  0.73052684333E+02  0.00000000000E+00 0.  1.
         21    1    1    2  506  502  0.11632101384E+03 -0.22126794755E+02  0.28160927763E+02  0.12170953602E+03  0.00000000000E+00 0.  1.
<scales pt_clust_3="34.62574" pt_clust_4="34.62574" pt_clust_5="70.06477" pt_clust_6="122.13397"></scales>
<clustering>
<clus scale="   34.626">  3  4 -1 -1</clus>
<clus scale="   70.065">  1  5  2 -1</clus>
<clus scale="  122.134">  1  6  2 -1</clus>
<clus scale="   70.065">  1  3  2 -1</clus>
</clustering>
</event>
<event>
 6    0  0.3042851E+002  0.1380319E+03  0.7546771E-02  0.1216002E+00
         21   -1    0    0  502  501  0.00000000000E+00  0.00000000000E+00  0.63236734770E+03  0.63236734770E+03  0.00000000000E+00 0.  1.
         21   -1    0    0  506  502 -0.00000000000E+00 -0.00000000000E+00 -0.13361565650E+03  0.13361565650E+03  0.00000000000E+00 0.  1.
         21    1    1    2  503  504  0.95858859180E+02 -0.91670592873E+01 -0.36035955856E+02  0.10281802358E+03  0.00000000000E+00 0.  1.
         21    1    1    2  504  505 -0.82220065996E+02 -0.51864210387E+02  0.36274481726E+03  0.37554472173E+03  0.00000000000E+00 0.  1.
         21    1    1    2  505  501 -0.47167262436E+02  0.38919151401E+02  0.21810010013E+03  0.22651071646E+03  0.00000000000E+00 0.  1.
         21    1    1    2  506  503  0.33528469252E+02  0.22112118272E+02 -0.46057270338E+02  0.61109542429E+02  0.00000000000E+00 0.  1.
<scales pt_clust_3="36.67147" pt_clust_4="125.81141" pt_clust_5="61.15105" pt_clust_6="36.67147"></scales>
<clustering>
<clus scale="   36.671">  3  6 -1 -1</clus>
<clus scale="   61.151">  1  5  2 -1</clus>
<clus scale="  125.811">  1  4  2 -1</clus>
<clus scale="   61.151">  1  3  2 -1</clus>
</clustering>
</event>
<event>
 6    0  0.3042851E+002  0.2531315E+03  0.7546771E-02  0.1111342E+00
         21   -1    0    0  504  501  0.00000000000E+00  0.00000000000E+00  0.61664603886E+02  0.61664603886E+02  0.00000000000E+00 0. -1.
         21   -1    0    0  506  502 -0.00000000000E+00 -0.00000000000E+00 -0.18778009049E+04  0.18778009049E+04  0.00000000000E+00 0. -1.
         21    1    1    2  503  501 -0.23959027013E+02  0.20242529407E+03 -0.84226735630E+03  0.86658198351E+03  0.00000000000E+00 0. -1.
         21    1    1    2  504  505 -0.77312565605E+02 -0.21624632500E+03 -0.32201711539E+03  0.39551830360E+03  0.00000000000E+00 0. -1.
         21    1    1    2  505  502  0.59927093086E+02 -0.68639817764E+02 -0.29260009645E+03  0.30645961808E+03  0.00000000000E+00 0. -1.
         21    1    1    2  506  503  0.41344499532E+02  0.82460848700E+02 -0.35925173290E+03  0.37090560362E+03  0.00000000000E+00 0. -1.
<scales pt_clust_3="53.24645" pt_clust_4="240.43822" pt_clust_5="91.11905" pt_clust_6="53.24645"></scales>
<clustering>
<clus scale="   53.246">  3  6 -1 -1</clus>
<clus scale="   91.119">  2  5  1 -1</clus>
<clus scale="  240.438">  1  4  2 -1</clus>
<clus scale="  240.438">  1  3  2 -1</clus>
</clustering>
</event>
<event>
 6    0  0.3042851E+002  0.1495827E+03  0.7546771E-02  0.1200987E+00
         21   -1    0    0  503  501  0.00000000000E+00  0.00000000000E+00  0.35813113247E+02  0.35813113247E+02  0.00000000000E+00 0. -1.
         21   -1    0    0  505  502 -0.00000000000E+00 -0.00000000000E+00 -0.21406439442E+04  0.21406439442E+04  0.00000000000E+00 0.  1.
         21    1    1    2  503  502  0.41325188592E+02  0.16876407363E+03 -0.17319844499E+04  0.17406778043E+04  0.00000000000E+00 0.  1.
         21    1    1    2  504  501  0.14546032250E+02 -0.28254914390E+02 -0.87842463580E+02  0.93414268980E+02  0.00000000000E+00 0.  1.
         21    1    1    2  505  506 -0.28211722949E+02 -0.18131369538E+02 -0.16629281988E+03  0.16964064907E+03  0.00000000000E+00 0. -1.
         21    1    1    2  506  504 -0.27659497893E+02 -0.12237778970E+03 -0.11871109759E+03  0.17272433507E+03  0.00000000000E+00 0. -1.
<scales pt_clust_3="14000.00000" pt_clust_4="31.77935" pt_clust_5="33.72795" pt_clust_6="149.58274"></scales>
<clustering>
<clus scale="   31.779">  1  4  2 -1</clus>
<clus scale="   33.728">  2  5  1 -1</clus>
<clus scale="  149.583">  1  6  2 -1</clus>
<clus scale="   31.779">  1  3  2 -1</clus>
</clustering>
</event>
<event>
 6    0  0.3042851E+002  0.1179685E+03  0.7546771E-02  0.1246487E+00
         21   -1    0    0  503  501  0.00000000000E+00  0.00000000000E+00  0.17105697194E+04  0.17105697194E+04  0.00000000000E+00 0.  1.
         21   -1    0    0  505  502 -0.00000000000E+00 -0.00000000000E+00 -0.10896841101E+02  0.10896841101E+02  0.00000000000E+00 0.  1.
         21    1    1    2  503  504 -0.15652715660E+02 -0.61713874112E+02  0.62817140934E+03  0.63138968100E+03  0.00000000000E+00 0.  1.
         21    1    1    2  504  506 -0.53420576788E+02 -0.26442694386E+02  0.41131599984E+03  0.41561259105E+03  0.00000000000E+00 0.  1.
         21    1    1    2  505  501  0.31116839316E+02 -0.62539875600E+01  0.24223292377E+03  0.24430341669E+03  0.00000000000E+00 0. -1.
         21    1    1    2  506  502  0.37956453133E+02  0.94410556058E+02  0.41795254531E+03  0.43016087172E+03  0.00000000000E+00 0.  1.
<scales pt_clust_3="50.70574" pt_clust_4="50.70574" pt_clust_5="31.73909" pt_clust_6="103.82476"></scales>
<clustering>
<clus scale="   31.739">  1  5  2 -1</clus>
<clus scale="   50.706">  3  4 -1 -1</clus>
<clus scale="  103.825">  2  6  1 -1</clus>
<clus scale="   31.739">  1  3  2 -1</clus>
</clustering>
</event>
<event>
 6    0  0.3042851E+002  0.4801548E+03  0.7546771E-02  0.1019093E+00
         21   -1    0    0  504  501  0.00000000000E+00  0.00000000000E+00  0.36646655641E+03  0.36646655641E+03  0.00000000000E+00 0.  1.
         21   -1    0    0  501  502 -0.00000000000E+00 -0.00000000000E+00 -0.74459164349E+03  0.74459164349E+03  0.00000000000E+00 0.  1.
         21    1    1    2  503  505  0.48769664737E+02  0.49196150158E+01 -0.64753524650E+02  0.81213925930E+02  0.00000000000E+00 0.  1.
         21    1    1    2  504  506 -0.28364580071E+03 -0.19551247549E+03  0.33514848003E+02  0.34612615239E+03  0.00000000000E+00 0.  1.
         21    1    1    2  505  502  0.30431367509E+03  0.30163085699E+03 -0.34918365785E+03  0.55273611574E+03  0.00000000000E+00 0.  1.
         21    1    1    2  506  503 -0.69437539114E+02 -0.11103799652E+03  0.22972474158E+01  0.13098200584E+03  0.00000000000E+00 0.  1.
<scales pt_clust_3="36.90844" pt_clust_4="475.76222" pt_clust_5="36.90844" pt_clust_6="54.13363"></scales>
<clustering>
<clus scale="   36.908">  3  5 -1 -1</clus>
<clus scale="   54.134">  4  6 -1 -1</clus>
<clus scale="  475.762">  1  4  2 -1</clus>
<clus scale="  475.762">  1  3  2 -1</clus>
</clustering>
</event>
<event>
 6    0  0.3042851E+002  0.1718227E+03  0.7546771E-02  0.1175960E+00
         21   -1    0    0  503  501  0.00000000000E+00  0.00000000000E+00  0.36082405371E+03  0.36082405371E+03  0.00000000000E+00 0. -1.
         21   -1    0    0  506  502 -0.00000000000E+00 -0.00000000000E+00 -0.57997015533E+03  0.57997015533E+03  0.00000000000E+00 0. -1.
         21    1    1    2  503  504  0.61075679712E+02  0.91114270654E+02  0.25040949887E+03  0.27338062494E+03  0.00000000000E+00 0. -1.
         21    1    1    2  504  505  0.27871118406E+02  0.49778097113E+02  0.67964280730E+02  0.88734444544E+02  0.00000000000E+00 0. -1.
         21    1    1    2  505  502 -0.45620376348E+02 -0.14729775708E+03 -0.49162112131E+03  0.51523700847E+03  0.00000000000E+00 0. -1.
         21    1    1    2  506  501 -0.43326421770E+02  0.64053893142E+01 -0.45898759909E+02  0.63442131087E+02  0.00000000000E+00 0.  1.
<scales pt_clust_3="32.27832" pt_clust_4="32.27832" pt_clust_5="165.89083" pt_clust_6="43.79735"></scales>
<clustering>
<clus scale="   32.278">  3  4 -1 -1</clus>
<clus scale="   43.797">  2  6  1 -1</clus>
<clus scale="  165.891">  2  5  1 -1</clus>
<clus scale="  171.823">  1  3  2 -1</clus>
</clustering>
</event>
<event>
 6    0  0.3042851E+002  0.6901725E+02  0.7546771E-02  0.1363467E+00
         21   -1    0    0  504  501  0.00000000000E+00  0.00000000000E+00  0.17743597741E+04  0.17743597741E+04  0.00000000000E+00 0. -1.
         21   -1    0    0  505  502 -0.00000000000E+00 -0.00000000000E+00 -0.18818284618E+03  0.18818284618E+03  0.00000000000E+00 0.  1.
         21    1    1    2  503  501  0.51733624231E+02  0.42110917979E+02  0.15977855247E+04  0.15991773761E+04  0.00000000000E+00 0. -1.
         21    1    1    2  504  502  0.47272265727E+02 -0.21048012967E+02 -0.13201185202E+03  0.14179144907E+03  0.00000000000E+00 0.  1.
         21    1    1    2  505  506 -0.56030340417E+01 -0.36831657919E+02 -0.27243227485E+02  0.46153639719E+02  0.00000000000E+00 0.  1.
         21    1    1    2  506  503 -0.93402855916E+02  0.15768752908E+02  0.14764648274E+03  0.17542015542E+03  0.00000000000E+00 0.  1.
<scales pt_clust_3="66.57937" pt_clust_4="69.01725" pt_clust_5="37.25540" pt_clust_6="14000.00000"></scales>
<clustering>
<clus scale="   37.255">  2  5  1 -1</clus>
<clus scale="   66.579">  1  3  2 -1</clus>
<clus scale="   69.017">  2  4  1 -1</clus>
<clus scale="   66.579">  1  3  2 -1</clus>
</clustering>
</event>
<event>
 6    0  0.3042851E+002  0.2829803E+03  0.7546771E-02  0.1094072E+00
         21   -1    0    0  505  501  0.00000000000E+00  0.00000000000E+00  0.23652221430E+03  0.23652221430E+03  0.00000000000E+00 0.  1.
         21   -1    0    0  506  502 -0.00000000000E+00 -0.00000000000E+00 -0.58966328326E+03  0.58966328326E+03  0.00000000000E+00 0.  1.
         21    1    1    2  503  501 -0.47668373609E+01 -0.40056361280E+02  0.70707209084E+02  0.81404817019E+02  0.00000000000E+00 0.  1.
         21    1    1    2  504  502 -0.34260989757E+02  0.99039545045E+00 -0.60849514109E+02  0.69838812057E+02  0.00000000000E+00 0.  1.
         21    1    1    2  505  504 -0.13088840500E+03 -0.22113574915E+03 -0.14186204083E+03  0.29352620452E+03  0.00000000000E+00 0.  1.
         21    1    1    2  506  503  0.16991623212E+03  0.26020171498E+03 -0.22113672311E+03  0.38141566397E+03  0.00000000000E+00 0.  1.
<scales pt_clust_3="40.37177" pt_clust_4="34.27530" pt_clust_5="282.98033" pt_clust_6="14000.00000"></scales>
<clustering>
<clus scale="   34.275">  2  4  1 -1</clus>
<clus scale="   40.372">  1  3  2 -1</clus>
<clus scale="  282.980">  1  5  2 -1</clus>
<clus scale="   40.372">  1  3  2 -1</clus>
</clustering>
</event>
<event>
 6    0  0.3042851E+002  0.1097133E+03  0.7546771E-02  0.1261102E+00
         21   -1    0    0  504  501  0.00000000000E+00  0.00000000000E+00  0.26130432298E+03  0.26130432298E+03  0.00000000000E+00 0. -1.
         21   -1    0    0  506  502 -0.00000000000E+00 -0.00000000000E+00 -0.53932039018E+03  0.53932039018E+03  0.00000000000E+00 0. -1.
         21    1    1    2  503  501 -0.12463942914E+03 -0.77636680776E+02  0.17217326371E+03  0.22628759187E+03  0.00000000000E+00 0. -1.
         21    1    1    2  504  505  0.73890208211E+02 -0.26734220153E+02  0.23163408197E+02  0.81920845186E+02  0.00000000000E+00 0. -1.
         21    1    1    2  505  502  0.47339701151E+02  0.45267571308E+02 -0.34371688926E+03  0.34990212957E+03  0.00000000000E+00 0. -1.
         21    1    1    2  506  503  0.34095197752E+01  0.59103329621E+02 -0.12963584985E+03  0.14251414654E+03  0.00000000000E+00 0. -1.
<scales pt_clust_3="109.71328" pt_clust_4="77.45681" pt_clust_5="14000.00000" pt_clust_6="59.20159"></scales>
<clustering>
<clus scale="   59.202">  2  6  1 -1</clus>
<clus scale="   77.457">  1  4  2 -1</clus>
<clus scale="  109.713">  1  3  2 -1</clus>
<clus scale="   77.457">  1  3  2 -1</clus>
</clustering>
</event>
<event>
 6    0  0.3042851E+002  0.8256072E+02  0.7546771E-02  0.1321938E+00
         21   -1    0    0  503  501  0.00000000000E+00  0.00000000000E+00  0.35490526179E+03  0.35490526179E+03  0.00000000000E+00 0. -1.
         21   -1    0    0  505  502 -0.00000000000E+00 -0.00000000000E+00 -0.16779417355E+04  0.16779417355E+04  0.00000000000E+00 0. -1.
         21    1    1    2  503  504 -0.69678062721E+02  0.44753937117E+02  0.29850993057E+03  0.30978399888E+03  0.00000000000E+00 0. -1.
         21    1    1    2  504  502  0.16061697489E+02 -0.10263381539E+03 -0.10001824809E+04  0.10055628639E+04  0.00000000000E+00 0. -1.
         21    1    1    2  505  506  0.25106534441E+02  0.31203676248E+02 -0.66079596653E+03  0.66200854743E+03  0.00000000000E+00 0. -1.
         21    1    1    2  506  501  0.28509830790E+02  0.26676202023E+02  0.39432043162E+02  0.55491587056E+02  0.00000000000E+00 0.  1.
<scales pt_clust_3="82.56072" pt_clust_4="14000.00000" pt_clust_5="40.12629" pt_clust_6="39.04395"></scales>
<clustering>
<clus scale="   39.044">  1  6  2 -1</clus>
<clus scale="   40.126">  2  5  1 -1</clus>
<clus scale="   82.561">  1  3  2 -1</clus>
<clus scale="   39.044">  1  3  2 -1</clus>
</clustering>
</event>
<event>
 6    0  0.3042851E+002  0.2430750E+03  0.7546771E-02  0.1117761E+00
         21   -1    0    0  506  501  0.00000000000E+00  0.00000000000E+00  0.80474255628E+02  0.80474255628E+02  0.00000000000E+00 0.  1.
         21   -1    0    0  505  502 -0.00000000000E+00 -0.00000000000E+00 -0.17058308985E+04  0.17058308985E+04  0.00000000000E+00 0.  1.
         21    1    1    2  503  502 -0.40093412462E+02 -0.10507523915E+03 -0.25381190336E+03  0.27761262560E+03  0.00000000000E+00 0. -1.
         21    1    1    2  504  501  0.87077579556E+02  0.64537623180E+02 -0.29097166597E+03  0.31050301136E+03  0.00000000000E+00 0.  1.
         21    1    1    2  505  504  0.16093019273E+03  0.10879842396E+03 -0.88052425360E+03  0.90169761293E+03  0.00000000000E+00 0.  1.
         21    1    1    2  506  503 -0.20791435982E+03 -0.68260807991E+02 -0.20004881999E+03  0.29649190429E+03  0.00000000000E+00 0.  1.
<scales pt_clust_3="112.46461" pt_clust_4="55.26736" pt_clust_5="55.26736" pt_clust_6="231.54057"></scales>
<clustering>
<clus scale="   55.267">  4  5 -1 -1</clus>
<clus scale="  112.465">  2  3  1 -1</clus>
<clus scale="  231.541">  1  6  2 -1</clus>
<clus scale="  231.541">  1  3  2 -1</clus>
</clustering>
</event>
<event>
 6    0  0.3042851E+002  0.1397538E+03  0.7546771E-02  0.1213661E+00
         21   -1    0    0  506  501  0.00000000000E+00  0.00000000000E+00  0.27884265546E+03  0.27884265546E+03  0.00000000000E+00 0.  1.
         21   -1    0    0  505  502 -0.00000000000E+00 -0.00000000000E+00 -0.14062488853E+03  0.14062488853E+03  0.00000000000E+00 0.  1.
         21    1    1    2  503  502 -0.85413297664E+02  0.58112213051E+01  0.63045147979E+02  0.10631976484E+03  0.00000000000E+00 0.  1.
         21    1    1    2  504  501  0.94427549013E+02  0.36327523842E+02 -0.15112208085E+02  0.10229677333E+03  0.00000000000E+00 0.  1.
         21    1    1    2  505  504  0.64312887677E+02 -0.55625014239E+02 -0.10293804994E+02  0.85651924390E+02  0.00000000000E+00 0.  1.
         21    1    1    2  506  503 -0.73327139026E+02  0.13486269092E+02  0.10057863202E+03  0.12519908143E+03  0.00000000000E+00 0.  1.
<scales pt_clust_3="33.09041" pt_clust_4="135.18065" pt_clust_5="85.03111" pt_clust_6="33.09041"></scales>
<clustering>
<clus scale="   33.090">  3  6 -1 -1</clus>
<clus scale="   85.031">  2  5  1 -1</clus>
<clus scale="  135.181">  2  4  1 -1</clus>
<clus scale="  139.754">  1  3  2 -1</clus>
</clustering>
</event>
<event>
 6    0  0.3042851E+002  0.1022947E+03  0.7546771E-02  0.1275543E+00
         21   -1    0    0  504  501  0.00000000000E+00  0.00000000000E+00  0.43167650794E+03  0.43167650794E+03  0.00000000000E+00 0. -1.
         21   -1    0    0  503  502 -0.00000000000E+00 -0.00000000000E+00 -0.21515160446E+03  0.21515160446E+03  0.00000000000E+00 0.  1.
         21    1    1    2  503  505 -0.12421372199E+03 -0.72960756664E+02 -0.11616719408E+03  0.18505982202E+03  0.00000000000E+00 0.  1.
         21    1    1    2  504  506  0.12857635749E+03  0.70365347722E+01  0.31051238138E+03  0.33615373196E+03  0.00000000000E+00 0. -1.
         21    1    1    2  505  501 -0.48551362941E+02  0.37300847802E+02  0.36204806258E+02  0.71129291339E+02  0.00000000000E+00 0.  1.
         21    1    1    2  506  502  0.44188727445E+02  0.28623374089E+02 -0.14025090063E+02  0.54485267079E+02  0.00000000000E+00 0.  1.
<scales pt_clust_3="14000.00000" pt_clust_4="102.29473" pt_clust_5="59.71888" pt_clust_6="52.64923"></scales>
<clustering>
<clus scale="   52.649">  2  6  1 -1</clus>
<clus scale="   59.719">  1  5  2 -1</clus>
<clus scale="  102.295">  1  4  2 -1</clus>
<clus scale="   59.719">  1  3  2 -1</clus>
</clustering>
</event>
<event>
 6    0  0.3042851E+002  0.2123942E+03  0.7546771E-02  0.1139684E+00
         21   -1    0    0  504  501  0.00000000000E+00  0.00000000000E+00  0.32794702999E+03  0.32794702999E+03  0.00000000000E+00 0. -1.
         21   -1    0    0  506  502 -0.00000000000E+00 -0.00000000000E+00 -0.26866786026E+03  0.26866786026E+03  0.00000000000E+00 0. -1.
         21    1    1    2  503  502 -0.99608299139E+02  0.11699775901E+03  0.18452870806E+03  0.24012732657E+03  0.00000000000E+00 0. -1.
         21    1    1    2  504  503 -0.57967658755E+02  0.36791170085E+01  0.54779437466E+02  0.79840917659E+02  0.00000000000E+00 0. -1.
         21    1    1    2  505  501  0.52629048355E+02 -0.83517777409E+02 -0.83533121480E+02  0.12931673619E+03  0.00000000000E+00 0. -1.
         21    1    1    2  506  505  0.10494690954E+03 -0.37159098609E+02 -0.96495854313E+02  0.14732990983E+03  0.00000000000E+00 0. -1.
<scales pt_clust_3="46.49258" pt_clust_4="46.49258" pt_clust_5="64.76057" pt_clust_6="210.05460"></scales>
<clustering>
<clus scale="   46.493">  3  4 -1 -1</clus>
<clus scale="   64.761">  5  6 -1 -1</clus>
<clus scale="  210.055">  2  5  1 -1</clus>
<clus scale="  212.394">  1  3  2 -1</clus>
</clustering>
</event>
<event>
 6    0  0.3042851E+002  0.3005793E+03  0.7546771E-02  0.1084951E+00
         21   -1    0    0  505  501  0.00000000000E+00  0.00000000000E+00  0.86074333980E+03  0.86074333980E+03  0.00000000000E+00 0. -1.
         21   -1    0    0  506  502 -0.00000000000E+00 -0.00000000000E+00 -0.29003479205E+04  0.29003479205E+04  0.00000000000E+00 0. -1.
         21    1    1    2  503  501 -0.62050751762E+02  0.12774504704E+02  0.19561536013E+01  0.63382255416E+02  0.00000000000E+00 0. -1.
         21    1    1    2  504  503  0.11052795458E+03  0.32253973650E+02 -0.14180209666E+04  0.14226876710E+04  0.00000000000E+00 0. -1.
         21    1    1    2  505  502 -0.22315276237E+03 -0.42080904356E+01  0.80494632339E+03  0.83531637534E+03  0.00000000000E+00 0. -1.
         21    1    1    2  506  504  0.17467555955E+03 -0.40820387918E+02 -0.14284860911E+04  0.14397049585E+04  0.00000000000E+00 0. -1.
<scales pt_clust_3="63.35206" pt_clust_4="77.19557" pt_clust_5="284.73356" pt_clust_6="77.19557"></scales>
<clustering>
<clus scale="   63.352">  1  3  2 -1</clus>
<clus scale="   77.196">  4  6 -1 -1</clus>
<clus scale="  284.734">  1  5  2 -1</clus>
<clus scale="   63.352">  1  3  2 -1</clus>
</clustering>
</event>
<event>
 6    0  0.3042851E+002  0.3180056E+03  0.7546771E-02  0.1076571E+00
         21   -1    0    0  506  501  0.00000000000E+00  0.00000000000E+00  0.57565839555E+03  0.57565839555E+03  0.00000000000E+00 0. -1.
         21   -1    0    0  504  502 -0.00000000000E+00 -0.00000000000E+00 -0.20875273126E+03  0.20875273126E+03  0.00000000000E+00 0.  1.
         21    1    1    2  503  501 -0.30244285899E+02 -0.48204095224E+02  0.41816456123E+02  0.70618465210E+02  0.00000000000E+00 0.  1.
         21    1    1    2  504  505  0.11167851377E+03  0.41079426633E+02  0.44849278879E+02  0.12716551241E+03  0.00000000000E+00 0.  1.
         21    1    1    2  505  503  0.21437629717E+03  0.86463795179E+00  0.15885011114E+03  0.26681698259E+03  0.00000000000E+00 0.  1.
         21    1    1    2  506  502 -0.29581052504E+03  0.62600306395E+01  0.12138981814E+03  0.31981016660E+03  0.00000000000E+00 0. -1.
<scales pt_clust_3="56.90652" pt_clust_4="56.03939" pt_clust_5="56.03939" pt_clust_6="308.98190"></scales>
<clustering>
<clus scale="   56.039">  4  5 -1 -1</clus>
<clus scale="   56.907">  1  3  2 -1</clus>
<clus scale="  308.982">  2  6  1 -1</clus>
<clus scale="   56.907">  1  3  2 -1</clus>
</clustering>
</event>
<event>
 6    0  0.3042851E+002  0.1249935E+03  0.7546771E-02  0.1235079E+00
         21   -1    0    0  504  501  0.00000000000E+00  0.00000000000E+00  0.44938266286E+03  0.44938266286E+03  0.00000000000E+00 0. -1.
         21   -1    0    0  503  502 -0.00000000000E+00 -0.00000000000E+00 -0.93770819434E+03  0.93770819434E+03  0.00000000000E+00 0. -1.
         21    1    1    2  503  501  0.64565677716E+02  0.93267830706E+01 -0.22094509667E+03  0.23037458924E+03  0.00000000000E+00 0. -1.
         21    1    1    2  504  506 -0.64880844540E+02  0.17754710616E+02  0.36965723068E+03  0.37572759006E+03  0.00000000000E+00 0. -1.
         21    1    1    2  505  502  0.64930970859E+02 -0.53795194566E+02 -0.68883247631E+03  0.69397415972E+03  0.00000000000E+00 0. -1.
         21    1    1    2  506  505 -0.64615804035E+02  0.26713700880E+02  0.51794810828E+02  0.87014518182E+02  0.00000000000E+00 0.  1.
<scales pt_clust_3="65.23585" pt_clust_4="67.01142" pt_clust_5="14000.00000" pt_clust_6="124.99347"></scales>
<clustering>
<clus scale="   65.236">  2  3  1 -1</clus>
<clus scale="   67.011">  1  4  2 -1</clus>
<clus scale="  124.993">  1  6  2 -1</clus>
<clus scale="   67.011">  1  3  2 -1</clus>
</clustering>
</event>
<event>
 6    0  0.3042851E+002  0.9079400E+02  0.7546771E-02  0.1300940E+00
         21   -1    0    0  505  501  0.00000000000E+00  0.00000000000E+00  0.32392238254E+03  0.32392238254E+03  0.00000000000E+00 0. -1.
         21   -1    0    0  504  502 -0.00000000000E+00 -0.00000000000E+00 -0.63560246272E+03  0.63560246272E+03  0.00000000000E+00 0. -1.
         21    1    1    2  503  502  0.63078158539E+01 -0.33837730486E+02 -0.67936056298E+02  0.76158310713E+02  0.00000000000E+00 0. -1.
         21    1    1    2  504  506  0.53416850285E+02 -0.34856140069E+02 -0.52856517675E+03  0.53239971494E+03  0.00000000000E+00 0. -1.
         21    1    1    2  505  503  0.39031924680E+02 -0.32695390020E+02  0.28983604161E+02  0.58587788684E+02  0.00000000000E+00 0.  1.
         21    1    1    2  506  501 -0.98756590819E+02  0.10138926057E+03  0.25583754872E+03  0.29237903092E+03  0.00000000000E+00 0. -1.
<scales pt_clust_3="34.42064" pt_clust_4="90.79400" pt_clust_5="51.61732" pt_clust_6="14000.00000"></scales>
<clustering>
<clus scale="   34.421">  2  3  1 -1</clus>
<clus scale="   51.617">  1  5  2 -1</clus>
<clus scale="   90.794">  2  4  1 -1</clus>
<clus scale="   51.617">  1  3  2 -1</clus>
</clustering>
</event>
<event>
 6    0  0.3042851E+002  0.1765157E+03  0.7546771E-02  0.1171218E+00
         21   -1    0    0  505  501  0.00000000000E+00  0.00000000000E+00  0.63023664343E+03  0.63023664343E+03  0.00000000000E+00 0.  1.
         21   -1    0    0  504  502 -0.00000000000E+00 -0.00000000000E+00 -0.34251420887E+03  0.34251420887E+03  0.00000000000E+00 0. -1.
         21    1    1    2  503  501 -0.11412058302E+03 -0.61358595930E+02  0.47716170516E+03  0.49444077262E+03  0.00000000000E+00 0.  1.
         21    1    1    2  504  503  0.63772336186E+02  0.25592115094E+02  0.59932673704E+00  0.68718457565E+02  0.00000000000E+00 0. -1.
         21    1    1    2  505  506 -0.20963210440E+01 -0.89380551162E+02  0.71809941442E+02  0.11467321038E+03  0.00000000000E+00 0.  1.
         21    1    1    2  506  502  0.52444567875E+02  0.12514703200E+03 -0.26184853878E+03  0.29491841173E+03  0.00000000000E+00 0. -1.
<scales pt_clust_3="176.51566" pt_clust_4="68.71584" pt_clust_5="87.63350" pt_clust_6="14000.00000"></scales>
<clustering>
<clus scale="   68.716">  2  4  1 -1</clus>
<clus scale="   87.633">  1  5  2 -1</clus>
<clus scale="  176.516">  1  3  2 -1</clus>
<clus scale="   87.633">  1  3  2 -1</clus>
</clustering>
</event>
<event>
 6    0  0.3042851E+002  0.9792500E+02  0.7546771E-02  0.1284721E+00
         21   -1    0    0  505  501  0.00000000000E+00  0.00000000000E+00  0.24491463172E+04  0.24491463172E+04  0.00000000000E+00 0.  1.
         21   -1    0    0  503  502 -0.00000000000E+00 -0.00000000000E+00 -0.45165974310E+02  0.45165974310E+02  0.00000000000E+00 0.  1.
         21    1    1    2  503  504  0.90078063678E+02  0.35228276486E+02  0.52033516210E+03  0.52924830650E+03  0.00000000000E+00 0.  1.
         21    1    1    2  504  501  0.12274884732E+02  0.40327835508E+02  0.10934010083E+04  0.10942133120E+04  0.00000000000E+00 0.  1.
         21    1    1    2  505  506 -0.30395302068E+02 -0.78607472973E+01  0.76919777397E+03  0.76983821756E+03  0.00000000000E+00 0.  1.
         21    1    1    2  506  502 -0.71957646341E+02 -0.67695364696E+02  0.21046398490E+02  0.10101245546E+03  0.00000000000E+00 0.  1.
<scales pt_clust_3="14000.00000" pt_clust_4="36.00270" pt_clust_5="31.39531" pt_clust_6="97.92500"></scales>
<clustering>
<clus scale="   31.395">  1  5  2 -1</clus>
<clus scale="   36.003">  1  4  2 -1</clus>
<clus scale="   97.925">  2  6  1 -1</clus>
<clus scale="   31.395">  1  3  2 -1</clus>
</clustering>
</event>
<event>
 6    0  0.3042851E+002  0.1716969E+03  0.7546771E-02  0.1176090E+00
         21   -1    0    0  503  501  0.00000000000E+00  0.00000000000E+00  0.86270867466E+03  0.86270867466E+03  0.00000000000E+00 0.  1.
         21   -1    0    0  506  502 -0.00000000000E+00 -0.00000000000E+00 -0.80840146847E+02  0.80840146847E+02  0.00000000000E+00 0.  1.
         21    1    1    2  503  505 -0.10233530888E+03  0.68090852376E+02  0.64081490370E+03  0.65249721871E+03  0.00000000000E+00 0.  1.
         21    1    1    2  504  502  0.10343376249E+03 -0.71939653076E+02 -0.22452433385E+01  0.12601149957E+03  0.00000000000E+00 0.  1.
         21    1    1    2  505  504 -0.24492883571E+02  0.34226009494E+02  0.90300320716E+02  0.99626648006E+02  0.00000000000E+00 0. -1.
         21    1    1    2  506  501  0.23394429967E+02 -0.30377208794E+02  0.52998546737E+02  0.65413455220E+02  0.00000000000E+00 0. -1.
<scales pt_clust_3="39.02256" pt_clust_4="157.71217" pt_clust_5="39.02256" pt_clust_6="38.34155"></scales>
<clustering>
<clus scale="   38.342">  2  6  1 -1</clus>
<clus scale="   39.023">  3  5 -1 -1</clus>
<clus scale="  157.712">  2  4  1 -1</clus>
<clus scale="  171.697">  1  3  2 -1</clus>
</clustering>
</event>
<event>
 6    0  0.3042851E+002  0.8170161E+02  0.7546771E-02  0.1324291E+00
         21   -1    0    0  504  501  0.00000000000E+00  0.00000000000E+00  0.24476429639E+03  0.24476429639E+03  0.00000000000E+00 0.  1.
         21   -1    0    0  505  502 -0.00000000000E+00 -0.00000000000E+00 -0.41672289946E+03  0.41672289946E+03  0.00000000000E+00 0.  1.
         21    1    1    2  503  502  0.97030348528E+02  0.13155989376E+02 -0.20536477646E+03  0.22751408748E+03  0.00000000000E+00 0.  1.
         21    1    1    2  504  503  0.26453617919E+02 -0.62023792487E+02  0.51114193305E+02  0.84613270193E+02  0.00000000000E+00 0.  1.
         21    1    1    2  505  506 -0.30501835780E+02  0.33781815981E+02 -0.16685793557E+03  0.17295416658E+03  0.00000000000E+00 0.  1.
         21    1    1    2  506  501 -0.92982130667E+02  0.15085987130E+02  0.14914991565E+03  0.17640567159E+03  0.00000000000E+00 0.  1.
<scales pt_clust_3="14000.00000" pt_clust_4="64.51659" pt_clust_5="45.51454" pt_clust_6="81.70161"></scales>
<clustering>
<clus scale="   45.515">  2  5  1 -1</clus>
<clus scale="   64.517">  1  4  2 -1</clus>
<clus scale="   81.702">  1  6  2 -1</clus>
<clus scale="   64.517">  1  3  2 -1</clus>
</clustering>
</event>
<event>
 6    0  0.3042851E+002  0.1011590E+03  0.7546771E-02  0.1277877E+00
         21   -1    0    0  506  501  0.00000000000E+00  0.00000000000E+00  0.62197175918E+02  0.62197175918E+02  0.00000000000E+00 0.  1.
         21   -1    0    0  503  502 -0.00000000000E+00 -0.00000000000E+00 -0.11949015758E+04  0.11949015758E+04  0.00000000000E+00 0.  1.
         21    1    1    2  503  505  0.56151325649E+01 -0.60870496971E+02 -0.81566562046E+03  0.81795302525E+03  0.00000000000E+00 0.  1.
         21    1    1    2  504  502 -0.23076973783E+02 -0.39649629212E+02 -0.96772516762E+02  0.10709603081E+03  0.00000000000E+00 0.  1.
         21    1    1    2  505  501  0.10891863583E+03  0.41775933673E+02 -0.18323357486E+03  0.21721657585E+03  0.00000000000E+00 0.  1.
         21    1    1    2  506  504 -0.91456794614E+02  0.58744192511E+02 -0.37032687772E+02  0.11483311978E+03  0.00000000000E+00 0.  1.
<scales pt_clust_3="91.24626" pt_clust_4="45.87635" pt_clust_5="101.15903" pt_clust_6="14000.00000"></scales>
<clustering>
<clus scale="   45.876">  2  4  1 -1</clus>
<clus scale="   91.246">  2  3  1 -1</clus>
<clus scale="  101.159">  2  5  1 -1</clus>
<clus scale="  101.159">  1  3  2 -1</clus>
</clustering>
</event>
<event>
 6    0  0.3042851E+002  0.7061279E+02  0.7546771E-02  0.1358022E+00
         21   -1    0    0  503  501  0.00000000000E+00  0.00000000000E+00  0.54708580258E+03  0.54708580258E+03  0.00000000000E+00 0.  1.
         21   -1    0    0  504  502 -0.00000000000E+00 -0.00000000000E+00 -0.40469618139E+02  0.40469618139E+02  0.00000000000E+00 0.  1.
         21    1    1    2  503  505 -0.25798952091E+01 -0.44626216565E+02  0.20868832011E+03  0.21342204669E+03  0.00000000000E+00 0.  1.
         21    1    1    2  504  506  0.59103793439E+02  0.26155481873E+02  0.39557569864E+02  0.75777100529E+02  0.00000000000E+00 0.  1.
         21    1    1    2  505  502 -0.98767105312E+02  0.25806299681E+02  0.14656515958E+03  0.17861201582E+03  0.00000000000E+00 0.  1.
         21    1    1    2  506  501  0.42243207082E+02 -0.73355649888E+01  0.11180513489E+03  0.11974425767E+03  0.00000000000E+00 0.  1.
<scales pt_clust_3="51.49805" pt_clust_4="70.61279" pt_clust_5="14000.00000" pt_clust_6="42.87539"></scales>
<clustering>
<clus scale="   42.875">  1  6  2 -1</clus>
<clus scale="   51.498">  1  3  2 -1</clus>
<clus scale="   70.613">  2  4  1 -1</clus>
<clus scale="   42.875">  1  3  2 -1</clus>
</clustering>
</event>
<event>
 6    0  0.3042851E+002  0.1870705E+03  0.7546771E-02  0.1161130E+00
         21   -1    0    0  504  501  0.00000000000E+00  0.00000000000E+00  0.28645712820E+04  0.28645712820E+04  0.00000000000E+00 0.  1.
         21   -1    0    0  503  502 -0.00000000000E+00 -0.00000000000E+00 -0.13077780329E+04  0.13077780329E+04  0.00000000000E+00 0.  1.
         21    1    1    2  503  501  0.36204591629E+02 -0.25442293984E+02  0.20316801933E+03  0.20793106275E+03  0.00000000000E+00 0. -1.
         21    1    1    2  504  505  0.11917621826E+03 -0.42986172873E+02  0.26507918618E+04  0.26538176796E+04  0.00000000000E+00 0.  1.
         21    1    1    2  505  506 -0.69180840882E+02  0.11062489514E+02 -0.29997791250E+03  0.30805050789E+03  0.00000000000E+00 0.  1.
         21    1    1    2  506  502 -0.86199969011E+02  0.57365977343E+02 -0.99718871949E+03  0.10025500647E+04  0.00000000000E+00 0.  1.
<scales pt_clust_3="44.25023" pt_clust_4="169.67158" pt_clust_5="64.79144" pt_clust_6="64.79144"></scales>
<clustering>
<clus scale="   44.250">  1  3  2 -1</clus>
<clus scale="   64.791">  5  6 -1 -1</clus>
<clus scale="  169.672">  1  4  2 -1</clus>
<clus scale="   44.250">  1  3  2 -1</clus>
</clustering>
</event>
<event>
 6    0  0.3042851E+002  0.1057296E+03  0.7546771E-02  0.1268689E+00
         21   -1    0    0  505  501  0.00000000000E+00  0.00000000000E+00  0.60656804392E+02  0.60656804392E+02  0.00000000000E+00 0.  1.
         21   -1    0    0  506  502 -0.00000000000E+00 -0.00000000000E+00 -0.45360631712E+03  0.45360631712E+03  0.00000000000E+00 0.  1.
         21    1    1    2  503  504 -0.23487302183E+02  0.58584295984E+02 -0.10686273619E+03  0.12411050514E+03  0.00000000000E+00 0. -1.
         21    1    1    2  504  501 -0.20185169655E+02  0.80248640889E+02 -0.44897313404E+02  0.94143795278E+02  0.00000000000E+00 0.  1.
         21    1    1    2  505  502  0.24766197361E+01 -0.74663360860E+02 -0.49253914894E+02  0.89480161112E+02  0.00000000000E+00 0.  1.
         21    1    1    2  506  503  0.41195852102E+02 -0.64169576013E+02 -0.19193554824E+03  0.20652865999E+03  0.00000000000E+00 0.  1.
<scales pt_clust_3="51.08947" pt_clust_4="51.08947" pt_clust_5="74.70442" pt_clust_6="88.07270"></scales>
<clustering>
<clus scale="   51.089">  3  4 -1 -1</clus>
<clus scale="   74.704">  1  5  2 -1</clus>
<clus scale="   88.073">  2  6  1 -1</clus>
<clus scale="   74.704">  1  3  2 -1</clus>
</clustering>
</event>
<event>
 6    0  0.3042851E+002  0.1801019E+03  0.7546771E-02  0.1167704E+00
         21   -1    0    0  504  501  0.00000000000E+00  0.00000000000E+00  0.14321239707E+04  0.14321239707E+04  0.00000000000E+00 0. -1.
         21   -1    0    0  501  502 -0.00000000000E+00 -0.00000000000E+00 -0.75125747183E+02  0.75125747183E+02  0.00000000000E+00 0.  1.
         21    1    1    2  503  506  0.15425057755E+03  0.70215992321E+02  0.10678178205E+04  0.10811838068E+04  0.00000000000E+00 0. -1.
         21    1    1    2  504  503  0.20431300907E+02 -0.52632922185E+02  0.22738623832E+03  0.23429076792E+03  0.00000000000E+00 0. -1.
         21    1    1    2  505  502 -0.11138596126E+03 -0.44980897416E+01  0.16130936083E+02  0.11263779239E+03  0.00000000000E+00 0.  1.
         21    1    1    2  506  505 -0.63295917197E+02 -0.13084980394E+02  0.45663228645E+02  0.79137350828E+02  0.00000000000E+00 0.  1.
<scales pt_clust_3="174.07019" pt_clust_4="56.45939" pt_clust_5="35.19385" pt_clust_6="35.19385"></scales>
<clustering>
<clus scale="   35.194">  5  6 -1 -1</clus>
<clus scale="   56.459">  1  4  2 -1</clus>
<clus scale="  174.070">  1  3  2 -1</clus>
<clus scale="   56.459">  1  3  2 -1</clus>
</clustering>
</event>
<event>
 6    0  0.3042851E+002  0.6218721E+02  0.7546771E-02  0.1388876E+00
         21   -1    0    0  503  501  0.00000000000E+00  0.00000000000E+00  0.11744529975E+03  0.11744529975E+03  0.00000000000E+00 0.  1.
         21   -1    0    0  505  502 -0.00000000000E+00 -0.00000000000E+00 -0.18532239057E+04  0.18532239057E+04  0.00000000000E+00 0.  1.
         21    1    1    2  503  504  0.53104824828E+02 -0.91834410603E+02  0.76610345906E+02  0.13085421847E+03  0.00000000000E+00 0.  1.
         21    1    1    2  504  502  0.33920600091E+02  0.35547661322E+02 -0.13260230245E+04  0.13269330446E+04  0.00000000000E+00 0.  1.
         21    1    1    2  505  506 -0.68465721222E+02  0.15793693115E+02 -0.44979158795E+03  0.45524660165E+03  0.00000000000E+00 0.  1.
         21    1    1    2  506  501 -0.18559703697E+02  0.40493056166E+02 -0.36574339405E+02  0.57635340737E+02  0.00000000000E+00 0.  1.
<scales pt_clust_3="14000.00000" pt_clust_4="49.20541" pt_clust_5="62.18721" pt_clust_6="44.54380"></scales>
<clustering>
<clus scale="   44.544">  1  6  2 -1</clus>
<clus scale="   49.205">  2  4  1 -1</clus>
<clus scale="   62.187">  2  5  1 -1</clus>
<clus scale="   44.544">  1  3  2 -1</clus>
</clustering>
</event>
<event>
 6    0  0.3042851E+002  0.1729151E+03  0.7546771E-02  0.1174841E+00
         21   -1    0    0  503  501  0.00000000000E+00  0.00000000000E+00  0.48965834041E+03  0.48965834041E+03  0.00000000000E+00 0.  1.
         21   -1    0    0  504  502 -0.00000000000E+00 -0.00000000000E+00 -0.10157338757E+03  0.10157338757E+03  0.00000000000E+00 0.  1.
         21    1    1    2  503  505  0.74976665289E+02  0.78190919536E+01  0.10512698757E+03  0.12936120768E+03  0.00000000000E+00 0. -1.
         21    1    1    2  504  501 -0.14469091551E+03 -0.12484821967E+02  0.26878154274E+03  0.30550752778E+03  0.00000000000E+00 0.  1.
         21    1    1    2  505  506  0.10496695596E+03  0.22018214430E+02  0.33789129457E+02  0.11244807193E+03  0.00000000000E+00 0.  1.
         21    1    1    2  506  502 -0.35252705738E+02 -0.17352484417E+02 -0.19612706932E+02  0.43914920590E+02  0.00000000000E+00 0.  1.
<scales pt_clust_3="68.84551" pt_clust_4="154.90504" pt_clust_5="68.84551" pt_clust_6="39.29201"></scales>
<clustering>
<clus scale="   39.292">  2  6  1 -1</clus>
<clus scale="   68.846">  3  5 -1 -1</clus>
<clus scale="  154.905">  1  4  2 -1</clus>
<clus scale="  154.905">  1  3  2 -1</clus>
</clustering>
</event>
<event>
 6    0  0.3042851E+002  0.1338436E+03  0.7546771E-02  0.1221861E+00
         21   -1    0    0  504  501  0.00000000000E+00  0.00000000000E+00  0.94403871565E+02  0.94403871565E+02  0.00000000000E+00 0.  1.
         21   -1    0    0  506  502 -0.00000000000E+00 -0.00000000000E+00 -0.79601472062E+03  0.79601472062E+03  0.00000000000E+00 0. -1.
         21    1    1    2  503  505  0.23530490778E+02 -0.46236936229E+02 -0.17022109411E+03  0.17795156405E+03  0.00000000000E+00 0. -1.
         21    1    1    2  504  502 -0.57914172137E+02  0.18125334868E+02 -0.32705356972E+02  0.68936343630E+02  0.00000000000E+00 0.  1.
         21    1    1    2  505  501 -0.31962230411E+02  0.67545522299E+02  0.49698185999E+02  0.89743475791E+02  0.00000000000E+00 0.  1.
         21    1    1    2  506  503  0.66345911770E+02 -0.39433920938E+02 -0.54838258397E+03  0.55378720871E+03  0.00000000000E+00 0. -1.
<scales pt_clust_3="49.41816" pt_clust_4="60.68426" pt_clust_5="119.50312" pt_clust_6="49.41816"></scales>
<clustering>
<clus scale="   49.418">  3  6 -1 -1</clus>
<clus scale="   60.684">  1  4  2 -1</clus>
<clus scale="  119.503">  1  5  2 -1</clus>
<clus scale="   60.684">  1  3  2 -1</clus>
</clustering>
</event>
<event>
 6    0  0.3042851E+002  0.4587171E+03  0.7546771E-02  0.1025154E+00
         21   -1    0    0  505  501  0.00000000000E+00  0.00000000000E+00  0.36957796452E+03  0.36957796452E+03  0.00000000000E+00 0.  1.
         21   -1    0    0  506  502 -0.00000000000E+00 -0.00000000000E+00 -0.64633053009E+03  0.64633053009E+03  0.00000000000E+00 0.  1.
         21    1    1    2  503  502 -0.13349685173E+03 -0.17114933847E+03 -0.84943971822E+01  0.21722260532E+03  0.00000000000E+00 0.  1.
         21    1    1    2  504  501  0.71283616096E+02  0.91195770379E+02 -0.57434121997E+02  0.12921571432E+03  0.00000000000E+00 0. -1.
         21    1    1    2  505  503 -0.17869737240E+03 -0.15776482568E+03  0.48295656438E+02  0.24321793016E+03  0.00000000000E+00 0.  1.
         21    1    1    2  506  504  0.24091060803E+03  0.23771839377E+03 -0.25911970283E+03  0.42625224479E+03  0.00000000000E+00 0.  1.
<scales pt_clust_3="65.91551" pt_clust_4="30.32312" pt_clust_5="65.91551" pt_clust_6="456.44094"></scales>
<clustering>
<clus scale="   30.323">  4  6 -1 -1</clus>
<clus scale="   65.916">  3  5 -1 -1</clus>
<clus scale="  456.441">  2  4  1 -1</clus>
<clus scale="  458.717">  1  3  2 -1</clus>
</clustering>
</event>
<event>
 6    0  0.3042851E+002  0.9749650E+02  0.7546771E-02  0.1285650E+00
         21   -1    0    0  503  501  0.00000000000E+00  0.00000000000E+00  0.18339011577E+04  0.18339011577E+04  0.00000000000E+00 0. -1.
         21   -1    0    0  505  502 -0.00000000000E+00 -0.00000000000E+00 -0.49962145565E+02  0.49962145565E+02  0.00000000000E+00 0. -1.
         21    1    1    2  503  502  0.30715932851E+02 -0.37996193262E+01  0.90238876066E+02  0.95398953829E+02  0.00000000000E+00 0. -1.
         21    1    1    2  504  506 -0.72840708963E+02  0.11042331354E+03  0.41679325799E+03  0.43728217087E+03  0.00000000000E+00 0. -1.
         21    1    1    2  505  504  0.39847857425E+02 -0.58463991920E+02 -0.25683116773E+01  0.70798914662E+02  0.00000000000E+00 0. -1.
         21    1    1    2  506  501  0.22769186871E+01 -0.48159702292E+02  0.12794751898E+04  0.12803832639E+04  0.00000000000E+00 0. -1.
<scales pt_clust_3="30.95005" pt_clust_4="14000.00000" pt_clust_5="97.49650" pt_clust_6="48.26465"></scales>
<clustering>
<clus scale="   30.950">  2  3  1 -1</clus>
<clus scale="   48.265">  1  6  2 -1</clus>
<clus scale="   97.497">  2  5  1 -1</clus>
<clus scale="   48.265">  1  3  2 -1</clus>
</clustering>
</event>
<event>
 6    0  0.3042851E+002  0.9440711E+02  0.7546771E-02  0.1292517E+00
         21   -1    0    0  503  501  0.00000000000E+00  0.00000000000E+00  0.27769946000E+03  0.27769946000E+03  0.00000000000E+00 0.  1.
         21   -1    0    0  505  502 -0.00000000000E+00 -0.00000000000E+00 -0.13439127724E+03  0.13439127724E+03  0.00000000000E+00 0.  1.
         21    1    1    2  503  504  0.69057401907E+02 -0.67610907579E+02  0.12788132217E+03  0.16029283248E+03  0.00000000000E+00 0.  1.
         21    1    1    2  504  502  0.29721790523E+02  0.50920656263E+02 -0.16891954249E+01  0.58984332219E+02  0.00000000000E+00 0. -1.
         21    1    1    2  505  506 -0.19147278867E+02 -0.31153274054E+02 -0.61210356157E+02  0.71301139354E+02  0.00000000000E+00 0.  1.
         21    1    1    2  506  501 -0.79631913563E+02  0.47843525370E+02  0.78326412161E+02  0.12151243319E+03  0.00000000000E+00 0.  1.
<scales pt_clust_3="94.40711" pt_clust_4="42.68482" pt_clust_5="36.56699" pt_clust_6="14000.00000"></scales>
<clustering>
<clus scale="   36.567">  2  5  1 -1</clus>
<clus scale="   42.685">  2  4  1 -1</clus>
<clus scale="   94.407">  1  3  2 -1</clus>
<clus scale="   94.407">  1  3  2 -1</clus>
</clustering>
</event>
<event>
 6    0  0.3042851E+002  0.1458550E+03  0.7546771E-02  0.1205661E+00
         21   -1    0    0  503  501  0.00000000000E+00  0.00000000000E+00  0.81760424503E+03  0.81760424503E+03  0.00000000000E+00 0. -1.
         21   -1    0    0  505  502 -0.00000000000E+00 -0.00000000000E+00 -0.51029128394E+03  0.51029128394E+03  0.00000000000E+00 0.  1.
         21    1    1    2  503  504 -0.35887291514E+02 -0.41730624838E+02  0.19533463960E+03  0.20294078982E+03  0.00000000000E+00 0. -1.
         21    1    1    2  504  506 -0.21855439228E+02  0.42601713262E+02 -0.89023886301E+02  0.10108322575E+03  0.00000000000E+00 0.  1.
         21    1    1    2  505  501  0.98639817639E+02 -0.77455650245E+02  0.60131361431E+03  0.61425341198E+03  0.00000000000E+00 0. -1.
         21    1    1    2  506  502 -0.40897086897E+02  0.76584561821E+02 -0.40031140652E+03  0.40961810143E+03  0.00000000000E+00 0.  1.
<scales pt_clust_3="55.03947" pt_clust_4="42.16366" pt_clust_5="134.35076" pt_clust_6="42.16366"></scales>
<clustering>
<clus scale="   42.164">  4  6 -1 -1</clus>
<clus scale="   55.039">  1  3  2 -1</clus>
<clus scale="  134.351">  1  5  2 -1</clus>
<clus scale="   55.039">  1  3  2 -1</clus>
</clustering>
</event>
<event>
 6    0  0.3384151E+002  0.1394643E+03  0.7546771E-02  0.1214052E+00
         21   -1    0    0  503  501  0.00000000000E+00  0.00000000000E+00  0.20774524403E+04  0.20774524403E+04  0.00000000000E+00 0. -1.
         21   -1    0    0  506  502 -0.00000000000E+00 -0.00000000000E+00 -0.10488760535E+03  0.10488760535E+03  0.00000000000E+00 0.  1.
         21    1    1    2  503  504  0.81466073539E+02 -0.55441740847E+02  0.18638716696E+04  0.18664747811E+04  0.00000000000E+00 0. -1.
         21    1    1    2  504  502 -0.77417755536E+02  0.11400011651E+03 -0.39994768706E+02  0.14348908307E+03  0.00000000000E+00 0.  1.
         21    1    1    2  505  501  0.25811929349E+02 -0.37946547838E+02  0.11074251974E+03  0.11987535972E+03  0.00000000000E+00 0.  1.
         21    1    1    2  506  505 -0.29860247352E+02 -0.20611827828E+02  0.37945414373E+02  0.52500821805E+02  0.00000000000E+00 0.  1.
<scales pt_clust_3="14000.00000" pt_clust_4="139.46428" pt_clust_5="45.93630" pt_clust_6="36.28335"></scales>
<clustering>
<clus scale="   36.283">  2  6  1 -1</clus>
<clus scale="   45.936">  1  5  2 -1</clus>
<clus scale="  139.464">  2  4  1 -1</clus>
<clus scale="   45.936">  1  3  2 -1</clus>
</clustering>
</event>
<event>
 6    0  0.3042851E+002  0.1279696E+03  0.7546771E-02  0.1230500E+00
         21   -1    0    0  503  501  0.00000000000E+00  0.00000000000E+00  0.12116375373E+04  0.12116375373E+04  0.00000000000E+00 0. -1.
         21   -1    0    0  506  502 -0.00000000000E+00 -0.00000000000E+00 -0.77897406040E+02  0.77897406040E+02  0.00000000000E+00 0.  1.
         21    1    1    2  503  502  0.70588232502E+02 -0.13375539324E+03  0.23187196699E+02  0.15300604523E+03  0.00000000000E+00 0.  1.
         21    1    1    2  504  501 -0.12213642582E+02  0.69212665702E+02  0.82809974244E+03  0.83107686142E+03  0.00000000000E+00 0. -1.
         21    1    1    2  505  504 -0.60740900334E+01  0.43905385764E+02  0.20503551195E+03  0.20977163448E+03  0.00000000000E+00 0. -1.
         21    1    1    2  506  505 -0.52300499886E+02  0.20637341770E+02  0.77417680143E+02  0.95680402185E+02  0.00000000000E+00 0. -1.
<scales pt_clust_3="116.22912" pt_clust_4="42.52156" pt_clust_5="42.52156" pt_clust_6="56.22492"></scales>
<clustering>
<clus scale="   42.522">  4  5 -1 -1</clus>
<clus scale="   56.225">  2  6  1 -1</clus>
<clus scale="  116.229">  2  3  1 -1</clus>
<clus scale="  127.970">  1  3  2 -1</clus>
</clustering>
</event>
<event>
 6    0  0.3042851E+002  0.6195032E+02  0.7546771E-02  0.1389825E+00
         21   -1    0    0  506  501  0.00000000000E+00  0.00000000000E+00  0.27403656254E+04  0.27403656254E+04  0.00000000000E+00 0. -1.
         21   -1    0    0  505  502 -0.00000000000E+00 -0.00000000000E+00 -0.89008811543E+02  0.89008811543E+02  0.00000000000E+00 0. -1.
         21    1    1    2  503  501 -0.32954191983E+02 -0.30601496504E+02  0.25901210193E+03  0.26288723686E+03  0.00000000000E+00 0. -1.
         21    1    1    2  504  503 -0.43311140573E+02 -0.62153741755E+02 -0.58233770602E+02  0.95551632903E+02  0.00000000000E+00 0. -1.
         21    1    1    2  505  504 -0.81183503622E+01  0.29576078448E+02  0.16983168940E+02  0.35058238064E+02  0.00000000000E+00 0. -1.
         21    1    1    2  506  502  0.84383682918E+02  0.63179159811E+02  0.24335953136E+04  0.24358773291E+04  0.00000000000E+00 0. -1.
<scales pt_clust_3="44.63283" pt_clust_4="61.95032" pt_clust_5="30.67005" pt_clust_6="14000.00000"></scales>
<clustering>
<clus scale="   30.670">  2  5  1 -1</clus>
<clus scale="   44.633">  1  3  2 -1</clus>
<clus scale="   61.950">  2  4  1 -1</clus>
<clus scale="   44.633">  1  3  2 -1</clus>
</clustering>
</event>
<event>
 6    0  0.3042851E+002  0.1983079E+03  0.7546771E-02  0.1151175E+00
         21   -1    0    0  506  501  0.00000000000E+00  0.00000000000E+00  0.63900424800E+03  0.63900424800E+03  0.00000000000E+00 0. -1.
         21   -1    0    0  503  502 -0.00000000000E+00 -0.00000000000E+00 -0.10842549594E+03  0.10842549594E+03  0.00000000000E+00 0. -1.
         21    1    1    2  503  504 -0.69925071110E+01 -0.48497616758E+02  0.10782323242E+03  0.11843463782E+03  0.00000000000E+00 0. -1.
         21    1    1    2  504  501  0.80334332803E+02 -0.12418265054E+03  0.40350243162E+03  0.42975475337E+03  0.00000000000E+00 0. -1.
         21    1    1    2  505  502 -0.96454411748E+01  0.10237414430E+03  0.17820284084E+02  0.10436025336E+03  0.00000000000E+00 0. -1.
         21    1    1    2  506  505 -0.63696384517E+02  0.70306122988E+02  0.14328039366E+01  0.94880099375E+02  0.00000000000E+00 0. -1.
<scales pt_clust_3="35.76111" pt_clust_4="197.63014" pt_clust_5="61.71721" pt_clust_6="61.71721"></scales>
<clustering>
<clus scale="   35.761">  3  4 -1 -1</clus>
<clus scale="   61.717">  5  6 -1 -1</clus>
<clus scale="  197.630">  1  3  2 -1</clus>
<clus scale="  197.630">  1  3  2 -1</clus>
</clustering>
</event>
<event>
 6    0  0.3042851E+002  0.5648530E+03  0.7546771E-02  0.9981133E-01
         21   -1    0    0  504  501  0.00000000000E+00  0.00000000000E+00  0.55629581896E+03  0.55629581896E+03  0.00000000000E+00 0.  1.
         21   -1    0    0  503  502 -0.00000000000E+00 -0.00000000000E+00 -0.16985556053E+04  0.16985556053E+04  0.00000000000E+00 0. -1.
         21    1    1    2  503  505  0.22866957289E+03  0.31275153143E+03  0.16137468199E+03  0.41969641644E+03  0.00000000000E+00 0.  1.
         21    1    1    2  504  506 -0.39320846655E+02 -0.42557946091E+02 -0.32602739679E+02  0.66484933569E+02  0.00000000000E+00 0.  1.
         21    1    1    2  505  501  0.18870231549E+03  0.12680939507E+03  0.13161308592E+03  0.26269981145E+03  0.00000000000E+00 0.  1.
         21    1    1    2  506  502 -0.37805104173E+03 -0.39700298041E+03 -0.14026448146E+04  0.15059702629E+04  0.00000000000E+00 0. -1.
<scales pt_clust_3="84.85253" pt_clust_4="57.94228" pt_clust_5="84.85253" pt_clust_6="553.75922"></scales>
<clustering>
<clus scale="   57.942">  1  4  2 -1</clus>
<clus scale="   84.853">  3  5 -1 -1</clus>
<clus scale="  553.759">  2  6  1 -1</clus>
<clus scale="   57.942">  1  3  2 -1</clus>
</clustering>
</event>
<event>
 6    0  0.3042851E+002  0.1323457E+03  0.7546771E-02  0.1224016E+00
         21   -1    0    0  504  501  0.00000000000E+00  0.00000000000E+00  0.10217262736E+04  0.10217262736E+04  0.00000000000E+00 0. -1.
         21   -1    0    0  506  502 -0.00000000000E+00 -0.00000000000E+00 -0.79157307119E+02  0.79157307119E+02  0.00000000000E+00 0.  1.
         21    1    1    2  503  501 -0.30172441308E+02  0.88644460426E+02  0.39680395554E+03  0.40770282770E+03  0.00000000000E+00 0. -1.
         21    1    1    2  504  502  0.19469515216E+02  0.38769719926E+02  0.55416435731E+03  0.55585995369E+03  0.00000000000E+00 0. -1.
         21    1    1    2  505  503  0.24748056421E+02 -0.62028881382E+02 -0.19402301569E+02  0.69544933160E+02  0.00000000000E+00 0.  1.
         21    1    1    2  506  505 -0.14045130329E+02 -0.65385298971E+02  0.11002955159E+02  0.67775866130E+02  0.00000000000E+00 0.  1.
<scales pt_clust_3="122.79192" pt_clust_4="43.38379" pt_clust_5="48.63932" pt_clust_6="48.63932"></scales>
<clustering>
<clus scale="   43.384">  1  4  2 -1</clus>
<clus scale="   48.639">  5  6 -1 -1</clus>
<clus scale="  122.792">  1  3  2 -1</clus>
<clus scale="   43.384">  1  3  2 -1</clus>
</clustering>
</event>
<event>
 6    0  0.3042851E+002  0.1236105E+03  0.7546771E-02  0.1237257E+00
         21   -1    0    0  506  501  0.00000000000E+00  0.00000000000E+00  0.95778595090E+02  0.95778595090E+02  0.00000000000E+00 0. -1.
         21   -1    0    0  503  502 -0.00000000000E+00 -0.00000000000E+00 -0.62471834592E+03  0.62471834592E+03  0.00000000000E+00 0. -1.
         21    1    1    2  503  501  0.10797598497E+03  0.58799791960E+02 -0.60103232311E+02  0.13685257542E+03  0.00000000000E+00 0. -1.
         21    1    1    2  504  502 -0.45278280311E+02 -0.24313880924E+02 -0.17551505025E+03  0.18288471871E+03  0.00000000000E+00 0. -1.
         21    1    1    2  505  504 -0.12992394588E+02 -0.12478339851E+03 -0.26603789722E+03  0.29413578772E+03  0.00000000000E+00 0.  1.
         21    1    1    2  506  505 -0.49705310070E+02  0.90297487477E+02 -0.27283571055E+02  0.10662385916E+03  0.00000000000E+00 0. -1.
<scales pt_clust_3="123.61055" pt_clust_4="51.39346" pt_clust_5="14000.00000" pt_clust_6="103.44305"></scales>
<clustering>
<clus scale="   51.393">  2  4  1 -1</clus>
<clus scale="  103.443">  1  6  2 -1</clus>
<clus scale="  123.611">  1  3  2 -1</clus>
<clus scale="  103.443">  1  3  2 -1</clus>
</clustering>
</event>
<event>
 6    0  0.3042851E+002  0.1596023E+03  0.7546771E-02  0.1189147E+00
         21   -1    0    0  505  501  0.00000000000E+00  0.00000000000E+00  0.81224820377E+03  0.81224820377E+03  0.00000000000E+00 0.  1.
         21   -1    0    0  504  502 -0.00000000000E+00 -0.00000000000E+00 -0.39284562416E+03  0.39284562416E+03  0.00000000000E+00 0.  1.
         21    1    1    2  503  501  0.98503704391E+02 -0.27051597259E+02 -0.10922283598E+03  0.14954730554E+03  0.00000000000E+00 0.  1.
         21    1    1    2  504  503  0.61107527352E+02 -0.35841808643E+02 -0.23783406245E+03  0.24816084785E+03  0.00000000000E+00 0.  1.
         21    1    1    2  505  506  0.59820601163E+01  0.74896303961E+02  0.37024147447E+03  0.37778828835E+03  0.00000000000E+00 0.  1.
         21    1    1    2  506  502 -0.16559329186E+03 -0.12002898059E+02  0.39621800358E+03  0.42959738620E+03  0.00000000000E+00 0.  1.
<scales pt_clust_3="14000.00000" pt_clust_4="70.84324" pt_clust_5="74.37499" pt_clust_6="159.60226"></scales>
<clustering>
<clus scale="   70.843">  2  4  1 -1</clus>
<clus scale="   74.375">  1  5  2 -1</clus>
<clus scale="  159.602">  1  6  2 -1</clus>
<clus scale="   74.375">  1  3  2 -1</clus>
</clustering>
</event>
<event>
 6    0  0.3042851E+002  0.7120129E+02  0.7546771E-02  0.1356055E+00
         21   -1    0    0  506  501  0.00000000000E+00  0.00000000000E+00  0.10621974083E+03  0.10621974083E+03  0.00000000000E+00 0. -1.
         21   -1    0    0  505  502 -0.00000000000E+00 -0.00000000000E+00 -0.88236746552E+03  0.88236746552E+03  0.00000000000E+00 0.  1.
         21    1    1    2  503  501  0.23572312550E+02 -0.70500880577E+02  0.30334743081E+02  0.80288384707E+02  0.00000000000E+00 0. -1.
         21    1    1    2  504  503  0.80122837737E+02  0.38260958065E+02 -0.63717614536E+03  0.64333273682E+03  0.00000000000E+00 0.  1.
         21    1    1    2  505  504 -0.50443668787E+02  0.29251537911E+02 -0.19659119923E+03  0.20505685994E+03  0.00000000000E+00 0. -1.
         21    1    1    2  506  502 -0.53251481500E+02  0.29883846018E+01  0.27284876823E+02  0.59909224897E+02  0.00000000000E+00 0. -1.
<scales pt_clust_3="71.20129" pt_clust_4="14000.00000" pt_clust_5="61.54807" pt_clust_6="53.33527"></scales>
<clustering>
<clus scale="   53.335">  1  6  2 -1</clus>
<clus scale="   61.548">  2  5  1 -1</clus>
<clus scale="   71.201">  1  3  2 -1</clus>
<clus scale="   53.335">  1  3  2 -1</clus>
</clustering>
</event>
<event>
 6    0  0.3042851E+002  0.1505927E+03  0.7546771E-02  0.1199747E+00
         21   -1    0    0  503  501  0.00000000000E+00  0.00000000000E+00  0.33322743060E+03  0.33322743060E+03  0.00000000000E+00 0.  1.
         21   -1    0    0  504  502 -0.00000000000E+00 -0.00000000000E+00 -0.15631299719E+04  0.15631299719E+04  0.00000000000E+00 0. -1.
         21    1    1    2  503  506 -0.58633401894E+02  0.46786654602E+02  0.15139539120E+03  0.16895985127E+03  0.00000000000E+00 0.  1.
         21    1    1    2  504  501  0.34147556037E+02 -0.11228856056E+03 -0.14723013065E+04  0.14769718729E+04  0.00000000000E+00 0. -1.
         21    1    1    2  505  502  0.37579328037E+02 -0.92275393742E+01 -0.65742031674E+02  0.76284782934E+02  0.00000000000E+00 0. -1.
         21    1    1    2  506  505 -0.13093482180E+02  0.74729445333E+02  0.15674540560E+03  0.17414089540E+03  0.00000000000E+00 0.  1.
<scales pt_clust_3="53.10215" pt_clust_4="140.78952" pt_clust_5="38.69565" pt_clust_6="53.10215"></scales>
<clustering>
<clus scale="   38.696">  2  5  1 -1</clus>
<clus scale="   53.102">  3  6 -1 -1</clus>
<clus scale="  140.790">  2  4  1 -1</clus>
<clus scale="  150.593">  1  3  2 -1</clus>
</clustering>
</event>
<event>
 6    0  0.3042851E+002  0.1345317E+03  0.7546771E-02  0.1220882E+00
         21   -1    0    0  505  501  0.00000000000E+00  0.00000000000E+00  0.12384459708E+04  0.12384459708E+04  0.00000000000E+00 0. -1.
         21   -1    0    0  503  502 -0.00000000000E+00 -0.00000000000E+00 -0.22140724280E+02  0.22140724280E+02  0.00000000000E+00 0. -1.
         21    1    1    2  503  506 -0.11170265077E+02 -0.30175250491E+02  0.26271236014E+02  0.41539118982E+02  0.00000000000E+00 0. -1.
         21    1    1    2  504  502  0.47776940651E+02  0.32608747865E+02  0.25312208661E+03  0.25964737092E+03  0.00000000000E+00 0. -1.
         21    1    1    2  505  504  0.28138637573E+02  0.78991205971E+02  0.62494885602E+03  0.63054933684E+03  0.00000000000E+00 0. -1.
         21    1    1    2  506  501 -0.64745313146E+02 -0.81424703345E+02  0.31196306784E+03  0.32885086831E+03  0.00000000000E+00 0. -1.
<scales pt_clust_3="32.17640" pt_clust_4="46.51657" pt_clust_5="46.51657" pt_clust_6="121.96276"></scales>
<clustering>
<clus scale="   32.176">  2  3  1 -1</clus>
<clus scale="   46.517">  4  5 -1 -1</clus>
<clus scale="  121.963">  2  6  1 -1</clus>
<clus scale="  134.532">  1  3  2 -1</clus>
</clustering>
</event>
<event>
 6    0  0.3042851E+002  0.1438215E+03  0.7546771E-02  0.1208277E+00
         21   -1    0    0  505  501  0.00000000000E+00  0.00000000000E+00  0.21147899836E+03  0.21147899836E+03  0.00000000000E+00 0. -1.
         21   -1    0    0  501  502 -0.00000000000E+00 -0.00000000000E+00 -0.15776683457E+03  0.15776683457E+03  0.00000000000E+00 0. -1.
         21    1    1    2  503  506  0.85227749182E+02  0.19047381926E+02  0.10169856575E+03  0.13404913377E+03  0.00000000000E+00 0. -1.
         21    1    1    2  504  502 -0.65400340635E+02 -0.12824088222E+02 -0.61167842676E+02  0.90460857677E+02  0.00000000000E+00 0. -1.
         21    1    1    2  505  503  0.41069948507E+02  0.34625216942E+02  0.39660585584E+02  0.66772811589E+02  0.00000000000E+00 0.  1.
         21    1    1    2  506  504 -0.60897357054E+02 -0.40848510645E+02 -0.26479144857E+02  0.77963029895E+02  0.00000000000E+00 0. -1.
<scales pt_clust_3="142.64307" pt_clust_4="41.03539" pt_clust_5="30.52894" pt_clust_6="41.03539"></scales>
<clustering>
<clus scale="   30.529">  3  5 -1 -1</clus>
<clus scale="   41.035">  4  6 -1 -1</clus>
<clus scale="  142.643">  1  3  2 -1</clus>
<clus scale="  142.643">  1  3  2 -1</clus>
</clustering>
</event>
<event>
 6    0  0.3042851E+002  0.1236293E+03  0.7546771E-02  0.1237227E+00
         21   -1    0    0  505  501  0.00000000000E+00  0.00000000000E+00  0.63148723941E+02  0.63148723941E+02  0.00000000000E+00 0.  1.
         21   -1    0    0  504  502 -0.00000000000E+00 -0.00000000000E+00 -0.85468572840E+03  0.85468572840E+03  0.00000000000E+00 0.  1.
         21    1    1    2  503  501 -0.78503213933E+01  0.38519617495E+02 -0.38072774762E+02  0.54725904799E+02  0.00000000000E+00 0.  1.
         21    1    1    2  504  503 -0.68618604949E+02  0.12208565091E+03 -0.49899479840E+03  0.51827524341E+03  0.00000000000E+00 0.  1.
         21    1    1    2  505  506  0.91471953615E+02 -0.11273433103E+03 -0.85297985284E+02  0.16838020663E+03  0.00000000000E+00 0.  1.
         21    1    1    2  506  502 -0.15003027273E+02 -0.47870937369E+02 -0.16917144601E+03  0.17645309750E+03  0.00000000000E+00 0.  1.
<scales pt_clust_3="39.31143" pt_clust_4="123.62930" pt_clust_5="14000.00000" pt_clust_6="47.89838"></scales>
<clustering>
<clus scale="   39.311">  1  3  2 -1</clus>
<clus scale="   47.898">  2  6  1 -1</clus>
<clus scale="  123.629">  2  4  1 -1</clus>
<clus scale="   39.311">  1  3  2 -1</clus>
</clustering>
</event>
<event>
 6    0  0.3042851E+002  0.1532854E+03  0.7546771E-02  0.1196493E+00
         21   -1    0    0  505  501  0.00000000000E+00  0.00000000000E+00  0.36003885648E+03  0.36003885648E+03  0.00000000000E+00 0. -1.
         21   -1    0    0  501  502 -0.00000000000E+00 -0.00000000000E+00 -0.47767357736E+03  0.47767357736E+03  0.00000000000E+00 0. -1.
         21    1    1    2  503  506  0.44013239410E+02 -0.76659481079E+01 -0.76058759856E+02  0.88209222617E+02  0.00000000000E+00 0. -1.
         21    1    1    2  504  503 -0.67632718951E+02  0.64380053376E+02  0.16491169463E+03  0.18951211827E+03  0.00000000000E+00 0. -1.
         21    1    1    2  505  504 -0.52854853680E+02  0.84980101651E+01  0.16587702836E+03  0.17430157851E+03  0.00000000000E+00 0. -1.
         21    1    1    2  506  502  0.76474333220E+02 -0.65212115433E+02 -0.37236468402E+03  0.38568951444E+03  0.00000000000E+00 0. -1.
<scales pt_clust_3="40.37925" pt_clust_4="151.45701" pt_clust_5="42.23089" pt_clust_6="40.37925"></scales>
<clustering>
<clus scale="   40.379">  3  6 -1 -1</clus>
<clus scale="   42.231">  4  5 -1 -1</clus>
<clus scale="  151.457">  1  4  2 -1</clus>
<clus scale="  151.457">  1  3  2 -1</clus>
</clustering>
</event>
<event>
 6    0  0.3042851E+002  0.1736300E+03  0.7546771E-02  0.1174114E+00
         21   -1    0    0  503  501  0.00000000000E+00  0.00000000000E+00  0.34284984102E+03  0.34284984102E+03  0.00000000000E+00 0. -1.
         21   -1    0    0  504  502 -0.00000000000E+00 -0.00000000000E+00 -0.16977182075E+03  0.16977182075E+03  0.00000000000E+00 0. -1.
         21    1    1    2  503  506 -0.22060201503E+02 -0.21325444223E+02  0.22781516482E+02  0.38215501500E+02  0.00000000000E+00 0. -1.
         21    1    1    2  504  501 -0.14652561865E+03  0.40640701115E+02  0.23369034849E+03  0.27880567155E+03  0.00000000000E+00 0. -1.
         21    1    1    2  505  502  0.11147153103E+03 -0.36234624329E+02 -0.59098788710E+02  0.13126887315E+03  0.00000000000E+00 0. -1.
         21    1    1    2  506  505  0.57114289122E+02  0.16919367436E+02 -0.24295055997E+02  0.64331615573E+02  0.00000000000E+00 0. -1.
<scales pt_clust_3="30.68268" pt_clust_4="166.24260" pt_clust_5="35.44190" pt_clust_6="35.44190"></scales>
<clustering>
<clus scale="   30.683">  1  3  2 -1</clus>
<clus scale="   35.442">  5  6 -1 -1</clus>
<clus scale="  166.243">  1  4  2 -1</clus>
<clus scale="   30.683">  1  3  2 -1</clus>
</clustering>
</event>
<event>
 6    0  0.3042851E+002  0.1278567E+03  0.7546771E-02  0.1230671E+00
         21   -1    0    0  506  501  0.00000000000E+00  0.00000000000E+00  0.14061956753E+03  0.14061956753E+03  0.00000000000E+00 0. -1.
         21   -1    0    0  503  502 -0.00000000000E+00 -0.00000000000E+00 -0.17836002436E+04  0.17836002436E+04  0.00000000000E+00 0. -1.
         21    1    1    2  503  504  0.56487680174E+01 -0.30496411989E+02 -0.22180803938E+03  0.22396594843E+03  0.00000000000E+00 0.  1.
         21    1    1    2  504  501  0.49046177674E+02 -0.10438456747E+03  0.11109416220E+03  0.16013612442E+03  0.00000000000E+00 0. -1.
         21    1    1    2  505  502 -0.42092437332E+02  0.74263670744E+02 -0.11174739113E+04  0.11207295875E+04  0.00000000000E+00 0. -1.
         21    1    1    2  506  505 -0.12602508360E+02  0.60617308710E+02 -0.41479288768E+03  0.41938815076E+03  0.00000000000E+00 0.  1.
<scales pt_clust_3="31.01515" pt_clust_4="115.80431" pt_clust_5="49.31752" pt_clust_6="49.31752"></scales>
<clustering>
<clus scale="   31.015">  2  3  1 -1</clus>
<clus scale="   49.318">  5  6 -1 -1</clus>
<clus scale="  115.804">  1  4  2 -1</clus>
<clus scale="  115.804">  1  3  2 -1</clus>
</clustering>
</event>
<event>
 6    0  0.3042851E+002  0.1238046E+03  0.7546771E-02  0.1236949E+00
         21   -1    0    0  502  501  0.00000000000E+00  0.00000000000E+00  0.16370033893E+03  0.16370033893E+03  0.00000000000E+00 0.  1.
         21   -1    0    0  504  502 -0.00000000000E+00 -0.00000000000E+00 -0.40604697516E+03  0.40604697516E+03  0.00000000000E+00 0.  1.
         21    1    1    2  503  501  0.48342690617E+02 -0.25126611959E+02  0.87109543257E+02  0.10274451271E+03  0.00000000000E+00 0.  1.
         21    1    1    2  504  506 -0.21918473822E+02  0.62748151836E+02 -0.13220713514E+03  0.14797458104E+03  0.00000000000E+00 0.  1.
         21    1    1    2  505  503  0.72055545702E+01 -0.85582964868E+02  0.24790441582E+02  0.89392001243E+02  0.00000000000E+00 0.  1.
         21    1    1    2  506  505 -0.33629771365E+02  0.47961424991E+02 -0.22203948593E+03  0.22963621910E+03  0.00000000000E+00 0.  1.
<scales pt_clust_3="54.48268" pt_clust_4="39.35072" pt_clust_5="116.49266" pt_clust_6="39.35072"></scales>
<clustering>
<clus scale="   39.351">  4  6 -1 -1</clus>
<clus scale="   54.483">  1  3  2 -1</clus>
<clus scale="  116.493">  1  5  2 -1</clus>
<clus scale="   54.483">  1  3  2 -1</clus>
</clustering>
</event>
<event>
 6    0  0.3042851E+002  0.3062290E+03  0.7546771E-02  0.1082168E+00
         21   -1    0    0  503  501  0.00000000000E+00  0.00000000000E+00  0.68859491194E+03  0.68859491194E+03  0.00000000000E+00 0.  1.
         21   -1    0    0  505  502 -0.00000000000E+00 -0.00000000000E+00 -0.13787898514E+03  0.13787898514E+03  0.00000000000E+00 0.  1.
         21    1    1    2  503  504 -0.20544666807E+03  0.64430845466E+02  0.12366484546E+03  0.24829953941E+03  0.00000000000E+00 0.  1.
         21    1    1    2  504  502 -0.69334159799E+02 -0.25244227088E+02  0.37804508688E+02  0.82907644964E+02  0.00000000000E+00 0.  1.
         21    1    1    2  505  506  0.10639766762E+03  0.45450132437E+02  0.12075466490E+03  0.16723596297E+03  0.00000000000E+00 0.  1.
         21    1    1    2  506  501  0.16838316025E+03 -0.84636750816E+02  0.26849190775E+03  0.32803074974E+03  0.00000000000E+00 0.  1.
<scales pt_clust_3="289.18134" pt_clust_4="47.50694" pt_clust_5="101.36425" pt_clust_6="101.36425"></scales>
<clustering>
<clus scale="   47.507">  3  4 -1 -1</clus>
<clus scale="  101.364">  5  6 -1 -1</clus>
<clus scale="  289.181">  2  3  1 -1</clus>
<clus scale="  306.229">  1  3  2 -1</clus>
</clustering>
</event>
<event>
 6    0  0.3042851E+002  0.1262242E+03  0.7546771E-02  0.1233168E+00
         21   -1    0    0  503  501  0.00000000000E+00  0.00000000000E+00  0.37790394375E+03  0.37790394375E+03  0.00000000000E+00 0.  1.
         21   -1    0    0  504  502 -0.00000000000E+00 -0.00000000000E+00 -0.13698387058E+03  0.13698387058E+03  0.00000000000E+00 0.  1.
         21    1    1    2  503  502  0.18612642401E+02 -0.68529387657E+02 -0.82472877803E+02  0.10883236193E+03  0.00000000000E+00 0.  1.
         21    1    1    2  504  505 -0.43002164636E+02 -0.47742722485E+02  0.88664909221E+01  0.64862688619E+02  0.00000000000E+00 0. -1.
         21    1    1    2  505  506 -0.50530399066E+01  0.96764417473E+02  0.22798603529E+03  0.24772266345E+03  0.00000000000E+00 0.  1.
         21    1    1    2  506  501  0.29442562141E+02  0.19507692669E+02  0.86540424762E+02  0.93470100335E+02  0.00000000000E+00 0.  1.
<scales pt_clust_3="112.07581" pt_clust_4="64.25382" pt_clust_5="35.05616" pt_clust_6="35.05616"></scales>
<clustering>
<clus scale="   35.056">  5  6 -1 -1</clus>
<clus scale="   64.254">  2  4  1 -1</clus>
<clus scale="  112.076">  2  3  1 -1</clus>
<clus scale="  126.224">  1  3  2 -1</clus>
</clustering>
</event>
<event>
 6    0  0.3042851E+002  0.9325603E+02  0.7546771E-02  0.1295153E+00
         21   -1    0    0  505  501  0.00000000000E+00  0.00000000000E+00  0.46861747324E+02  0.46861747324E+02  0.00000000000E+00 0. -1.
         21   -1    0    0  506  502 -0.00000000000E+00 -0.00000000000E+00 -0.43273523345E+03  0.43273523345E+03  0.00000000000E+00 0. -1.
         21    1    1    2  503  501 -0.68035163234E+02  0.35934592446E+02 -0.44259306291E+02  0.88763531723E+02  0.00000000000E+00 0. -1.
         21    1    1    2  504  502  0.29281651679E+02 -0.54399263652E+02 -0.13698180017E+03  0.15026878781E+03  0.00000000000E+00 0. -1.
         21    1    1    2  505  504  0.55514087391E+02 -0.38146100839E+02 -0.10470710742E+03  0.12450107330E+03  0.00000000000E+00 0. -1.
         21    1    1    2  506  503 -0.16760575836E+02  0.56610772045E+02 -0.99925272242E+02  0.11606358794E+03  0.00000000000E+00 0. -1.
<scales pt_clust_3="85.82948" pt_clust_4="34.92648" pt_clust_5="34.92648" pt_clust_6="59.03979"></scales>
<clustering>
<clus scale="   34.926">  4  5 -1 -1</clus>
<clus scale="   59.040">  2  6  1 -1</clus>
<clus scale="   85.829">  1  3  2 -1</clus>
<clus scale="   85.829">  1  3  2 -1</clus>
</clustering>
</event>
<event>
 6    0  0.3042851E+002  0.1190346E+03  0.7546771E-02  0.1244698E+00
         21   -1    0    0  503  501  0.00000000000E+00  0.00000000000E+00  0.68061110364E+03  0.68061110364E+03  0.00000000000E+00 0.  1.
         21   -1    0    0  504  502 -0.00000000000E+00 -0.00000000000E+00 -0.49337483823E+02  0.49337483823E+02  0.00000000000E+00 0. -1.
         21    1    1    2  503  502  0.28781291408E+02 -0.17200967939E+02  0.13884997640E+03  0.14284100244E+03  0.00000000000E+00 0.  1.
         21    1    1    2  504  506  0.25458938289E+02 -0.16410224289E+02  0.24368375723E+02  0.38875065728E+02  0.00000000000E+00 0.  1.
         21    1    1    2  505  501  0.45031556536E+02  0.11113915507E+03  0.36898483754E+03  0.38798139544E+03  0.00000000000E+00 0.  1.
         21    1    1    2  506  505 -0.99271786233E+02 -0.77527962844E+02  0.99070430162E+02  0.16025112386E+03  0.00000000000E+00 0. -1.
<scales pt_clust_3="34.96508" pt_clust_4="30.28949" pt_clust_5="119.03464" pt_clust_6="14000.00000"></scales>
<clustering>
<clus scale="   30.289">  2  4  1 -1</clus>
<clus scale="   34.965">  1  3  2 -1</clus>
<clus scale="  119.035">  1  5  2 -1</clus>
<clus scale="   34.965">  1  3  2 -1</clus>
</clustering>
</event>
<event>
 6    0  0.3042851E+002  0.1908150E+03  0.7546771E-02  0.1157728E+00
         21   -1    0    0  505  501  0.00000000000E+00  0.00000000000E+00  0.31334100187E+03  0.31334100187E+03  0.00000000000E+00 0.  1.
         21   -1    0    0  501  502 -0.00000000000E+00 -0.00000000000E+00 -0.71263383382E+03  0.71263383382E+03  0.00000000000E+00 0.  1.
         21    1    1    2  503  502 -0.74367774517E+02  0.80655294255E+01 -0.30867023779E+03  0.31760499737E+03  0.00000000000E+00 0.  1.
         21    1    1    2  504  506  0.55463142850E+02  0.34852565421E+02  0.40493446715E+02  0.77010263979E+02  0.00000000000E+00 0.  1.
         21    1    1    2  505  504  0.80869541732E+02  0.80459372525E+02  0.22343691456E+03  0.25087376944E+03  0.00000000000E+00 0.  1.
         21    1    1    2  506  503 -0.61964910065E+02 -0.12337746737E+03 -0.35455295542E+03  0.38048580490E+03  0.00000000000E+00 0.  1.
<scales pt_clust_3="74.80387" pt_clust_4="58.52636" pt_clust_5="58.52636" pt_clust_6="174.48527"></scales>
<clustering>
<clus scale="   58.526">  4  5 -1 -1</clus>
<clus scale="   74.804">  2  3  1 -1</clus>
<clus scale="  174.485">  2  6  1 -1</clus>
<clus scale="  190.815">  1  3  2 -1</clus>
</clustering>
</event>
<event>
 6    0  0.3042851E+002  0.1551724E+03  0.7546771E-02  0.1194258E+00
         21   -1    0    0  504  501  0.00000000000E+00  0.00000000000E+00  0.92712710263E+02  0.92712710263E+02  0.00000000000E+00 0. -1.
         21   -1    0    0  505  502 -0.00000000000E+00 -0.00000000000E+00 -0.67511671832E+03  0.67511671832E+03  0.00000000000E+00 0.  1.
         21    1    1    2  503  501  0.66642151041E+02 -0.51995989092E+02 -0.20762236915E+03  0.22416914897E+03  0.00000000000E+00 0.  1.
         21    1    1    2  504  506 -0.16156407304E+02  0.69112719395E+02 -0.15114809449E+02  0.72567588797E+02  0.00000000000E+00 0. -1.
         21    1    1    2  505  503  0.59433644924E+02 -0.38510940066E+02 -0.35177489939E+03  0.35883287265E+03  0.00000000000E+00 0.  1.
         21    1    1    2  506  502 -0.10991938866E+03  0.21394209763E+02 -0.78919300680E+01  0.11225981817E+03  0.00000000000E+00 0. -1.
<scales pt_clust_3="49.11734" pt_clust_4="70.97603" pt_clust_5="49.11734" pt_clust_6="145.59882"></scales>
<clustering>
<clus scale="   49.117">  3  5 -1 -1</clus>
<clus scale="   70.976">  1  4  2 -1</clus>
<clus scale="  145.599">  1  6  2 -1</clus>
<clus scale="   70.976">  1  3  2 -1</clus>
</clustering>
</event>
<event>
 6    0  0.3042851E+002  0.2035657E+03  0.7546771E-02  0.1146765E+00
         21   -1    0    0  503  501  0.00000000000E+00  0.00000000000E+00  0.62561642542E+03  0.62561642542E+03  0.00000000000E+00 0. -1.
         21   -1    0    0  505  502 -0.00000000000E+00 -0.00000000000E+00 -0.82545881834E+02  0.82545881834E+02  0.00000000000E+00 0.  1.
         21    1    1    2  503  504 -0.17587650001E+03 -0.42020610190E+02  0.11882474079E+03  0.21637373676E+03  0.00000000000E+00 0.  1.
         21    1    1    2  504  502 -0.51964912063E+01 -0.36520948743E+02  0.42841680275E+02  0.56534881151E+02  0.00000000000E+00 0. -1.
         21    1    1    2  505  506  0.12121534907E+03  0.86487984926E+02  0.28346801687E+03  0.32019907710E+03  0.00000000000E+00 0. -1.
         21    1    1    2  506  501  0.59857642140E+02 -0.79464259933E+01  0.97936105653E+02  0.11505461225E+03  0.00000000000E+00 0. -1.
<scales pt_clust_3="190.83638" pt_clust_4="36.88880" pt_clust_5="46.10176" pt_clust_6="46.10176"></scales>
<clustering>
<clus scale="   36.889">  2  4  1 -1</clus>
<clus scale="   46.102">  5  6 -1 -1</clus>
<clus scale="  190.836">  2  3  1 -1</clus>
<clus scale="  203.566">  1  3  2 -1</clus>
</clustering>
</event>
<event>
 6    0  0.3042851E+002  0.2378490E+03  0.7546771E-02  0.1121234E+00
         21   -1    0    0  504  501  0.00000000000E+00  0.00000000000E+00  0.14887917686E+04  0.14887917686E+04  0.00000000000E+00 0. -1.
         21   -1    0    0  505  502 -0.00000000000E+00 -0.00000000000E+00 -0.74739559996E+02  0.74739559996E+02  0.00000000000E+00 0.  1.
         21    1    1    2  503  501 -0.17702301193E+03  0.30769601086E+02  0.18867084232E+03  0.26053906011E+03  0.00000000000E+00 0.  1.
         21    1    1    2  504  506  0.95090770969E+02 -0.11791450593E+03  0.57561435190E+03  0.59521253981E+03  0.00000000000E+00 0. -1.
         21    1    1    2  505  503 -0.25848964804E+02  0.13518144709E+03  0.19992538369E+03  0.24271866773E+03  0.00000000000E+00 0.  1.
         21    1    1    2  506  502  0.10778120576E+03 -0.48036542246E+02  0.44984163065E+03  0.46506106091E+03  0.00000000000E+00 0. -1.
<scales pt_clust_3="229.45328" pt_clust_4="55.28337" pt_clust_5="137.63064" pt_clust_6="55.28337"></scales>
<clustering>
<clus scale="   55.283">  4  6 -1 -1</clus>
<clus scale="  137.631">  2  5  1 -1</clus>
<clus scale="  229.453">  2  3  1 -1</clus>
<clus scale="  237.849">  1  3  2 -1</clus>
</clustering>
</event>
<event>
 6    0  0.3042851E+002  0.8354489E+02  0.7546771E-02  0.1319282E+00
         21   -1    0    0  503  501  0.00000000000E+00  0.00000000000E+00  0.59842613509E+02  0.59842613509E+02  0.00000000000E+00 0.  1.
         21   -1    0    0  504  502 -0.00000000000E+00 -0.00000000000E+00 -0.12475397344E+04  0.12475397344E+04  0.00000000000E+00 0.  1.
         21    1    1    2  503  505 -0.17334357219E+02 -0.54918786627E+02 -0.13352687369E+03  0.14541657080E+03  0.00000000000E+00 0.  1.
         21    1    1    2  504  506 -0.38298476776E+02  0.11877023242E+02 -0.91160504986E+02  0.99589530944E+02  0.00000000000E+00 0. -1.
         21    1    1    2  505  502  0.10675835415E+03  0.68776307187E+02 -0.99069064759E+03  0.99879701934E+03  0.00000000000E+00 0.  1.
         21    1    1    2  506  501 -0.51125520154E+02 -0.25734543802E+02  0.27680905411E+02  0.63579226797E+02  0.00000000000E+00 0.  1.
<scales pt_clust_3="83.54489" pt_clust_4="40.09784" pt_clust_5="14000.00000" pt_clust_6="57.68847"></scales>
<clustering>
<clus scale="   40.098">  2  4  1 -1</clus>
<clus scale="   57.688">  1  6  2 -1</clus>
<clus scale="   83.545">  1  3  2 -1</clus>
<clus scale="   57.688">  1  3  2 -1</clus>
</clustering>
</event>
<event>
 6    0  0.3042851E+002  0.6656000E+02  0.7546771E-02  0.1372198E+00
         21   -1    0    0  504  501  0.00000000000E+00  0.00000000000E+00  0.99959190385E+02  0.99959190385E+02  0.00000000000E+00 0.  1.
         21   -1    0    0  506  502 -0.00000000000E+00 -0.00000000000E+00 -0.29431250475E+03  0.29431250475E+03  0.00000000000E+00 0. -1.
         21    1    1    2  503  502  0.24448675323E+02  0.60508420602E+02 -0.17122753642E+03  0.18324266948E+03  0.00000000000E+00 0. -1.
         21    1    1    2  504  503  0.35598640547E+02  0.47657884220E+02 -0.19017671737E+02  0.62451653104E+02  0.00000000000E+00 0.  1.
         21    1    1    2  505  501 -0.62080489445E+02 -0.27634718209E+02 -0.10243361033E+01  0.67961121861E+02  0.00000000000E+00 0.  1.
         21    1    1    2  506  505  0.20331735745E+01 -0.80531586613E+02 -0.30837701023E+01  0.80616250690E+02  0.00000000000E+00 0.  1.
<scales pt_clust_3="66.56000" pt_clust_4="59.48560" pt_clust_5="47.41048" pt_clust_6="14000.00000"></scales>
<clustering>
<clus scale="   59.486">  1  4  2 -1</clus>
<clus scale="   47.410">  1  5  2 -1</clus>
<clus scale="   66.560">  2  3  1 -1</clus>
<clus scale="   59.486">  1  3  2 -1</clus>
</clustering>
</event>
<event>
 6    0  0.3042851E+002  0.1445709E+03  0.7546771E-02  0.1207307E+00
         21   -1    0    0  505  501  0.00000000000E+00  0.00000000000E+00  0.30161933169E+03  0.30161933169E+03  0.00000000000E+00 0. -1.
         21   -1    0    0  506  502 -0.00000000000E+00 -0.00000000000E+00 -0.10797507476E+03  0.10797507476E+03  0.00000000000E+00 0. -1.
         21    1    1    2  503  504  0.77131748533E+02  0.51001156751E+02  0.42439057171E+02  0.10174231271E+03  0.00000000000E+00 0. -1.
         21    1    1    2  504  501  0.49998262656E+02  0.55136000452E+02  0.71615140751E+02  0.10328859182E+03  0.00000000000E+00 0. -1.
         21    1    1    2  505  502 -0.58739948832E+02  0.96979071512E+00  0.41400173662E+02  0.71869996953E+02  0.00000000000E+00 0. -1.
         21    1    1    2  506  503 -0.68390062358E+02 -0.10710694792E+03  0.38189885345E+02  0.13269350498E+03  0.00000000000E+00 0. -1.
<scales pt_clust_3="35.91135" pt_clust_4="35.91135" pt_clust_5="58.74795" pt_clust_6="138.91934"></scales>
<clustering>
<clus scale="   35.911">  3  4 -1 -1</clus>
<clus scale="   58.748">  1  5  2 -1</clus>
<clus scale="  138.919">  2  6  1 -1</clus>
<clus scale="   58.748">  1  3  2 -1</clus>
</clustering>
</event>
<event>
 6    0  0.3042851E+002  0.1188642E+03  0.7546771E-02  0.1244983E+00
         21   -1    0    0  504  501  0.00000000000E+00  0.00000000000E+00  0.66075149576E+03  0.66075149576E+03  0.00000000000E+00 0.  1.
         21   -1    0    0  501  502 -0.00000000000E+00 -0.00000000000E+00 -0.10534191850E+03  0.10534191850E+03  0.00000000000E+00 0.  1.
         21    1    1    2  503  505  0.79812759627E+02 -0.55599530140E+02  0.23083302751E+03  0.25049006156E+03  0.00000000000E+00 0.  1.
         21    1    1    2  504  503 -0.86535066458E+01  0.35103967496E+02  0.32878002867E+03  0.33076196722E+03  0.00000000000E+00 0.  1.
         21    1    1    2  505  506  0.13104856992E+02 -0.39618037850E+02  0.52305610102E+02  0.66911905129E+02  0.00000000000E+00 0.  1.
         21    1    1    2  506  502 -0.84264109973E+02  0.60113600494E+02 -0.56509089011E+02  0.11792948035E+03  0.00000000000E+00 0.  1.
<scales pt_clust_3="35.12852" pt_clust_4="36.15483" pt_clust_5="35.12852" pt_clust_6="106.07662"></scales>
<clustering>
<clus scale="   35.129">  3  5 -1 -1</clus>
<clus scale="   36.155">  1  4  2 -1</clus>
<clus scale="  106.077">  2  6  1 -1</clus>
<clus scale="   36.155">  1  3  2 -1</clus>
</clustering>
</event>
<event>
 6    0  0.3042851E+002  0.2646260E+03  0.7546771E-02  0.1104395E+00
         21   -1    0    0  504  501  0.00000000000E+00  0.00000000000E+00  0.27954598890E+03  0.27954598890E+03  0.00000000000E+00 0.  1.
         21   -1    0    0  506  502 -0.00000000000E+00 -0.00000000000E+00 -0.18173738579E+04  0.18173738579E+04  0.00000000000E+00 0. -1.
         21    1    1    2  503  505 -0.97476770194E+02  0.15101081955E+03  0.16926172426E+03  0.24689171644E+03  0.00000000000E+00 0.  1.
         21    1    1    2  504  503  0.22280079202E+02  0.75391145955E+02  0.31803426449E+02  0.84803801516E+02  0.00000000000E+00 0. -1.
         21    1    1    2  505  502  0.11521154042E+03 -0.23546321787E+03 -0.14634067114E+04  0.14866996431E+04  0.00000000000E+00 0. -1.
         21    1    1    2  506  501 -0.40014849428E+02  0.90612523609E+01 -0.27548630832E+03  0.27852468570E+03  0.00000000000E+00 0. -1.
<scales pt_clust_3="74.30538" pt_clust_4="74.30538" pt_clust_5="239.46726" pt_clust_6="41.02797"></scales>
<clustering>
<clus scale="   41.028">  2  6  1 -1</clus>
<clus scale="   74.305">  3  4 -1 -1</clus>
<clus scale="  239.467">  2  5  1 -1</clus>
<clus scale="  264.626">  1  3  2 -1</clus>
</clustering>
</event>
<event>
 6    0  0.3042851E+002  0.9137593E+02  0.7546771E-02  0.1299553E+00
         21   -1    0    0  505  501  0.00000000000E+00  0.00000000000E+00  0.10839133475E+04  0.10839133475E+04  0.00000000000E+00 0. -1.
         21   -1    0    0  503  502 -0.00000000000E+00 -0.00000000000E+00 -0.25453918456E+03  0.25453918456E+03  0.00000000000E+00 0.  1.
         21    1    1    2  503  501 -0.92959230766E+02 -0.10308192571E+02  0.64391039223E+03  0.65066755770E+03  0.00000000000E+00 0. -1.
         21    1    1    2  504  502  0.31776495077E+02  0.86430944808E+02 -0.21659942410E+03  0.23536219828E+03  0.00000000000E+00 0.  1.
         21    1    1    2  505  506 -0.29106434942E+02 -0.74608316182E+02  0.64027544985E+02  0.10253346729E+03  0.00000000000E+00 0.  1.
         21    1    1    2  506  504  0.90289170632E+02 -0.15144360551E+01  0.33803564981E+03  0.34988930877E+03  0.00000000000E+00 0.  1.
<scales pt_clust_3="91.37593" pt_clust_4="14000.00000" pt_clust_5="80.08486" pt_clust_6="84.75388"></scales>
<clustering>
<clus scale="   80.085">  1  5  2 -1</clus>
<clus scale="   84.754">  1  6  2 -1</clus>
<clus scale="   91.376">  1  3  2 -1</clus>
<clus scale="   80.085">  1  3  2 -1</clus>
</clustering>
</event>
<event>
 6    0  0.3042851E+002  0.2027199E+03  0.7546771E-02  0.1147464E+00
         21   -1    0    0  506  501  0.00000000000E+00  0.00000000000E+00  0.67704459455E+03  0.67704459455E+03  0.00000000000E+00 0.  1.
         21   -1    0    0  504  502 -0.00000000000E+00 -0.00000000000E+00 -0.25350529426E+03  0.25350529426E+03  0.00000000000E+00 0.  1.
         21    1    1    2  503  502 -0.10118308174E+03  0.57117468015E+02  0.12570623438E+03  0.17117966744E+03  0.00000000000E+00 0.  1.
         21    1    1    2  504  505  0.11002234320E+03 -0.18565164194E+03 -0.16349647533E+03  0.27074442857E+03  0.00000000000E+00 0.  1.
         21    1    1    2  505  501 -0.31763236229E+02  0.96505405123E+02  0.41756475525E+03  0.42974704329E+03  0.00000000000E+00 0.  1.
         21    1    1    2  506  503  0.22923974763E+02  0.32028768797E+02  0.43764785993E+02  0.58878749499E+02  0.00000000000E+00 0.  1.
<scales pt_clust_3="115.56464" pt_clust_4="202.71993" pt_clust_5="14000.00000" pt_clust_6="39.38719"></scales>
<clustering>
<clus scale="   39.387">  1  6  2 -1</clus>
<clus scale="  115.565">  1  3  2 -1</clus>
<clus scale="  202.720">  2  4  1 -1</clus>
<clus scale="   39.387">  1  3  2 -1</clus>
</clustering>
</event>
<event>
 6    0  0.3042851E+002  0.1607678E+03  0.7546771E-02  0.1187833E+00
         21   -1    0    0  503  501  0.00000000000E+00  0.00000000000E+00  0.18763892698E+03  0.18763892698E+03  0.00000000000E+00 0.  1.
         21   -1    0    0  505  502 -0.00000000000E+00 -0.00000000000E+00 -0.27683695149E+03  0.27683695149E+03  0.00000000000E+00 0.  1.
         21    1    1    2  503  506 -0.96918356146E+02 -0.39057766750E+01  0.57884755921E+02  0.11295604374E+03  0.00000000000E+00 0.  1.
         21    1    1    2  504  502 -0.43736747211E+02  0.28615534105E+02 -0.68906187002E+02  0.86485920565E+02  0.00000000000E+00 0.  1.
         21    1    1    2  505  501  0.16955957170E+03  0.24838620405E+02 -0.10576724468E+03  0.20138052405E+03  0.00000000000E+00 0.  1.
         21    1    1    2  506  504 -0.28904468346E+02 -0.49548377836E+02  0.27590651252E+02  0.63653390114E+02  0.00000000000E+00 0.  1.
<scales pt_clust_3="53.78103" pt_clust_4="52.26616" pt_clust_5="143.70162" pt_clust_6="53.78103"></scales>
<clustering>
<clus scale="   52.266">  2  4  1 -1</clus>
<clus scale="   53.781">  3  6 -1 -1</clus>
<clus scale="  143.702">  2  5  1 -1</clus>
<clus scale="  160.768">  1  3  2 -1</clus>
</clustering>
</event>
<event>
 6    0  0.3042851E+002  0.1534619E+03  0.7546771E-02  0.1196282E+00
         21   -1    0    0  503  501  0.00000000000E+00  0.00000000000E+00  0.83682756692E+02  0.83682756692E+02  0.00000000000E+00 0. -1.
         21   -1    0    0  504  502 -0.00000000000E+00 -0.00000000000E+00 -0.67935799285E+03  0.67935799285E+03  0.00000000000E+00 0. -1.
         21    1    1    2  503  506 -0.19260988479E+02  0.57608619872E+02 -0.49154022072E+02  0.78139981102E+02  0.00000000000E+00 0. -1.
         21    1    1    2  504  505  0.26216614292E+02 -0.11687481560E+03 -0.43010553446E+02  0.12726720353E+03  0.00000000000E+00 0. -1.
         21    1    1    2  505  501  0.56782157639E+02 -0.52247485661E+02 -0.65613287526E+02  0.10128729774E+03  0.00000000000E+00 0. -1.
         21    1    1    2  506  502 -0.63737783452E+02  0.11151368139E+03 -0.43789737311E+03  0.45634626716E+03  0.00000000000E+00 0. -1.
<scales pt_clust_3="60.74322" pt_clust_4="56.45173" pt_clust_5="56.45173" pt_clust_6="136.39531"></scales>
<clustering>
<clus scale="   56.452">  4  5 -1 -1</clus>
<clus scale="   60.743">  1  3  2 -1</clus>
<clus scale="  136.395">  2  6  1 -1</clus>
<clus scale="   60.743">  1  3  2 -1</clus>
</clustering>
</event>
<event>
 6    0  0.3042851E+002  0.1152998E+03  0.7546771E-02  0.1251059E+00
         21   -1    0    0  506  501  0.00000000000E+00  0.00000000000E+00  0.41487044491E+02  0.41487044491E+02  0.00000000000E+00 0. -1.
         21   -1    0    0  504  502 -0.00000000000E+00 -0.00000000000E+00 -0.10420680091E+04  0.10420680091E+04  0.00000000000E+00 0. -1.
         21    1    1    2  503  501 -0.10524376063E+03 -0.14431038778E+02 -0.27672384139E+03  0.29641286818E+03  0.00000000000E+00 0. -1.
         21    1    1    2  504  503 -0.42959943493E+02 -0.89475211090E+01 -0.50411032757E+03  0.50601663732E+03  0.00000000000E+00 0. -1.
         21    1    1    2  505  502  0.12203119278E+03 -0.57414375610E+01 -0.20624172326E+03  0.23970862423E+03  0.00000000000E+00 0. -1.
         21    1    1    2  506  505  0.26172511336E+02  0.29119997448E+02 -0.13505072378E+02  0.41416923847E+02  0.00000000000E+00 0. -1.
<scales pt_clust_3="115.29984" pt_clust_4="42.79670" pt_clust_5="14000.00000" pt_clust_6="39.15322"></scales>
<clustering>
<clus scale="   39.153">  1  6  2 -1</clus>
<clus scale="   42.797">  2  4  1 -1</clus>
<clus scale="  115.300">  1  3  2 -1</clus>
<clus scale="   39.153">  1  3  2 -1</clus>
</clustering>
</event>
<event>
 6    0  0.3042851E+002  0.8239629E+02  0.7546771E-02  0.1322385E+00
         21   -1    0    0  506  501  0.00000000000E+00  0.00000000000E+00  0.14101191449E+03  0.14101191449E+03  0.00000000000E+00 0.  1.
         21   -1    0    0  503  502 -0.00000000000E+00 -0.00000000000E+00 -0.15111722212E+03  0.15111722212E+03  0.00000000000E+00 0.  1.
         21    1    1    2  503  501  0.66651287183E+02 -0.69456269310E+02  0.13788457432E+02  0.97245508832E+02  0.00000000000E+00 0.  1.
         21    1    1    2  504  505 -0.35255375004E+00  0.78465632388E+02 -0.18921855133E+02  0.80715651282E+02  0.00000000000E+00 0.  1.
         21    1    1    2  505  502 -0.43465179840E+02  0.11191252950E+02 -0.45196233152E+02  0.63695882852E+02  0.00000000000E+00 0.  1.
         21    1    1    2  506  504 -0.22833553593E+02 -0.20200616028E+02  0.40224323225E+02  0.50472093642E+02  0.00000000000E+00 0. -1.
<scales pt_clust_3="82.39629" pt_clust_4="14000.00000" pt_clust_5="46.59788" pt_clust_6="30.48665"></scales>
<clustering>
<clus scale="   30.487">  1  6  2 -1</clus>
<clus scale="   46.598">  2  5  1 -1</clus>
<clus scale="   82.396">  1  3  2 -1</clus>
<clus scale="   30.487">  1  3  2 -1</clus>
</clustering>
</event>
<event>
 6    0  0.3042851E+002  0.7867193E+02  0.7546771E-02  0.1332863E+00
         21   -1    0    0  506  501  0.00000000000E+00  0.00000000000E+00  0.25989266256E+03  0.25989266256E+03  0.00000000000E+00 0.  1.
         21   -1    0    0  505  502 -0.00000000000E+00 -0.00000000000E+00 -0.10158674817E+03  0.10158674817E+03  0.00000000000E+00 0.  1.
         21    1    1    2  503  501 -0.59969220685E+02 -0.17241518962E+00  0.23765062134E+02  0.64506707673E+02  0.00000000000E+00 0.  1.
         21    1    1    2  504  502  0.94833907196E+02 -0.61676831180E+02  0.34543047865E+02  0.11828238928E+03  0.00000000000E+00 0.  1.
         21    1    1    2  505  503 -0.27398968604E+02  0.18361163612E+02 -0.28022496981E+02  0.43279280802E+02  0.00000000000E+00 0.  1.
         21    1    1    2  506  504 -0.74657179073E+01  0.43488082758E+02  0.12802030138E+03  0.13541103297E+03  0.00000000000E+00 0.  1.
<scales pt_clust_3="78.67193" pt_clust_4="14000.00000" pt_clust_5="32.98236" pt_clust_6="45.41804"></scales>
<clustering>
<clus scale="   32.982">  2  5  1 -1</clus>
<clus scale="   45.418">  1  6  2 -1</clus>
<clus scale="   78.672">  1  3  2 -1</clus>
<clus scale="   45.418">  1  3  2 -1</clus>
</clustering>
</event>
<event>
 6    0  0.3042851E+002  0.1728307E+03  0.7546771E-02  0.1174928E+00
         21   -1    0    0  505  501  0.00000000000E+00  0.00000000000E+00  0.35536183521E+03  0.35536183521E+03  0.00000000000E+00 0. -1.
         21   -1    0    0  503  502 -0.00000000000E+00 -0.00000000000E+00 -0.34794953911E+03  0.34794953911E+03  0.00000000000E+00 0.  1.
         21    1    1    2  503  506 -0.57940757404E+02  0.15266380257E+02  0.83366826429E+02  0.10266558081E+03  0.00000000000E+00 0. -1.
         21    1    1    2  504  502  0.10453082023E+03 -0.50793842594E+02 -0.24111686140E+03  0.26766405750E+03  0.00000000000E+00 0.  1.
         21    1    1    2  505  504  0.34733892756E+02 -0.39300001069E+02 -0.61491521959E+02  0.80821659615E+02  0.00000000000E+00 0. -1.
         21    1    1    2  506  501 -0.81323955582E+02  0.74827463406E+02  0.22665385304E+03  0.25216007640E+03  0.00000000000E+00 0. -1.
<scales pt_clust_3="35.13539" pt_clust_4="32.62777" pt_clust_5="32.62777" pt_clust_6="172.59324"></scales>
<clustering>
<clus scale="   32.628">  4  5 -1 -1</clus>
<clus scale="   35.135">  3  6 -1 -1</clus>
<clus scale="  172.593">  1  3  2 -1</clus>
<clus scale="  172.593">  1  3  2 -1</clus>
</clustering>
</event>
<event>
 6    0  0.3042851E+002  0.1067086E+03  0.7546771E-02  0.1266789E+00
         21   -1    0    0  505  501  0.00000000000E+00  0.00000000000E+00  0.15355276904E+03  0.15355276904E+03  0.00000000000E+00 0. -1.
         21   -1    0    0  504  502 -0.00000000000E+00 -0.00000000000E+00 -0.16804960095E+04  0.16804960095E+04  0.00000000000E+00 0. -1.
         21    1    1    2  503  501 -0.82014020938E+02  0.65479203149E+02  0.11100062064E+03  0.15275785890E+03  0.00000000000E+00 0. -1.
         21    1    1    2  504  503  0.17159721194E+02 -0.57601043671E+02 -0.12382271293E+04  0.12396849438E+04  0.00000000000E+00 0. -1.
         21    1    1    2  505  506  0.30614168934E+02  0.30451720340E+02 -0.48993146401E+01  0.43457311182E+02  0.00000000000E+00 0. -1.
         21    1    1    2  506  502  0.34240130810E+02 -0.38329879818E+02 -0.39481741713E+03  0.39814866459E+03  0.00000000000E+00 0. -1.
<scales pt_clust_3="14000.00000" pt_clust_4="106.70865" pt_clust_5="43.18026" pt_clust_6="51.37024"></scales>
<clustering>
<clus scale="   43.180">  1  5  2 -1</clus>
<clus scale="   51.370">  2  6  1 -1</clus>
<clus scale="  106.709">  2  4  1 -1</clus>
<clus scale="   43.180">  1  3  2 -1</clus>
</clustering>
</event>
<event>
 6    0  0.3042851E+002  0.8056618E+02  0.7546771E-02  0.1327452E+00
         21   -1    0    0  506  501  0.00000000000E+00  0.00000000000E+00  0.26338605439E+03  0.26338605439E+03  0.00000000000E+00 0.  1.
         21   -1    0    0  504  502 -0.00000000000E+00 -0.00000000000E+00 -0.88586837210E+03  0.88586837210E+03  0.00000000000E+00 0. -1.
         21    1    1    2  503  501 -0.49279488478E+02 -0.17061015092E+02  0.87713187035E+02  0.10204484015E+03  0.00000000000E+00 0.  1.
         21    1    1    2  504  503  0.10345892165E+03  0.27706475895E+02 -0.16570102249E+03  0.19730237234E+03  0.00000000000E+00 0. -1.
         21    1    1    2  505  502 -0.42431039842E+02 -0.68153776195E+02 -0.68914286723E+03  0.69380344609E+03  0.00000000000E+00 0. -1.
         21    1    1    2  506  505 -0.11748393333E+02  0.57508315392E+02  0.14464838497E+03  0.15610376792E+03  0.00000000000E+00 0.  1.
<scales pt_clust_3="52.14927" pt_clust_4="14000.00000" pt_clust_5="80.56618" pt_clust_6="69.95133"></scales>
<clustering>
<clus scale="   52.149">  1  3  2 -1</clus>
<clus scale="   69.951">  1  6  2 -1</clus>
<clus scale="   80.566">  2  5  1 -1</clus>
<clus scale="   52.149">  1  3  2 -1</clus>
</clustering>
</event>
<event>
 6    0  0.3042851E+002  0.2075103E+03  0.7546771E-02  0.1143553E+00
         21   -1    0    0  503  501  0.00000000000E+00  0.00000000000E+00  0.49985170032E+03  0.49985170032E+03  0.00000000000E+00 0.  1.
         21   -1    0    0  505  502 -0.00000000000E+00 -0.00000000000E+00 -0.37359566935E+03  0.37359566935E+03  0.00000000000E+00 0. -1.
         21    1    1    2  503  506 -0.69926402242E+02  0.14061225998E+03  0.24690845123E+03  0.29261799787E+03  0.00000000000E+00 0.  1.
         21    1    1    2  504  502  0.15666625287E+03 -0.78980693049E+02 -0.27543087291E+03  0.32656458843E+03  0.00000000000E+00 0. -1.
         21    1    1    2  505  501 -0.95022830861E+02 -0.27587259649E+02  0.18381834390E+03  0.20875722462E+03  0.00000000000E+00 0.  1.
         21    1    1    2  506  504  0.82829802309E+01 -0.34044307284E+02 -0.29039891243E+02  0.45507558750E+02  0.00000000000E+00 0. -1.
<scales pt_clust_3="193.15325" pt_clust_4="33.89325" pt_clust_5="98.94643" pt_clust_6="33.89325"></scales>
<clustering>
<clus scale="   33.893">  4  6 -1 -1</clus>
<clus scale="   98.946">  1  5  2 -1</clus>
<clus scale="  193.153">  1  3  2 -1</clus>
<clus scale="   98.946">  1  3  2 -1</clus>
</clustering>
</event>
<event>
 6    0  0.3042851E+002  0.1000478E+03  0.7546771E-02  0.1280196E+00
         21   -1    0    0  504  501  0.00000000000E+00  0.00000000000E+00  0.42139335979E+03  0.42139335979E+03  0.00000000000E+00 0.  1.
         21   -1    0    0  505  502 -0.00000000000E+00 -0.00000000000E+00 -0.40491681241E+03  0.40491681241E+03  0.00000000000E+00 0.  1.
         21    1    1    2  503  506 -0.78840562301E+02  0.10676307116E+03 -0.27027199029E+03  0.30109987772E+03  0.00000000000E+00 0.  1.
         21    1    1    2  504  503  0.18064155549E+02 -0.87170302186E+02  0.20837619266E+03  0.22659570377E+03  0.00000000000E+00 0.  1.
         21    1    1    2  505  501  0.32431656362E+02  0.11640771923E+01  0.18423665439E+03  0.18707301310E+03  0.00000000000E+00 0. -1.
         21    1    1    2  506  502  0.28344750389E+02 -0.20756846166E+02 -0.10586430938E+03  0.11154157762E+03  0.00000000000E+00 0.  1.
<scales pt_clust_3="100.04778" pt_clust_4="14000.00000" pt_clust_5="32.45254" pt_clust_6="35.43982"></scales>
<clustering>
<clus scale="   32.453">  1  5  2 -1</clus>
<clus scale="   35.440">  2  6  1 -1</clus>
<clus scale="  100.048">  2  3  1 -1</clus>
<clus scale="   32.453">  1  3  2 -1</clus>
</clustering>
</event>
<event>
 6    0  0.3042851E+002  0.2010612E+03  0.7546771E-02  0.1148847E+00
         21   -1    0    0  505  501  0.00000000000E+00  0.00000000000E+00  0.19602112563E+04  0.19602112563E+04  0.00000000000E+00 0.  1.
         21   -1    0    0  504  502 -0.00000000000E+00 -0.00000000000E+00 -0.94404419324E+02  0.94404419324E+02  0.00000000000E+00 0.  1.
         21    1    1    2  503  502  0.37012177303E+02  0.12082500813E+02  0.36533394586E+02  0.53390795223E+02  0.00000000000E+00 0. -1.
         21    1    1    2  504  506 -0.19017141806E+03  0.11782153571E+03  0.79816734901E+02  0.23752430127E+03  0.00000000000E+00 0.  1.
         21    1    1    2  505  503  0.12249132132E+03 -0.14419544181E+03  0.15293146575E+04  0.15409736438E+04  0.00000000000E+00 0.  1.
         21    1    1    2  506  501  0.30667919435E+02  0.14291405283E+02  0.22014205007E+03  0.22272693541E+03  0.00000000000E+00 0.  1.
<scales pt_clust_3="39.80310" pt_clust_4="14000.00000" pt_clust_5="201.06121" pt_clust_6="33.83438"></scales>
<clustering>
<clus scale="   33.834">  1  6  2 -1</clus>
<clus scale="   39.803">  2  3  1 -1</clus>
<clus scale="  201.061">  1  5  2 -1</clus>
<clus scale="   33.834">  1  3  2 -1</clus>
</clustering>
</event>
<event>
 6    0  0.3042851E+002  0.1107590E+03  0.7546771E-02  0.1259171E+00
         21   -1    0    0  504  501  0.00000000000E+00  0.00000000000E+00  0.57282069648E+03  0.57282069648E+03  0.00000000000E+00 0.  1.
         21   -1    0    0  506  502 -0.00000000000E+00 -0.00000000000E+00 -0.33845732826E+03  0.33845732826E+03  0.00000000000E+00 0. -1.
         21    1    1    2  503  501 -0.89365673492E+02 -0.17378170346E+02  0.23842921435E+03  0.25521895435E+03  0.00000000000E+00 0.  1.
         21    1    1    2  504  505  0.15437195257E+03  0.39503020594E+02  0.28727936036E+03  0.32851273836E+03  0.00000000000E+00 0.  1.
         21    1    1    2  505  502 -0.97806899304E+02 -0.31007218011E+02 -0.26615043970E+03  0.28524321846E+03  0.00000000000E+00 0. -1.
         21    1    1    2  506  503  0.32800620226E+02  0.88823677632E+01 -0.25194766786E+02  0.42303113570E+02  0.00000000000E+00 0.  1.
<scales pt_clust_3="14000.00000" pt_clust_4="110.75905" pt_clust_5="71.89744" pt_clust_6="33.98201"></scales>
<clustering>
<clus scale="   33.982">  2  6  1 -1</clus>
<clus scale="   71.897">  2  5  1 -1</clus>
<clus scale="  110.759">  2  4  1 -1</clus>
<clus scale="  110.759">  1  3  2 -1</clus>
</clustering>
</event>
<event>
 6    0  0.3042851E+002  0.1342701E+03  0.7546771E-02  0.1221254E+00
         21   -1    0    0  503  501  0.00000000000E+00  0.00000000000E+00  0.11227104039E+03  0.11227104039E+03  0.00000000000E+00 0. -1.
         21   -1    0    0  505  502 -0.00000000000E+00 -0.00000000000E+00 -0.10975638822E+04  0.10975638822E+04  0.00000000000E+00 0.  1.
         21    1    1    2  503  504 -0.45829087066E+02 -0.23843551068E+02  0.56588964960E+02  0.76623306533E+02  0.00000000000E+00 0. -1.
         21    1    1    2  504  506 -0.30791547962E+02 -0.80084126737E+02 -0.10921589456E+03  0.13888735870E+03  0.00000000000E+00 0. -1.
         21    1    1    2  505  501  0.23232633368E+01 -0.32297236007E+02  0.13817679943E+02  0.35205642804E+02  0.00000000000E+00 0. -1.
         21    1    1    2  506  502  0.74297371691E+02  0.13622491381E+03 -0.94648359217E+03  0.95911861457E+03  0.00000000000E+00 0.  1.
<scales pt_clust_3="65.42244" pt_clust_4="134.27012" pt_clust_5="32.38069" pt_clust_6="14000.00000"></scales>
<clustering>
<clus scale="   32.381">  1  5  2 -1</clus>
<clus scale="   65.422">  1  3  2 -1</clus>
<clus scale="  134.270">  1  4  2 -1</clus>
<clus scale="   32.381">  1  3  2 -1</clus>
</clustering>
</event>
<event>
 6    0  0.3042851E+002  0.2149890E+03  0.7546771E-02  0.1137675E+00
         21   -1    0    0  504  501  0.00000000000E+00  0.00000000000E+00  0.36582074297E+02  0.36582074297E+02  0.00000000000E+00 0. -1.
         21   -1    0    0  506  502 -0.00000000000E+00 -0.00000000000E+00 -0.15647680582E+04  0.15647680582E+04  0.00000000000E+00 0. -1.
         21    1    1    2  503  501  0.66933297166E+02 -0.46951736565E+02 -0.20639032764E+03  0.22199436745E+03  0.00000000000E+00 0. -1.
         21    1    1    2  504  505 -0.50604730589E+02  0.33964028232E+01 -0.30900956839E+03  0.31314419628E+03  0.00000000000E+00 0. -1.
         21    1    1    2  505  502 -0.11642432256E+03  0.11498758743E+03 -0.82956228477E+03  0.84554736855E+03  0.00000000000E+00 0. -1.
         21    1    1    2  506  503  0.10009575599E+03 -0.71432253683E+02 -0.18322380310E+03  0.22066420021E+03  0.00000000000E+00 0. -1.
<scales pt_clust_3="38.53944" pt_clust_4="36.53605" pt_clust_5="36.53605" pt_clust_6="210.11291"></scales>
<clustering>
<clus scale="   36.536">  4  5 -1 -1</clus>
<clus scale="   38.539">  3  6 -1 -1</clus>
<clus scale="  210.113">  1  3  2 -1</clus>
<clus scale="  210.113">  1  3  2 -1</clus>
</clustering>
</event>
<event>
 6    0  0.3042851E+002  0.1935437E+03  0.7546771E-02  0.1155303E+00
         21   -1    0    0  505  501  0.00000000000E+00  0.00000000000E+00  0.13331963030E+04  0.13331963030E+04  0.00000000000E+00 0.  1.
         21   -1    0    0  503  502 -0.00000000000E+00 -0.00000000000E+00 -0.97604071117E+02  0.97604071117E+02  0.00000000000E+00 0.  1.
         21    1    1    2  503  506  0.14545303868E+03 -0.70517118473E+02  0.25112672443E+03  0.29865344830E+03  0.00000000000E+00 0.  1.
         21    1    1    2  504  502 -0.16106427929E+03  0.14177164965E+03  0.88935207731E+02  0.23227219783E+03  0.00000000000E+00 0.  1.
         21    1    1    2  505  504 -0.11619603136E+02 -0.30497200742E+02  0.53947278071E+03  0.54045904151E+03  0.00000000000E+00 0.  1.
         21    1    1    2  506  501  0.27230843745E+02 -0.40757330438E+02  0.35605751899E+03  0.35941568644E+03  0.00000000000E+00 0.  1.
<scales pt_clust_3="14000.00000" pt_clust_4="193.54369" pt_clust_5="32.63578" pt_clust_6="58.77969"></scales>
<clustering>
<clus scale="   32.636">  1  5  2 -1</clus>
<clus scale="   58.780">  1  6  2 -1</clus>
<clus scale="  193.544">  2  4  1 -1</clus>
<clus scale="   32.636">  1  3  2 -1</clus>
</clustering>
</event>
<event>
 6    0  0.3042851E+002  0.1882808E+03  0.7546771E-02  0.1160021E+00
         21   -1    0    0  503  501  0.00000000000E+00  0.00000000000E+00  0.11023039059E+04  0.11023039059E+04  0.00000000000E+00 0. -1.
         21   -1    0    0  506  502 -0.00000000000E+00 -0.00000000000E+00 -0.42487332096E+03  0.42487332096E+03  0.00000000000E+00 0. -1.
         21    1    1    2  503  504 -0.25863598021E+02  0.19652415359E+02  0.45940296779E+02  0.56264144889E+02  0.00000000000E+00 0. -1.
         21    1    1    2  504  505  0.82985858260E+02  0.75057658229E+02 -0.23519102976E+03  0.26045177137E+03  0.00000000000E+00 0. -1.
         21    1    1    2  505  502  0.31056146734E+02  0.69770232733E+02 -0.15451180136E+03  0.17235505907E+03  0.00000000000E+00 0. -1.
         21    1    1    2  506  501 -0.88178406973E+02 -0.16448030632E+03  0.10211931193E+04  0.10381062516E+04  0.00000000000E+00 0. -1.
<scales pt_clust_3="32.48297" pt_clust_4="31.70468" pt_clust_5="31.70468" pt_clust_6="184.32825"></scales>
<clustering>
<clus scale="   31.705">  4  5 -1 -1</clus>
<clus scale="   32.483">  1  3  2 -1</clus>
<clus scale="  184.328">  1  6  2 -1</clus>
<clus scale="   32.483">  1  3  2 -1</clus>
</clustering>
</event>
<event>
 6    0  0.3042851E+002  0.1626163E+03  0.7546771E-02  0.1185774E+00
         21   -1    0    0  504  501  0.00000000000E+00  0.00000000000E+00  0.67108825713E+03  0.67108825713E+03  0.00000000000E+00 0.  1.
         21   -1    0    0  503  502 -0.00000000000E+00 -0.00000000000E+00 -0.10678477121E+03  0.10678477121E+03  0.00000000000E+00 0. -1.
         21    1    1    2  503  505 -0.39030566786E+02 -0.38307922843E+02  0.22644457636E+02  0.59191667976E+02  0.00000000000E+00 0. -1.
         21    1    1    2  504  502  0.15308479016E+03  0.13295501814E+03  0.58348873283E+02  0.21098952780E+03  0.00000000000E+00 0. -1.
         21    1    1    2  505  506 -0.58857159430E+02 -0.52251081712E+02  0.17924754098E+03  0.19576522088E+03  0.00000000000E+00 0.  1.
         21    1    1    2  506  501 -0.55197063944E+02 -0.42396013583E+02  0.30406261402E+03  0.31192661169E+03  0.00000000000E+00 0.  1.
<scales pt_clust_3="54.68896" pt_clust_4="155.71832" pt_clust_5="44.06633" pt_clust_6="44.06633"></scales>
<clustering>
<clus scale="   44.066">  5  6 -1 -1</clus>
<clus scale="   54.689">  2  3  1 -1</clus>
<clus scale="  155.718">  2  4  1 -1</clus>
<clus scale="  162.616">  1  3  2 -1</clus>
</clustering>
</event>
<event>
 6    0  0.3042851E+002  0.1156275E+03  0.7546771E-02  0.1250490E+00
         21   -1    0    0  503  501  0.00000000000E+00  0.00000000000E+00  0.14449974826E+04  0.14449974826E+04  0.00000000000E+00 0.  1.
         21   -1    0    0  505  502 -0.00000000000E+00 -0.00000000000E+00 -0.22287133187E+03  0.22287133187E+03  0.00000000000E+00 0.  1.
         21    1    1    2  503  506 -0.55943533287E+02  0.35845568198E+02  0.10734421776E+04  0.10754964865E+04  0.00000000000E+00 0.  1.
         21    1    1    2  504  501 -0.42304468170E+02 -0.19412015389E+02  0.29596677221E+03  0.29960444693E+03  0.00000000000E+00 0.  1.
         21    1    1    2  505  504 -0.23095662593E+02 -0.94928888775E+02 -0.19004291014E+02  0.99529225013E+02  0.00000000000E+00 0.  1.
         21    1    1    2  506  502  0.12134366405E+03  0.78495335967E+02 -0.12827850807E+03  0.19323865609E+03  0.00000000000E+00 0.  1.
<scales pt_clust_3="97.18440" pt_clust_4="46.54562" pt_clust_5="115.62750" pt_clust_6="14000.00000"></scales>
<clustering>
<clus scale="   46.546">  1  4  2 -1</clus>
<clus scale="   97.184">  1  3  2 -1</clus>
<clus scale="  115.628">  1  5  2 -1</clus>
<clus scale="   46.546">  1  3  2 -1</clus>
</clustering>
</event>
<event>
 6    0  0.3042851E+002  0.1801717E+03  0.7546771E-02  0.1167637E+00
         21   -1    0    0  503  501  0.00000000000E+00  0.00000000000E+00  0.78254140927E+02  0.78254140927E+02  0.00000000000E+00 0. -1.
         21   -1    0    0  505  502 -0.00000000000E+00 -0.00000000000E+00 -0.16176927131E+04  0.16176927131E+04  0.00000000000E+00 0.  1.
         21    1    1    2  503  504 -0.42886125942E+02  0.22282890239E+02  0.91406869978E+01  0.49186371634E+02  0.00000000000E+00 0. -1.
         21    1    1    2  504  502 -0.39999276823E+02  0.16107108770E+03 -0.26566145033E+03  0.31324087158E+03  0.00000000000E+00 0.  1.
         21    1    1    2  505  506  0.10835083225E+03 -0.15224667205E+03 -0.12796099574E+04  0.12931823519E+04  0.00000000000E+00 0.  1.
         21    1    1    2  506  501 -0.25465429481E+02 -0.31107305895E+02 -0.33078514085E+01  0.40337258950E+02  0.00000000000E+00 0. -1.
<scales pt_clust_3="55.77120" pt_clust_4="14000.00000" pt_clust_5="180.17173" pt_clust_6="40.20140"></scales>
<clustering>
<clus scale="   40.201">  1  6  2 -1</clus>
<clus scale="   55.771">  1  3  2 -1</clus>
<clus scale="  180.172">  2  5  1 -1</clus>
<clus scale="   40.201">  1  3  2 -1</clus>
</clustering>
</event>
<event>
 6    0  0.3042851E+002  0.1797046E+03  0.7546771E-02  0.1168089E+00
         21   -1    0    0  502  501  0.00000000000E+00  0.00000000000E+00  0.20799168910E+04  0.20799168910E+04  0.00000000000E+00 0. -1.
         21   -1    0    0  504  502 -0.00000000000E+00 -0.00000000000E+00 -0.66086138369E+02  0.66086138369E+02  0.00000000000E+00 0.  1.
         21    1    1    2  503  505  0.14844625853E+03  0.28293110802E+02  0.74577799979E+02  0.16851896047E+03  0.00000000000E+00 0.  1.
         21    1    1    2  504  503  0.57050331059E+01  0.74375727880E+02  0.11310775874E+03  0.13549044759E+03  0.00000000000E+00 0.  1.
         21    1    1    2  505  506 -0.13366606992E+03 -0.14277577123E+03  0.15280695652E+04  0.15405350159E+04  0.00000000000E+00 0. -1.
         21    1    1    2  506  501 -0.20485221712E+02  0.40106932549E+02  0.29807562876E+03  0.30145860546E+03  0.00000000000E+00 0. -1.
<scales pt_clust_3="14000.00000" pt_clust_4="77.29449" pt_clust_5="179.70455" pt_clust_6="45.03566"></scales>
<clustering>
<clus scale="   45.036">  1  6  2 -1</clus>
<clus scale="   77.294">  2  4  1 -1</clus>
<clus scale="  179.705">  1  5  2 -1</clus>
<clus scale="   45.036">  1  3  2 -1</clus>
</clustering>
</event>
<event>
 6    0  0.3042851E+002  0.1460882E+03  0.7546771E-02  0.1205364E+00
         21   -1    0    0  503  501  0.00000000000E+00  0.00000000000E+00  0.12437384689E+04  0.12437384689E+04  0.00000000000E+00 0. -1.
         21   -1    0    0  504  502 -0.00000000000E+00 -0.00000000000E+00 -0.91701086382E+02  0.91701086382E+02  0.00000000000E+00 0.  1.
         21    1    1    2  503  506  0.18045941205E+02  0.42448294581E+02  0.12945530851E+03  0.13742703740E+03  0.00000000000E+00 0.  1.
         21    1    1    2  504  505  0.67877382019E+01  0.37828752989E+02 -0.12908734371E+02  0.40542858381E+02  0.00000000000E+00 0.  1.
         21    1    1    2  505  501  0.98807019469E+02 -0.13278967144E+03  0.10065360926E+04  0.10200543268E+04  0.00000000000E+00 0. -1.
         21    1    1    2  506  502 -0.12364069888E+03  0.52512623874E+02  0.28954715742E+02  0.13741533265E+03  0.00000000000E+00 0.  1.
<scales pt_clust_3="48.42633" pt_clust_4="38.43290" pt_clust_5="146.08821" pt_clust_6="14000.00000"></scales>
<clustering>
<clus scale="   38.433">  2  4  1 -1</clus>
<clus scale="   48.426">  1  3  2 -1</clus>
<clus scale="  146.088">  1  5  2 -1</clus>
<clus scale="   48.426">  1  3  2 -1</clus>
</clustering>
</event>
<event>
 6    0  0.3042851E+002  0.7214626E+02  0.7546771E-02  0.1352943E+00
         21   -1    0    0  505  501  0.00000000000E+00  0.00000000000E+00  0.27229515987E+03  0.27229515987E+03  0.00000000000E+00 0. -1.
         21   -1    0    0  503  502 -0.00000000000E+00 -0.00000000000E+00 -0.36042550836E+03  0.36042550836E+03  0.00000000000E+00 0. -1.
         21    1    1    2  503  506 -0.90104342665E+01 -0.28931599492E+02 -0.21816237888E+03  0.22025677954E+03  0.00000000000E+00 0. -1.
         21    1    1    2  504  502  0.62621590453E+02 -0.19000676836E+02 -0.10834699657E+03  0.12657630496E+03  0.00000000000E+00 0. -1.
         21    1    1    2  505  504 -0.58950375604E+02  0.94135217715E+02  0.17505425246E+03  0.20731757596E+03  0.00000000000E+00 0. -1.
         21    1    1    2  506  501  0.53392194170E+01 -0.46202941387E+02  0.63324774493E+02  0.78570007773E+02  0.00000000000E+00 0.  1.
<scales pt_clust_3="30.30223" pt_clust_4="14000.00000" pt_clust_5="72.14626" pt_clust_6="48.01051"></scales>
<clustering>
<clus scale="   30.302">  2  3  1 -1</clus>
<clus scale="   48.011">  1  6  2 -1</clus>
<clus scale="   72.146">  1  5  2 -1</clus>
<clus scale="   48.011">  1  3  2 -1</clus>
</clustering>
</event>
<event>
 6    0  0.3042851E+002  0.1122892E+03  0.7546771E-02  0.1256388E+00
         21   -1    0    0  503  501  0.00000000000E+00  0.00000000000E+00  0.10914714472E+04  0.10914714472E+04  0.00000000000E+00 0.  1.
         21   -1    0    0  506  502 -0.00000000000E+00 -0.00000000000E+00 -0.17441987416E+03  0.17441987416E+03  0.00000000000E+00 0.  1.
         21    1    1    2  503  504  0.92841609161E+02  0.64421092296E+02  0.86689787952E+03  0.87423199154E+03  0.00000000000E+00 0.  1.
         21    1    1    2  504  502 -0.22576282276E+02 -0.82310973969E+02 -0.75195250129E-01  0.85350984830E+02  0.00000000000E+00 0. -1.
         21    1    1    2  505  501 -0.23602245257E+02  0.30850806146E+02  0.17143733055E+03  0.17578281067E+03  0.00000000000E+00 0. -1.
         21    1    1    2  506  505 -0.46663081629E+02 -0.12960924473E+02 -0.12120844177E+03  0.13052553431E+03  0.00000000000E+00 0.  1.
<scales pt_clust_3="112.28916" pt_clust_4="14000.00000" pt_clust_5="38.84377" pt_clust_6="48.50349"></scales>
<clustering>
<clus scale="   38.844">  1  5  2 -1</clus>
<clus scale="   48.503">  2  6  1 -1</clus>
<clus scale="  112.289">  1  3  2 -1</clus>
<clus scale="   38.844">  1  3  2 -1</clus>
</clustering>
</event>
<event>
 6    0  0.3042851E+002  0.1395720E+03  0.7546771E-02  0.1213906E+00
         21   -1    0    0  504  501  0.00000000000E+00  0.00000000000E+00  0.94984675009E+03  0.94984675009E+03  0.00000000000E+00 0.  1.
         21   -1    0    0  505  502 -0.00000000000E+00 -0.00000000000E+00 -0.11480799652E+03  0.11480799652E+03  0.00000000000E+00 0. -1.
         21    1    1    2  503  501  0.29836324862E+02 -0.58865472045E+02  0.63560159271E+03  0.63901857152E+03  0.00000000000E+00 0.  1.
         21    1    1    2  504  506 -0.48332400791E+02  0.45642122819E+02 -0.43863481624E+02  0.79644393160E+02  0.00000000000E+00 0. -1.
         21    1    1    2  505  503  0.42467261694E+02 -0.46604317923E+02  0.26923430096E+03  0.27651860621E+03  0.00000000000E+00 0.  1.
         21    1    1    2  506  502 -0.23971185765E+02  0.59827667148E+02 -0.25933658480E+02  0.69473175726E+02  0.00000000000E+00 0. -1.
<scales pt_clust_3="54.67243" pt_clust_4="131.77408" pt_clust_5="54.67243" pt_clust_6="31.33464"></scales>
<clustering>
<clus scale="   31.335">  4  6 -1 -1</clus>
<clus scale="   54.672">  3  5 -1 -1</clus>
<clus scale="  131.774">  2  4  1 -1</clus>
<clus scale="  139.572">  1  3  2 -1</clus>
</clustering>
</event>
<event>
 6    0  0.3042851E+002  0.7558563E+02  0.7546771E-02  0.1342067E+00
         21   -1    0    0  504  501  0.00000000000E+00  0.00000000000E+00  0.21740023618E+03  0.21740023618E+03  0.00000000000E+00 0. -1.
         21   -1    0    0  503  502 -0.00000000000E+00 -0.00000000000E+00 -0.82751186428E+03  0.82751186428E+03  0.00000000000E+00 0. -1.
         21    1    1    2  503  506  0.10502131023E+03 -0.45217728142E+02 -0.39701549740E+03  0.41315302700E+03  0.00000000000E+00 0.  1.
         21    1    1    2  504  505 -0.26846206244E+02  0.79756607313E+02  0.18848686356E+03  0.20641979783E+03  0.00000000000E+00 0. -1.
         21    1    1    2  505  502 -0.64775476697E+02 -0.30951262874E+01 -0.37868676571E+03  0.38419930858E+03  0.00000000000E+00 0. -1.
         21    1    1    2  506  501 -0.13399627291E+02 -0.31443752883E+02 -0.22896228545E+02  0.41139967046E+02  0.00000000000E+00 0. -1.
<scales pt_clust_3="75.58563" pt_clust_4="63.70925" pt_clust_5="14000.00000" pt_clust_6="34.17981"></scales>
<clustering>
<clus scale="   34.180">  1  6  2 -1</clus>
<clus scale="   63.709">  1  4  2 -1</clus>
<clus scale="   75.586">  1  3  2 -1</clus>
<clus scale="   34.180">  1  3  2 -1</clus>
</clustering>
</event>
<event>
 6    0  0.3042851E+002  0.2377808E+03  0.7546771E-02  0.1121280E+00
         21   -1    0    0  502  501  0.00000000000E+00  0.00000000000E+00  0.17543428037E+03  0.17543428037E+03  0.00000000000E+00 0.  1.
         21   -1    0    0  504  502 -0.00000000000E+00 -0.00000000000E+00 -0.60730726455E+03  0.60730726455E+03  0.00000000000E+00 0. -1.
         21    1    1    2  503  505 -0.57507920912E+02  0.20314534466E+03 -0.26290611872E+03  0.33718662382E+03  0.00000000000E+00 0. -1.
         21    1    1    2  504  503  0.11284534024E+03 -0.14515070361E+03 -0.13321676975E+03  0.22704516140E+03  0.00000000000E+00 0.  1.
         21    1    1    2  505  506 -0.18044563545E+02  0.73218239546E+02 -0.32357305578E+02  0.82057980111E+02  0.00000000000E+00 0.  1.
         21    1    1    2  506  501 -0.37292855787E+02 -0.13121288060E+03 -0.33927901449E+01  0.13645177959E+03  0.00000000000E+00 0.  1.
<scales pt_clust_3="48.18512" pt_clust_4="223.69433" pt_clust_5="48.18512" pt_clust_6="136.40959"></scales>
<clustering>
<clus scale="   48.185">  3  5 -1 -1</clus>
<clus scale="  136.410">  1  6  2 -1</clus>
<clus scale="  223.694">  2  4  1 -1</clus>
<clus scale="  136.410">  1  3  2 -1</clus>
</clustering>
</event>
<event>
 6    0  0.3042851E+002  0.1218621E+03  0.7546771E-02  0.1240056E+00
         21   -1    0    0  506  501  0.00000000000E+00  0.00000000000E+00  0.78085109606E+02  0.78085109606E+02  0.00000000000E+00 0. -1.
         21   -1    0    0  504  502 -0.00000000000E+00 -0.00000000000E+00 -0.62957774217E+03  0.62957774217E+03  0.00000000000E+00 0. -1.
         21    1    1    2  503  505  0.47638619702E+02  0.85562338842E+02  0.13088771356E+02  0.98801153085E+02  0.00000000000E+00 0. -1.
         21    1    1    2  504  501  0.30674918097E+02 -0.36486816244E+02 -0.20463664390E+03  0.21011519314E+03  0.00000000000E+00 0. -1.
         21    1    1    2  505  502 -0.67503050376E+02 -0.94620380112E+02 -0.30595769990E+03  0.32729160128E+03  0.00000000000E+00 0. -1.
         21    1    1    2  506  503 -0.10810487423E+02  0.45544857513E+02 -0.53987060121E+02  0.71454904273E+02  0.00000000000E+00 0. -1.
<scales pt_clust_3="14000.00000" pt_clust_4="46.02373" pt_clust_5="121.86214" pt_clust_6="46.81026"></scales>
<clustering>
<clus scale="   46.810">  1  6  2 -1</clus>
<clus scale="   46.024">  2  4  1 -1</clus>
<clus scale="  121.862">  2  5  1 -1</clus>
<clus scale="   46.810">  1  3  2 -1</clus>
</clustering>
</event>
<event>
 6    0  0.3042851E+002  0.9882465E+02  0.7546771E-02  0.1282787E+00
         21   -1    0    0  503  501  0.00000000000E+00  0.00000000000E+00  0.49649194694E+03  0.49649194694E+03  0.00000000000E+00 0. -1.
         21   -1    0    0  504  502 -0.00000000000E+00 -0.00000000000E+00 -0.27318116389E+03  0.27318116389E+03  0.00000000000E+00 0.  1.
         21    1    1    2  503  505  0.41797082448E+02  0.68772840823E+02  0.44237454935E+03  0.44963534297E+03  0.00000000000E+00 0. -1.
         21    1    1    2  504  501 -0.22650377137E+02  0.47154353496E+02  0.12907346467E+02  0.53881093445E+02  0.00000000000E+00 0.  1.
         21    1    1    2  505  506 -0.64409078494E+01 -0.68493237219E+02 -0.75413948734E+02  0.10207875637E+03  0.00000000000E+00 0.  1.
         21    1    1    2  506  502 -0.12705797461E+02 -0.47433957100E+02 -0.15655716404E+03  0.16407791803E+03  0.00000000000E+00 0.  1.
<scales pt_clust_3="80.89031" pt_clust_4="52.31226" pt_clust_5="47.96485" pt_clust_6="47.96485"></scales>
<clustering>
<clus scale="   47.965">  5  6 -1 -1</clus>
<clus scale="   52.312">  2  4  1 -1</clus>
<clus scale="   80.890">  1  3  2 -1</clus>
<clus scale="   80.890">  1  3  2 -1</clus>
</clustering>
</event>
<event>
 6    0  0.3042851E+002  0.9824468E+02  0.7546771E-02  0.1284031E+00
         21   -1    0    0  504  501  0.00000000000E+00  0.00000000000E+00  0.80526267660E+02  0.80526267660E+02  0.00000000000E+00 0.  1.
         21   -1    0    0  506  502 -0.00000000000E+00 -0.00000000000E+00 -0.40569071618E+03  0.40569071618E+03  0.00000000000E+00 0. -1.
         21    1    1    2  503  501  0.73550263562E+02  0.82357889387E+02 -0.35484770412E+00  0.11042005765E+03  0.00000000000E+00 0.  1.
         21    1    1    2  504  502  0.95605457417E+01 -0.28626916122E+02 -0.50637831630E+01  0.30603043337E+02  0.00000000000E+00 0.  1.
         21    1    1    2  505  503 -0.52420813472E+02 -0.74277547454E+02 -0.25407090886E+03  0.26984647945E+03  0.00000000000E+00 0. -1.
         21    1    1    2  506  505 -0.30689995832E+02  0.20546574189E+02 -0.65674908789E+02  0.75347403403E+02  0.00000000000E+00 0. -1.
<scales pt_clust_3="98.24468" pt_clust_4="30.18119" pt_clust_5="14000.00000" pt_clust_6="35.25375"></scales>
<clustering>
<clus scale="   30.181">  1  4  2 -1</clus>
<clus scale="   35.254">  2  6  1 -1</clus>
<clus scale="   98.245">  1  3  2 -1</clus>
<clus scale="   30.181">  1  3  2 -1</clus>
</clustering>
</event>
<event>
 6    0  0.3042851E+002  0.2623535E+03  0.7546771E-02  0.1105737E+00
         21   -1    0    0  504  501  0.00000000000E+00  0.00000000000E+00  0.81635169085E+02  0.81635169085E+02  0.00000000000E+00 0. -1.
         21   -1    0    0  505  502 -0.00000000000E+00 -0.00000000000E+00 -0.80475314227E+03  0.80475314227E+03  0.00000000000E+00 0. -1.
         21    1    1    2  503  502 -0.85887154673E+02 -0.39867640765E+02 -0.15436151218E+03  0.18108978039E+03  0.00000000000E+00 0. -1.
         21    1    1    2  504  503 -0.13715768773E+03 -0.61805351970E+02 -0.16023536086E+03  0.21978968062E+03  0.00000000000E+00 0. -1.
         21    1    1    2  505  506  0.20932705578E+03  0.60632160699E+02 -0.35658627341E+03  0.41790889626E+03  0.00000000000E+00 0. -1.
         21    1    1    2  506  501  0.13717786628E+02  0.41040832036E+02 -0.51934826732E+02  0.67599954082E+02  0.00000000000E+00 0.  1.
<scales pt_clust_3="32.19457" pt_clust_4="248.46157" pt_clust_5="41.66547" pt_clust_6="41.66547"></scales>
<clustering>
<clus scale="   32.195">  3  4 -1 -1</clus>
<clus scale="   41.665">  5  6 -1 -1</clus>
<clus scale="  248.462">  1  3  2 -1</clus>
<clus scale="  248.462">  1  3  2 -1</clus>
</clustering>
</event>
<event>
 6    0  0.3042851E+002  0.1072465E+03  0.7546771E-02  0.1265756E+00
         21   -1    0    0  506  501  0.00000000000E+00  0.00000000000E+00  0.26223578256E+03  0.26223578256E+03  0.00000000000E+00 0.  1.
         21   -1    0    0  505  502 -0.00000000000E+00 -0.00000000000E+00 -0.31948230191E+03  0.31948230191E+03  0.00000000000E+00 0. -1.
         21    1    1    2  503  501  0.17502655834E+02  0.55921525567E+02  0.32188076810E+01  0.58684927417E+02  0.00000000000E+00 0. -1.
         21    1    1    2  504  502  0.26529503588E+02 -0.10852782332E+03  0.14419742430E+03  0.18241436393E+03  0.00000000000E+00 0.  1.
         21    1    1    2  505  503 -0.19718615677E+02  0.87062100943E+02 -0.25777899516E+03  0.27279780712E+03  0.00000000000E+00 0. -1.
         21    1    1    2  506  504 -0.24313543745E+02 -0.34455803191E+02  0.53116243830E+02  0.67820985997E+02  0.00000000000E+00 0.  1.
<scales pt_clust_3="58.59659" pt_clust_4="34.94818" pt_clust_5="90.91752" pt_clust_6="34.94818"></scales>
<clustering>
<clus scale="   34.948">  4  6 -1 -1</clus>
<clus scale="   58.597">  1  3  2 -1</clus>
<clus scale="   90.918">  2  5  1 -1</clus>
<clus scale="   58.597">  1  3  2 -1</clus>
</clustering>
</event>
<event>
 6    0  0.3042851E+002  0.1456014E+03  0.7546771E-02  0.1205985E+00
         21   -1    0    0  504  501  0.00000000000E+00  0.00000000000E+00  0.19675704407E+04  0.19675704407E+04  0.00000000000E+00 0.  1.
         21   -1    0    0  505  502 -0.00000000000E+00 -0.00000000000E+00 -0.21079375668E+02  0.21079375668E+02  0.00000000000E+00 0.  1.
         21    1    1    2  503  501  0.25085680170E+02 -0.17276960785E+02  0.40755835248E+03  0.40869499067E+03  0.00000000000E+00 0.  1.
         21    1    1    2  504  506  0.22054540836E+02  0.21877803907E+02  0.25599824338E+03  0.25787621388E+03  0.00000000000E+00 0.  1.
         21    1    1    2  505  503 -0.51840682238E+02  0.13930837088E+03  0.38544830674E+03  0.41311581391E+03  0.00000000000E+00 0.  1.
         21    1    1    2  506  502  0.47004612315E+01 -0.14390921400E+03  0.89748616243E+03  0.90896279789E+03  0.00000000000E+00 0.  1.
<scales pt_clust_3="30.45956" pt_clust_4="32.37257" pt_clust_5="14000.00000" pt_clust_6="145.60142"></scales>
<clustering>
<clus scale="   30.460">  1  3  2 -1</clus>
<clus scale="   32.373">  1  4  2 -1</clus>
<clus scale="  145.601">  1  6  2 -1</clus>
<clus scale="   30.460">  1  3  2 -1</clus>
</clustering>
</event>
<event>
 6    0  0.3042851E+002  0.1238389E+03  0.7546771E-02  0.1236895E+00
         21   -1    0    0  503  501  0.00000000000E+00  0.00000000000E+00  0.22506750115E+04  0.22506750115E+04  0.00000000000E+00 0. -1.
         21   -1    0    0  505  502 -0.00000000000E+00 -0.00000000000E+00 -0.81562226930E+02  0.81562226930E+02  0.00000000000E+00 0. -1.
         21    1    1    2  503  504 -0.55177408988E+02  0.16514091041E+02  0.15387257424E+04  0.15398032901E+04  0.00000000000E+00 0. -1.
         21    1    1    2  504  506 -0.42135089046E+02  0.67984074981E+02  0.58077496465E+03  0.58625656478E+03  0.00000000000E+00 0. -1.
         21    1    1    2  505  501  0.11487854194E+03 -0.11524758873E+03  0.51597803233E+02  0.17070858035E+03  0.00000000000E+00 0. -1.
         21    1    1    2  506  502 -0.17566043910E+02  0.30749422709E+02 -0.19857257551E+01  0.35468803227E+02  0.00000000000E+00 0. -1.
<scales pt_clust_3="57.81595" pt_clust_4="14000.00000" pt_clust_5="123.83887" pt_clust_6="35.41317"></scales>
<clustering>
<clus scale="   35.413">  2  6  1 -1</clus>
<clus scale="   57.816">  1  3  2 -1</clus>
<clus scale="  123.839">  2  5  1 -1</clus>
<clus scale="   57.816">  1  3  2 -1</clus>
</clustering>
</event>
<event>
 6    0  0.3042851E+002  0.1202977E+03  0.7546771E-02  0.1242607E+00
         21   -1    0    0  505  501  0.00000000000E+00  0.00000000000E+00  0.93485789530E+03  0.93485789530E+03  0.00000000000E+00 0.  1.
         21   -1    0    0  503  502 -0.00000000000E+00 -0.00000000000E+00 -0.11623172248E+03  0.11623172248E+03  0.00000000000E+00 0. -1.
         21    1    1    2  503  504  0.31313345975E+02 -0.30854034402E+02 -0.39556860965E+02  0.59137486626E+02  0.00000000000E+00 0. -1.
         21    1    1    2  504  506  0.76214129257E+01  0.84269989853E+02  0.75196594666E+03  0.75671150517E+03  0.00000000000E+00 0.  1.
         21    1    1    2  505  502 -0.36148468017E+02 -0.95815277937E+02 -0.17981995960E+02  0.10397418624E+03  0.00000000000E+00 0. -1.
         21    1    1    2  506  501 -0.27862908843E+01  0.42399322486E+02  0.12419908308E+03  0.13126643974E+03  0.00000000000E+00 0.  1.
<scales pt_clust_3="43.57648" pt_clust_4="14000.00000" pt_clust_5="120.29766" pt_clust_6="42.49078"></scales>
<clustering>
<clus scale="   42.491">  1  6  2 -1</clus>
<clus scale="   43.576">  2  3  1 -1</clus>
<clus scale="  120.298">  2  5  1 -1</clus>
<clus scale="   42.491">  1  3  2 -1</clus>
</clustering>
</event>
<event>
 6    0  0.3042851E+002  0.1039539E+03  0.7546771E-02  0.1272195E+00
         21   -1    0    0  506  501  0.00000000000E+00  0.00000000000E+00  0.27239620993E+04  0.27239620993E+04  0.00000000000E+00 0.  1.
         21   -1    0    0  504  502 -0.00000000000E+00 -0.00000000000E+00 -0.86136484436E+02  0.86136484436E+02  0.00000000000E+00 0. -1.
         21    1    1    2  503  502  0.35916070568E+02  0.27121463664E+02  0.80044049879E+01  0.45712234856E+02  0.00000000000E+00 0. -1.
         21    1    1    2  504  505 -0.72222149334E+02  0.33766870175E+02  0.95084332981E+03  0.95417989825E+03  0.00000000000E+00 0. -1.
         21    1    1    2  505  501 -0.89426537560E+01  0.35060591221E+02  0.17013957186E+04  0.17017804228E+04  0.00000000000E+00 0.  1.
         21    1    1    2  506  503  0.45248732522E+02 -0.95948925061E+02 -0.22417838589E+02  0.10842602779E+03  0.00000000000E+00 0. -1.
<scales pt_clust_3="45.38201" pt_clust_4="103.95389" pt_clust_5="36.18309" pt_clust_6="14000.00000"></scales>
<clustering>
<clus scale="   36.183">  1  5  2 -1</clus>
<clus scale="   45.382">  2  3  1 -1</clus>
<clus scale="  103.954">  1  4  2 -1</clus>
<clus scale="   36.183">  1  3  2 -1</clus>
</clustering>
</event>
<event>
 6    0  0.3042851E+002  0.1961124E+03  0.7546771E-02  0.1153061E+00
         21   -1    0    0  505  501  0.00000000000E+00  0.00000000000E+00  0.61143856542E+02  0.61143856542E+02  0.00000000000E+00 0.  1.
         21   -1    0    0  503  502 -0.00000000000E+00 -0.00000000000E+00 -0.62847489184E+03  0.62847489184E+03  0.00000000000E+00 0.  1.
         21    1    1    2  503  504  0.46462636307E+02  0.11917495215E+02 -0.10296305487E+03  0.11358782476E+03  0.00000000000E+00 0.  1.
         21    1    1    2  504  501  0.10357013378E+03  0.10098851908E+03 -0.20308589596E+03  0.24933779244E+03  0.00000000000E+00 0.  1.
         21    1    1    2  505  506 -0.10193229427E+03 -0.10288783046E+03 -0.17264589397E+03  0.22535017856E+03  0.00000000000E+00 0. -1.
         21    1    1    2  506  502 -0.48100475820E+02 -0.10018183835E+02 -0.88636190491E+02  0.10134295262E+03  0.00000000000E+00 0.  1.
<scales pt_clust_3="30.42395" pt_clust_4="195.06164" pt_clust_5="32.96073" pt_clust_6="32.96073"></scales>
<clustering>
<clus scale="   30.424">  3  4 -1 -1</clus>
<clus scale="   32.961">  5  6 -1 -1</clus>
<clus scale="  195.062">  2  3  1 -1</clus>
<clus scale="  196.112">  1  3  2 -1</clus>
</clustering>
</event>
<event>
 6    0  0.3042851E+002  0.1010904E+03  0.7546771E-02  0.1278020E+00
         21   -1    0    0  505  501  0.00000000000E+00  0.00000000000E+00  0.23995291603E+03  0.23995291603E+03  0.00000000000E+00 0.  1.
         21   -1    0    0  504  502 -0.00000000000E+00 -0.00000000000E+00 -0.30660770738E+03  0.30660770738E+03  0.00000000000E+00 0.  1.
         21    1    1    2  503  502  0.24997559208E+02 -0.30365425761E+02  0.39475486113E+01  0.39528726113E+02  0.00000000000E+00 0.  1.
         21    1    1    2  504  506 -0.96963704185E+02  0.40634119996E+02 -0.26432394816E+03  0.28446483299E+03  0.00000000000E+00 0.  1.
         21    1    1    2  505  503  0.64926263842E+01 -0.37558802518E+02  0.78443828939E+02  0.87213829996E+02  0.00000000000E+00 0.  1.
         21    1    1    2  506  501  0.65473518593E+02  0.27290108283E+02  0.11527777926E+03  0.13535323431E+03  0.00000000000E+00 0.  1.
<scales pt_clust_3="43.99122" pt_clust_4="101.09035" pt_clust_5="38.11585" pt_clust_6="14000.00000"></scales>
<clustering>
<clus scale="   38.116">  1  5  2 -1</clus>
<clus scale="   43.991">  1  3  2 -1</clus>
<clus scale="  101.090">  2  4  1 -1</clus>
<clus scale="   38.116">  1  3  2 -1</clus>
</clustering>
</event>
<event>
 6    0  0.3042851E+002  0.1962121E+03  0.7546771E-02  0.1152975E+00
         21   -1    0    0  504  501  0.00000000000E+00  0.00000000000E+00  0.15011872122E+03  0.15011872122E+03  0.00000000000E+00 0.  1.
         21   -1    0    0  501  502 -0.00000000000E+00 -0.00000000000E+00 -0.27625407837E+03  0.27625407837E+03  0.00000000000E+00 0.  1.
         21    1    1    2  503  506  0.15975659880E+03 -0.42999132990E+01 -0.55387414974E+00  0.15981541506E+03  0.00000000000E+00 0.  1.
         21    1    1    2  504  503  0.19412662931E+02 -0.28152738121E+02 -0.11498559900E+01  0.34216228819E+02  0.00000000000E+00 0.  1.
         21    1    1    2  505  502 -0.22807579335E+02  0.32041625085E+02 -0.31987928468E+02  0.50695946395E+02  0.00000000000E+00 0.  1.
         21    1    1    2  506  505 -0.15636168240E+03  0.41102633530E+00 -0.92443698540E+02  0.18164520931E+03  0.00000000000E+00 0.  1.
<scales pt_clust_3="194.02416" pt_clust_4="30.99820" pt_clust_5="36.66444" pt_clust_6="36.66444"></scales>
<clustering>
<clus scale="   30.998">  3  4 -1 -1</clus>
<clus scale="   36.664">  5  6 -1 -1</clus>
<clus scale="  194.024">  1  3  2 -1</clus>
<clus scale="  194.024">  1  3  2 -1</clus>
</clustering>
</event>
<event>
 6    0  0.3042851E+002  0.1281000E+03  0.7546771E-02  0.1230302E+00
         21   -1    0    0  504  501  0.00000000000E+00  0.00000000000E+00  0.46010533959E+03  0.46010533959E+03  0.00000000000E+00 0.  1.
         21   -1    0    0  505  502 -0.00000000000E+00 -0.00000000000E+00 -0.11847604619E+03  0.11847604619E+03  0.00000000000E+00 0.  1.
         21    1    1    2  503  506 -0.42378357093E+02  0.84749027367E+02  0.28225775314E+03  0.29773774030E+03  0.00000000000E+00 0.  1.
         21    1    1    2  504  503  0.10435115443E+02  0.50114372376E+02  0.64397778517E+02  0.82264304719E+02  0.00000000000E+00 0. -1.
         21    1    1    2  505  501 -0.12885532228E+02 -0.14592622408E+03 -0.24388683790E+02  0.14851029497E+03  0.00000000000E+00 0.  1.
         21    1    1    2  506  502  0.44828773878E+02  0.11062824337E+02  0.19362445537E+02  0.50069045796E+02  0.00000000000E+00 0.  1.
<scales pt_clust_3="14000.00000" pt_clust_4="53.04189" pt_clust_5="128.10004" pt_clust_6="46.17364"></scales>
<clustering>
<clus scale="   46.174">  2  6  1 -1</clus>
<clus scale="   53.042">  1  4  2 -1</clus>
<clus scale="  128.100">  2  5  1 -1</clus>
<clus scale="   53.042">  1  3  2 -1</clus>
</clustering>
</event>
<event>
 6    0  0.3042851E+002  0.1593349E+03  0.7546771E-02  0.1189450E+00
         21   -1    0    0  506  501  0.00000000000E+00  0.00000000000E+00  0.15440075240E+03  0.15440075240E+03  0.00000000000E+00 0. -1.
         21   -1    0    0  505  502 -0.00000000000E+00 -0.00000000000E+00 -0.32621492037E+03  0.32621492037E+03  0.00000000000E+00 0.  1.
         21    1    1    2  503  501  0.77054200062E+02 -0.11969576020E+03 -0.17955040154E+03  0.22913483247E+03  0.00000000000E+00 0.  1.
         21    1    1    2  504  502 -0.18164778534E+02  0.31209829587E+02 -0.42830394984E+01  0.36364227881E+02  0.00000000000E+00 0. -1.
         21    1    1    2  505  503  0.45764002474E+02  0.27803369997E+02 -0.55047428340E+02  0.76795772491E+02  0.00000000000E+00 0.  1.
         21    1    1    2  506  504 -0.10465342400E+03  0.60682560619E+02  0.67066701420E+02  0.13832083993E+03  0.00000000000E+00 0. -1.
<scales pt_clust_3="149.47586" pt_clust_4="30.14650" pt_clust_5="53.54784" pt_clust_6="30.14650"></scales>
<clustering>
<clus scale="   30.146">  4  6 -1 -1</clus>
<clus scale="   53.548">  2  5  1 -1</clus>
<clus scale="  149.476">  2  3  1 -1</clus>
<clus scale="  159.335">  1  3  2 -1</clus>
</clustering>
</event>
<event>
 6    0  0.3042851E+002  0.8851745E+02  0.7546771E-02  0.1306482E+00
         21   -1    0    0  504  501  0.00000000000E+00  0.00000000000E+00  0.58149070232E+03  0.58149070232E+03  0.00000000000E+00 0.  1.
         21   -1    0    0  503  502 -0.00000000000E+00 -0.00000000000E+00 -0.11678788584E+03  0.11678788584E+03  0.00000000000E+00 0.  1.
         21    1    1    2  503  506  0.81660503891E+02 -0.28837382273E+02 -0.73895234999E+02  0.11384435984E+03  0.00000000000E+00 0.  1.
         21    1    1    2  504  502  0.47892231721E+02  0.23973437762E+00  0.66809190420E+02  0.82202136568E+02  0.00000000000E+00 0.  1.
         21    1    1    2  505  501 -0.31118046827E+02 -0.33954943635E+02  0.21963871173E+03  0.22441576310E+03  0.00000000000E+00 0.  1.
         21    1    1    2  506  505 -0.98434688784E+02  0.62552591530E+02  0.25215014932E+03  0.27781632866E+03  0.00000000000E+00 0.  1.
<scales pt_clust_3="88.51745" pt_clust_4="41.99629" pt_clust_5="46.05726" pt_clust_6="14000.00000"></scales>
<clustering>
<clus scale="   46.057">  1  5  2 -1</clus>
<clus scale="   41.996">  1  4  2 -1</clus>
<clus scale="   88.517">  2  3  1 -1</clus>
<clus scale="   46.057">  1  3  2 -1</clus>
</clustering>
</event>
<event>
 6    0  0.3042851E+002  0.8549072E+02  0.7546771E-02  0.1314154E+00
         21   -1    0    0  505  501  0.00000000000E+00  0.00000000000E+00  0.23830633676E+02  0.23830633676E+02  0.00000000000E+00 0.  1.
         21   -1    0    0  506  502 -0.00000000000E+00 -0.00000000000E+00 -0.77078006814E+03  0.77078006814E+03  0.00000000000E+00 0.  1.
         21    1    1    2  503  501 -0.72095785592E+02 -0.41129669075E+02 -0.29245491020E+03  0.30400547113E+03  0.00000000000E+00 0.  1.
         21    1    1    2  504  502 -0.17736511688E+02  0.32384613701E+02 -0.12439060189E+03  0.12975503416E+03  0.00000000000E+00 0.  1.
         21    1    1    2  505  504  0.65606270045E+02  0.58082930416E+02 -0.16477925624E+03  0.18662800637E+03  0.00000000000E+00 0.  1.
         21    1    1    2  506  503  0.24226027235E+02 -0.49337875041E+02 -0.16532466614E+03  0.17422219016E+03  0.00000000000E+00 0.  1.
<scales pt_clust_3="85.49072" pt_clust_4="36.92353" pt_clust_5="14000.00000" pt_clust_6="45.23822"></scales>
<clustering>
<clus scale="   36.924">  2  4  1 -1</clus>
<clus scale="   45.238">  2  6  1 -1</clus>
<clus scale="   85.491">  2  3  1 -1</clus>
<clus scale="   85.491">  1  3  2 -1</clus>
</clustering>
</event>
<event>
 6    0  0.3042851E+002  0.2375926E+03  0.7546771E-02  0.1121407E+00
         21   -1    0    0  505  501  0.00000000000E+00  0.00000000000E+00  0.15902379592E+03  0.15902379592E+03  0.00000000000E+00 0.  1.
         21   -1    0    0  506  502 -0.00000000000E+00 -0.00000000000E+00 -0.63235207167E+03  0.63235207167E+03  0.00000000000E+00 0.  1.
         21    1    1    2  503  502 -0.83496916987E+02  0.10288503019E+03 -0.34761710461E+03  0.37201440295E+03  0.00000000000E+00 0.  1.
         21    1    1    2  504  503 -0.77021430350E+02  0.41784408052E+02 -0.10344244257E+03  0.13556760827E+03  0.00000000000E+00 0.  1.
         21    1    1    2  505  504 -0.38989982460E+02 -0.62636358801E+01  0.33400782751E+01  0.39630896906E+02  0.00000000000E+00 0.  1.
         21    1    1    2  506  501  0.19950832980E+03 -0.13840580236E+03 -0.25608806850E+02  0.24416295946E+03  0.00000000000E+00 0.  1.
<scales pt_clust_3="71.36716" pt_clust_4="71.36716" pt_clust_5="39.48990" pt_clust_6="221.27101"></scales>
<clustering>
<clus scale="   39.490">  1  5  2 -1</clus>
<clus scale="   71.367">  3  4 -1 -1</clus>
<clus scale="  221.271">  1  6  2 -1</clus>
<clus scale="   39.490">  1  3  2 -1</clus>
</clustering>
</event>
<event>
 6    0  0.3042851E+002  0.1263058E+03  0.7546771E-02  0.1233043E+00
         21   -1    0    0  503  501  0.00000000000E+00  0.00000000000E+00  0.96991636219E+03  0.96991636219E+03  0.00000000000E+00 0.  1.
         21   -1    0    0  506  502 -0.00000000000E+00 -0.00000000000E+00 -0.10044510325E+03  0.10044510325E+03  0.00000000000E+00 0. -1.
         21    1    1    2  503  502 -0.14083075278E+03  0.41790906987E+02  0.73250414426E+03  0.74708908585E+03  0.00000000000E+00 0.  1.
         21    1    1    2  504  505  0.13579784103E+03 -0.66882013286E+02  0.61521395012E+01  0.15149952524E+03  0.00000000000E+00 0. -1.
         21    1    1    2  505  501  0.33580561365E+02  0.13972896933E+02  0.13593045076E+03  0.14071241378E+03  0.00000000000E+00 0. -1.
         21    1    1    2  506  504 -0.28547649615E+02  0.11118209367E+02 -0.51154755700E+01  0.31060440570E+02  0.00000000000E+00 0.  1.
<scales pt_clust_3="14000.00000" pt_clust_4="126.30583" pt_clust_5="35.73576" pt_clust_6="30.63630"></scales>
<clustering>
<clus scale="   30.636">  2  6  1 -1</clus>
<clus scale="   35.736">  1  5  2 -1</clus>
<clus scale="  126.306">  2  4  1 -1</clus>
<clus scale="   35.736">  1  3  2 -1</clus>
</clustering>
</event>
<event>
 6    0  0.3042851E+002  0.9226739E+02  0.7546771E-02  0.1297452E+00
         21   -1    0    0  504  501  0.00000000000E+00  0.00000000000E+00  0.28409612336E+03  0.28409612336E+03  0.00000000000E+00 0. -1.
         21   -1    0    0  506  502 -0.00000000000E+00 -0.00000000000E+00 -0.17895261323E+03  0.17895261323E+03  0.00000000000E+00 0.  1.
         21    1    1    2  503  502 -0.90588830216E+02 -0.52911894821E+02 -0.12448119018E+03  0.16279303266E+03  0.00000000000E+00 0.  1.
         21    1    1    2  504  505  0.28143986130E+02  0.15921164949E+02  0.65923043195E+02  0.73426256018E+02  0.00000000000E+00 0. -1.
         21    1    1    2  505  503 -0.92242234099E+01  0.40278229777E+02  0.14763427138E+03  0.15330786078E+03  0.00000000000E+00 0. -1.
         21    1    1    2  506  501  0.71669067496E+02 -0.32874999046E+01  0.16067385727E+02  0.73521587139E+02  0.00000000000E+00 0. -1.
<scales pt_clust_3="14000.00000" pt_clust_4="32.33524" pt_clust_5="52.51664" pt_clust_6="92.26739"></scales>
<clustering>
<clus scale="   32.335">  1  4  2 -1</clus>
<clus scale="   52.517">  1  5  2 -1</clus>
<clus scale="   92.267">  1  6  2 -1</clus>
<clus scale="   32.335">  1  3  2 -1</clus>
</clustering>
</event>
<event>
 6    0  0.3042851E+002  0.1513946E+03  0.7546771E-02  0.1198770E+00
         21   -1    0    0  504  501  0.00000000000E+00  0.00000000000E+00  0.37560341344E+03  0.37560341344E+03  0.00000000000E+00 0.  1.
         21   -1    0    0  506  502 -0.00000000000E+00 -0.00000000000E+00 -0.70681520095E+03  0.70681520095E+03  0.00000000000E+00 0.  1.
         21    1    1    2  503  502 -0.16057048991E+03  0.26950363948E+02 -0.63913920280E+03  0.65955145736E+03  0.00000000000E+00 0.  1.
         21    1    1    2  504  505  0.31123884358E+02 -0.28916088025E+02  0.25592831247E+03  0.25943040965E+03  0.00000000000E+00 0.  1.
         21    1    1    2  505  503  0.62518564334E+02 -0.23242496094E+02  0.62192652211E+02  0.91196000461E+02  0.00000000000E+00 0.  1.
         21    1    1    2  506  501  0.66928041221E+02  0.25208220171E+02 -0.10193549394E+02  0.72240746917E+02  0.00000000000E+00 0.  1.
<scales pt_clust_3="14000.00000" pt_clust_4="42.48337" pt_clust_5="151.39462" pt_clust_6="77.15069"></scales>
<clustering>
<clus scale="   42.483">  1  4  2 -1</clus>
<clus scale="   77.151">  1  6  2 -1</clus>
<clus scale="  151.395">  1  5  2 -1</clus>
<clus scale="   42.483">  1  3  2 -1</clus>
</clustering>
</event>
<event>
 6    0  0.3042851E+002  0.1075748E+03  0.7546771E-02  0.1265128E+00
         21   -1    0    0  505  501  0.00000000000E+00  0.00000000000E+00  0.60623458849E+02  0.60623458849E+02  0.00000000000E+00 0.  1.
         21   -1    0    0  504  502 -0.00000000000E+00 -0.00000000000E+00 -0.10734788964E+04  0.10734788964E+04  0.00000000000E+00 0.  1.
         21    1    1    2  503  506  0.24376126908E+02 -0.80219863144E+02 -0.46508167316E+03  0.47257844292E+03  0.00000000000E+00 0.  1.
         21    1    1    2  504  503  0.29857267096E+02 -0.19598325773E+02 -0.49012446529E+03  0.49142399438E+03  0.00000000000E+00 0.  1.
         21    1    1    2  505  502 -0.83126327138E+02  0.82340816385E+02 -0.18597007865E+02  0.11847297163E+03  0.00000000000E+00 0.  1.
         21    1    1    2  506  501  0.28892933134E+02  0.17477372532E+02 -0.39052291258E+02  0.51626946338E+02  0.00000000000E+00 0. -1.
<scales pt_clust_3="14000.00000" pt_clust_4="35.89086" pt_clust_5="107.57484" pt_clust_6="33.76774"></scales>
<clustering>
<clus scale="   33.768">  1  6  2 -1</clus>
<clus scale="   35.891">  2  4  1 -1</clus>
<clus scale="  107.575">  1  5  2 -1</clus>
<clus scale="   33.768">  1  3  2 -1</clus>
</clustering>
</event>
<event>
 6    0  0.3042851E+002  0.1366818E+03  0.7546771E-02  0.1217865E+00
         21   -1    0    0  504  501  0.00000000000E+00  0.00000000000E+00  0.11375551537E+04  0.11375551537E+04  0.00000000000E+00 0.  1.
         21   -1    0    0  506  502 -0.00000000000E+00 -0.00000000000E+00 -0.68623314999E+02  0.68623314999E+02  0.00000000000E+00 0.  1.
         21    1    1    2  503  502 -0.42216686655E+02 -0.21703857145E+02 -0.22116980418E+02  0.52368567575E+02  0.00000000000E+00 0.  1.
         21    1    1    2  504  503 -0.42966704872E+02 -0.76025978766E+02  0.45344819487E+02  0.98398373103E+02  0.00000000000E+00 0.  1.
         21    1    1    2  505  501  0.39470507874E+02  0.86121116034E+02  0.63957611741E+03  0.64655423406E+03  0.00000000000E+00 0.  1.
         21    1    1    2  506  505  0.45712883653E+02  0.11608719877E+02  0.40612788226E+03  0.40885729400E+03  0.00000000000E+00 0.  1.
<scales pt_clust_3="47.46900" pt_clust_4="122.85198" pt_clust_5="42.27214" pt_clust_6="42.27214"></scales>
<clustering>
<clus scale="   42.272">  5  6 -1 -1</clus>
<clus scale="   47.469">  2  3  1 -1</clus>
<clus scale="  122.852">  2  4  1 -1</clus>
<clus scale="  136.682">  1  3  2 -1</clus>
</clustering>
</event>
<event>
 6    0  0.3042851E+002  0.1204643E+03  0.7546771E-02  0.1242333E+00
         21   -1    0    0  505  501  0.00000000000E+00  0.00000000000E+00  0.17439390525E+03  0.17439390525E+03  0.00000000000E+00 0. -1.
         21   -1    0    0  506  502 -0.00000000000E+00 -0.00000000000E+00 -0.15264812960E+03  0.15264812960E+03  0.00000000000E+00 0. -1.
         21    1    1    2  503  501 -0.18969877064E+01 -0.40551232970E+02  0.14965022033E+02  0.43266071490E+02  0.00000000000E+00 0. -1.
         21    1    1    2  504  503 -0.29994310726E+02 -0.75445832222E+02 -0.38182729015E+02  0.89719858842E+02  0.00000000000E+00 0. -1.
         21    1    1    2  505  502 -0.33857614203E+02  0.10442933060E+03  0.60732554716E+02  0.12546021813E+03  0.00000000000E+00 0. -1.
         21    1    1    2  506  504  0.65748912635E+02  0.11567734587E+02 -0.15769072079E+02  0.68595886396E+02  0.00000000000E+00 0. -1.
<scales pt_clust_3="36.56417" pt_clust_4="36.56417" pt_clust_5="108.80172" pt_clust_6="66.75876"></scales>
<clustering>
<clus scale="   36.564">  3  4 -1 -1</clus>
<clus scale="   66.759">  2  6  1 -1</clus>
<clus scale="  108.802">  1  5  2 -1</clus>
<clus scale="  108.802">  1  3  2 -1</clus>
</clustering>
</event>
<event>
 6    0  0.3042851E+002  0.6736421E+02  0.7546771E-02  0.1369293E+00
         21   -1    0    0  503  501  0.00000000000E+00  0.00000000000E+00  0.12615361971E+04  0.12615361971E+04  0.00000000000E+00 0.  1.
         21   -1    0    0  504  502 -0.00000000000E+00 -0.00000000000E+00 -0.18519053685E+03  0.18519053685E+03  0.00000000000E+00 0. -1.
         21    1    1    2  503  506  0.95755388365E+02 -0.37949012324E+02  0.84364866475E+03  0.84991310819E+03  0.00000000000E+00 0.  1.
         21    1    1    2  504  505  0.18648492453E+02  0.33269927040E+02 -0.10225340892E+03  0.10913484298E+03  0.00000000000E+00 0. -1.
         21    1    1    2  505  501 -0.60904540092E+02 -0.20743352613E+02  0.39683417488E+03  0.40201618380E+03  0.00000000000E+00 0.  1.
         21    1    1    2  506  502 -0.53499340725E+02  0.25422437896E+02 -0.61883770495E+02  0.85662598941E+02  0.00000000000E+00 0. -1.
<scales pt_clust_3="67.36421" pt_clust_4="38.13993" pt_clust_5="63.42060" pt_clust_6="14000.00000"></scales>
<clustering>
<clus scale="   38.140">  2  4  1 -1</clus>
<clus scale="   63.421">  1  5  2 -1</clus>
<clus scale="   67.364">  1  3  2 -1</clus>
<clus scale="   63.421">  1  3  2 -1</clus>
</clustering>
</event>
<event>
 6    0  0.3042851E+002  0.1751817E+03  0.7546771E-02  0.1172549E+00
         21   -1    0    0  506  501  0.00000000000E+00  0.00000000000E+00  0.40782627302E+03  0.40782627302E+03  0.00000000000E+00 0. -1.
         21   -1    0    0  505  502 -0.00000000000E+00 -0.00000000000E+00 -0.18415474579E+03  0.18415474579E+03  0.00000000000E+00 0.  1.
         21    1    1    2  503  504  0.67973883144E+02 -0.13272415934E+03  0.32891541339E+02  0.15270234037E+03  0.00000000000E+00 0.  1.
         21    1    1    2  504  502 -0.84435860286E+01 -0.68028472949E+02 -0.48268816091E+02  0.83839405315E+02  0.00000000000E+00 0.  1.
         21    1    1    2  505  501  0.34368258184E+02  0.36064573285E+02 -0.66471868943E+00  0.49822409293E+02  0.00000000000E+00 0.  1.
         21    1    1    2  506  503 -0.93898555299E+02  0.16468805900E+03  0.23971352067E+03  0.30561686383E+03  0.00000000000E+00 0. -1.
<scales pt_clust_3="175.18174" pt_clust_4="53.35842" pt_clust_5="49.81797" pt_clust_6="14000.00000"></scales>
<clustering>
<clus scale="   49.818">  2  5  1 -1</clus>
<clus scale="   53.358">  2  4  1 -1</clus>
<clus scale="  175.182">  2  3  1 -1</clus>
<clus scale="  175.182">  1  3  2 -1</clus>
</clustering>
</event>
<event>
 6    0  0.3042851E+002  0.2731443E+03  0.7546771E-02  0.1099493E+00
         21   -1    0    0  502  501  0.00000000000E+00  0.00000000000E+00  0.13860578563E+04  0.13860578563E+04  0.00000000000E+00 0.  1.
         21   -1    0    0  503  502 -0.00000000000E+00 -0.00000000000E+00 -0.77170896064E+03  0.77170896064E+03  0.00000000000E+00 0.  1.
         21    1    1    2  503  505  0.11308250651E+03 -0.14618417262E+02 -0.50952836625E+03  0.52213073786E+03  0.00000000000E+00 0.  1.
         21    1    1    2  504  501 -0.62252686917E+02 -0.13608179903E+02  0.43182925199E+03  0.43650553543E+03  0.00000000000E+00 0.  1.
         21    1    1    2  505  506  0.15985316934E+03  0.26300877472E+02 -0.21428441985E+03  0.26863094479E+03  0.00000000000E+00 0.  1.
         21    1    1    2  506  504 -0.21068298894E+03  0.19257196927E+01  0.90633242975E+03  0.93049959884E+03  0.00000000000E+00 0.  1.
<scales pt_clust_3="114.02347" pt_clust_4="32.04839" pt_clust_5="266.85541" pt_clust_6="32.04839"></scales>
<clustering>
<clus scale="   32.048">  4  6 -1 -1</clus>
<clus scale="  114.023">  2  3  1 -1</clus>
<clus scale="  266.855">  2  5  1 -1</clus>
<clus scale="  273.144">  1  3  2 -1</clus>
</clustering>
</event>
<event>
 6    0  0.3042851E+002  0.7596857E+02  0.7546771E-02  0.1340898E+00
         21   -1    0    0  505  501  0.00000000000E+00  0.00000000000E+00  0.46728716526E+03  0.46728716526E+03  0.00000000000E+00 0. -1.
         21   -1    0    0  504  502 -0.00000000000E+00 -0.00000000000E+00 -0.74736593614E+02  0.74736593614E+02  0.00000000000E+00 0. -1.
         21    1    1    2  503  501  0.73450609922E+02  0.73431238725E+01  0.26211149401E+03  0.27230745281E+03  0.00000000000E+00 0. -1.
         21    1    1    2  504  503 -0.11950004476E+02  0.81878194458E+02 -0.27099814610E+00  0.82746086159E+02  0.00000000000E+00 0. -1.
         21    1    1    2  505  506 -0.75952890089E+02 -0.50738124082E+02  0.10145838883E+03  0.13651741066E+03  0.00000000000E+00 0. -1.
         21    1    1    2  506  502  0.14452284642E+02 -0.38483194249E+02  0.29251686947E+02  0.50452809240E+02  0.00000000000E+00 0. -1.
<scales pt_clust_3="75.96857" pt_clust_4="57.03119" pt_clust_5="14000.00000" pt_clust_6="41.10748"></scales>
<clustering>
<clus scale="   41.107">  2  6  1 -1</clus>
<clus scale="   57.031">  2  4  1 -1</clus>
<clus scale="   75.969">  1  3  2 -1</clus>
<clus scale="   75.969">  1  3  2 -1</clus>
</clustering>
</event>
<event>
 6    0  0.3042851E+002  0.9650677E+02  0.7546771E-02  0.1287818E+00
         21   -1    0    0  505  501  0.00000000000E+00  0.00000000000E+00  0.12988038093E+03  0.12988038093E+03  0.00000000000E+00 0.  1.
         21   -1    0    0  506  502 -0.00000000000E+00 -0.00000000000E+00 -0.15914152278E+04  0.15914152278E+04  0.00000000000E+00 0.  1.
         21    1    1    2  503  502 -0.59046783320E+02 -0.45528096411E+02 -0.12688929263E+04  0.12710816609E+04  0.00000000000E+00 0.  1.
         21    1    1    2  504  501 -0.68866873492E+02 -0.13447250005E+02  0.67112935850E+01  0.70487702891E+02  0.00000000000E+00 0. -1.
         21    1    1    2  505  503  0.16069750870E+03  0.40784402851E+02  0.10905908053E+02  0.16615052106E+03  0.00000000000E+00 0.  1.
         21    1    1    2  506  504 -0.32783851889E+02  0.18190943565E+02 -0.21025912214E+03  0.21357572384E+03  0.00000000000E+00 0. -1.
<scales pt_clust_3="96.50677" pt_clust_4="70.83287" pt_clust_5="14000.00000" pt_clust_6="37.49255"></scales>
<clustering>
<clus scale="   37.493">  2  6  1 -1</clus>
<clus scale="   70.833">  1  4  2 -1</clus>
<clus scale="   96.507">  2  3  1 -1</clus>
<clus scale="   70.833">  1  3  2 -1</clus>
</clustering>
</event>
<event>
 6    0  0.3042851E+002  0.1741048E+03  0.7546771E-02  0.1173634E+00
         21   -1    0    0  503  501  0.00000000000E+00  0.00000000000E+00  0.58631225913E+03  0.58631225913E+03  0.00000000000E+00 0.  1.
         21   -1    0    0  506  502 -0.00000000000E+00 -0.00000000000E+00 -0.30550526143E+03  0.30550526143E+03  0.00000000000E+00 0.  1.
         21    1    1    2  503  505  0.72114148500E+00  0.76604987942E+02  0.20051658302E+03  0.21465261305E+03  0.00000000000E+00 0.  1.
         21    1    1    2  504  502  0.23846294772E+02 -0.14954922713E+03 -0.66358771980E+02  0.16533935928E+03  0.00000000000E+00 0.  1.
         21    1    1    2  505  504 -0.61870191981E+02  0.76410230969E+02  0.31984973309E+03  0.33461962855E+03  0.00000000000E+00 0. -1.
         21    1    1    2  506  501  0.37302755724E+02 -0.34659917851E+01 -0.17320054643E+03  0.17720591968E+03  0.00000000000E+00 0.  1.
<scales pt_clust_3="54.52979" pt_clust_4="162.93085" pt_clust_5="54.52979" pt_clust_6="37.46343"></scales>
<clustering>
<clus scale="   37.463">  2  6  1 -1</clus>
<clus scale="   54.530">  3  5 -1 -1</clus>
<clus scale="  162.931">  2  4  1 -1</clus>
<clus scale="  174.105">  1  3  2 -1</clus>
</clustering>
</event>
<event>
 6    0  0.4107044E+002  0.8630413E+02  0.7546771E-02  0.1312057E+00
         21   -1    0    0  503  501  0.00000000000E+00  0.00000000000E+00  0.90842977700E+03  0.90842977700E+03  0.00000000000E+00 0. -1.
         21   -1    0    0  505  502 -0.00000000000E+00 -0.00000000000E+00 -0.16524864541E+04  0.16524864541E+04  0.00000000000E+00 0.  1.
         21    1    1    2  503  502 -0.44940901038E+02 -0.24200396302E+02  0.50796760406E+02  0.72011489604E+02  0.00000000000E+00 0. -1.
         21    1    1    2  504  501  0.77422014970E+02  0.10606197224E+03  0.83069108286E+03  0.84100593667E+03  0.00000000000E+00 0. -1.
         21    1    1    2  505  506 -0.52587755606E+02 -0.77297690820E+01 -0.14984811449E+04  0.14994235435E+04  0.00000000000E+00 0.  1.
         21    1    1    2  506  504  0.20106641674E+02 -0.74131806852E+02 -0.12706337555E+03  0.14847526135E+03  0.00000000000E+00 0. -1.
<scales pt_clust_3="51.04257" pt_clust_4="86.30413" pt_clust_5="53.17950" pt_clust_6="14000.00000"></scales>
<clustering>
<clus scale="   51.043">  1  3  2 -1</clus>
<clus scale="   53.180">  2  5  1 -1</clus>
<clus scale="   86.304">  1  4  2 -1</clus>
<clus scale="   51.043">  1  3  2 -1</clus>
</clustering>
</event>
<event>
 6    0  0.3042851E+002  0.1461235E+03  0.7546771E-02  0.1205319E+00
         21   -1    0    0  502  501  0.00000000000E+00  0.00000000000E+00  0.54477226120E+02  0.54477226120E+02  0.00000000000E+00 0. -1.
         21   -1    0    0  504  502 -0.00000000000E+00 -0.00000000000E+00 -0.63412265868E+03  0.63412265868E+03  0.00000000000E+00 0. -1.
         21    1    1    2  503  506 -0.36542237111E+02 -0.39533304052E+02 -0.12207023432E+02  0.55201708700E+02  0.00000000000E+00 0. -1.
         21    1    1    2  504  505 -0.17989219206E+02  0.26483496219E+02 -0.12335574959E+03  0.12744264803E+03  0.00000000000E+00 0.  1.
         21    1    1    2  505  503  0.70439182089E+02  0.10261399990E+03 -0.36424522879E+03  0.38492323656E+03  0.00000000000E+00 0. -1.
         21    1    1    2  506  501 -0.15907725773E+02 -0.89564192067E+02 -0.79837430747E+02  0.12103229151E+03  0.00000000000E+00 0. -1.
<scales pt_clust_3="44.21625" pt_clust_4="32.01543" pt_clust_5="134.84435" pt_clust_6="44.21625"></scales>
<clustering>
<clus scale="   32.015">  2  4  1 -1</clus>
<clus scale="   44.216">  3  6 -1 -1</clus>
<clus scale="  134.844">  2  5  1 -1</clus>
<clus scale="  146.123">  1  3  2 -1</clus>
</clustering>
</event>
<event>
 6    0  0.3042851E+002  0.1180323E+03  0.7546771E-02  0.1246379E+00
         21   -1    0    0  502  501  0.00000000000E+00  0.00000000000E+00  0.13078471777E+04  0.13078471777E+04  0.00000000000E+00 0.  1.
         21   -1    0    0  503  502 -0.00000000000E+00 -0.00000000000E+00 -0.65010940048E+02  0.65010940048E+02  0.00000000000E+00 0. -1.
         21    1    1    2  503  505 -0.70051502691E+02 -0.65344403439E+01  0.10113946038E+02  0.71078856521E+02  0.00000000000E+00 0. -1.
         21    1    1    2  504  501  0.16958202536E+02 -0.33588199137E+02  0.15597999776E+03  0.16045406650E+03  0.00000000000E+00 0. -1.
         21    1    1    2  505  506 -0.32861918203E+02 -0.31721868441E+02 -0.11686746183E+02  0.47146183745E+02  0.00000000000E+00 0. -1.
         21    1    1    2  506  504  0.85955218357E+02  0.71844507922E+02  0.10884290400E+04  0.10941790110E+04  0.00000000000E+00 0.  1.
<scales pt_clust_3="35.30497" pt_clust_4="37.62642" pt_clust_5="35.30497" pt_clust_6="109.59771"></scales>
<clustering>
<clus scale="   35.305">  3  5 -1 -1</clus>
<clus scale="   37.626">  1  4  2 -1</clus>
<clus scale="  109.598">  1  6  2 -1</clus>
<clus scale="   37.626">  1  3  2 -1</clus>
</clustering>
</event>
<event>
 6    0  0.3042851E+002  0.9788771E+02  0.7546771E-02  0.1284802E+00
         21   -1    0    0  504  501  0.00000000000E+00  0.00000000000E+00  0.37830634110E+03  0.37830634110E+03  0.00000000000E+00 0. -1.
         21   -1    0    0  503  502 -0.00000000000E+00 -0.00000000000E+00 -0.25500466236E+04  0.25500466236E+04  0.00000000000E+00 0. -1.
         21    1    1    2  503  506  0.68547781939E+02 -0.79223767002E+02 -0.23565237881E+04  0.23588513238E+04  0.00000000000E+00 0. -1.
         21    1    1    2  504  502 -0.64494677990E+02 -0.37964609472E+02  0.34089192143E+03  0.34901028231E+03  0.00000000000E+00 0. -1.
         21    1    1    2  505  501  0.91671492855E+01  0.52852313906E+02 -0.28098276033E+01  0.53714977822E+02  0.00000000000E+00 0. -1.
         21    1    1    2  506  505 -0.13220253234E+02  0.64336062567E+02 -0.15329858817E+03  0.16677638075E+03  0.00000000000E+00 0.  1.
<scales pt_clust_3="97.88771" pt_clust_4="57.19874" pt_clust_5="53.64144" pt_clust_6="14000.00000"></scales>
<clustering>
<clus scale="   53.641">  1  5  2 -1</clus>
<clus scale="   57.199">  1  4  2 -1</clus>
<clus scale="   97.888">  2  3  1 -1</clus>
<clus scale="   53.641">  1  3  2 -1</clus>
</clustering>
</event>
<event>
 6    0  0.3042851E+002  0.1362064E+03  0.7546771E-02  0.1218527E+00
         21   -1    0    0  506  501  0.00000000000E+00  0.00000000000E+00  0.20421599548E+03  0.20421599548E+03  0.00000000000E+00 0. -1.
         21   -1    0    0  504  502 -0.00000000000E+00 -0.00000000000E+00 -0.27825651381E+03  0.27825651381E+03  0.00000000000E+00 0. -1.
         21    1    1    2  503  501  0.15461163665E+03  0.51275113130E+02  0.10225430504E+03  0.19232742476E+03  0.00000000000E+00 0. -1.
         21    1    1    2  504  503 -0.44073123427E+02 -0.21285416360E+02 -0.12718485484E+03  0.13627727786E+03  0.00000000000E+00 0. -1.
         21    1    1    2  505  502 -0.28561931221E+02  0.30629501980E+02 -0.26103428741E+02  0.49349157021E+02  0.00000000000E+00 0.  1.
         21    1    1    2  506  505 -0.81976582001E+02 -0.60619198750E+02 -0.23006539789E+02  0.10451864966E+03  0.00000000000E+00 0. -1.
<scales pt_clust_3="14000.00000" pt_clust_4="59.88573" pt_clust_5="41.88019" pt_clust_6="136.20643"></scales>
<clustering>
<clus scale="   41.880">  2  5  1 -1</clus>
<clus scale="   59.886">  2  4  1 -1</clus>
<clus scale="  136.206">  2  6  1 -1</clus>
<clus scale="  136.206">  1  3  2 -1</clus>
</clustering>
</event>
<event>
 6    0  0.3042851E+002  0.1062509E+03  0.7546771E-02  0.1267674E+00
         21   -1    0    0  505  501  0.00000000000E+00  0.00000000000E+00  0.13516046435E+03  0.13516046435E+03  0.00000000000E+00 0. -1.
         21   -1    0    0  504  502 -0.00000000000E+00 -0.00000000000E+00 -0.33026542860E+03  0.33026542860E+03  0.00000000000E+00 0. -1.
         21    1    1    2  503  501  0.34342786135E+02  0.48646992660E+01  0.63370872787E+02  0.72242368291E+02  0.00000000000E+00 0. -1.
         21    1    1    2  504  506 -0.37771172384E+02  0.18971113223E+02 -0.71201907755E+02  0.82802634428E+02  0.00000000000E+00 0. -1.
         21    1    1    2  505  502  0.78584872837E+02  0.38936220594E+02  0.11833623971E+02  0.88496588461E+02  0.00000000000E+00 0. -1.
         21    1    1    2  506  503 -0.75156486588E+02 -0.62772033083E+02 -0.19910755325E+03  0.22188430178E+03  0.00000000000E+00 0. -1.
<scales pt_clust_3="34.68562" pt_clust_4="39.84927" pt_clust_5="14000.00000" pt_clust_6="106.25094"></scales>
<clustering>
<clus scale="   34.686">  1  3  2 -1</clus>
<clus scale="   39.849">  2  4  1 -1</clus>
<clus scale="  106.251">  2  6  1 -1</clus>
<clus scale="   34.686">  1  3  2 -1</clus>
</clustering>
</event>
<event>
 6    0  0.3042851E+002  0.7837406E+02  0.7546771E-02  0.1333730E+00
         21   -1    0    0  505  501  0.00000000000E+00  0.00000000000E+00  0.28095128866E+02  0.28095128866E+02  0.00000000000E+00 0. -1.
         21   -1    0    0  504  502 -0.00000000000E+00 -0.00000000000E+00 -0.13081287301E+04  0.13081287301E+04  0.00000000000E+00 0. -1.
         21    1    1    2  503  501  0.12139183563E+02  0.10812398408E+03 -0.54917876068E+03  0.55985307617E+03  0.00000000000E+00 0. -1.
         21    1    1    2  504  506  0.45021474019E+02  0.13334713006E+02 -0.48121448143E+03  0.48349987056E+03  0.00000000000E+00 0. -1.
         21    1    1    2  505  502 -0.30160479557E+02 -0.68101834260E+02 -0.65230771960E+02  0.99007918709E+02  0.00000000000E+00 0. -1.
         21    1    1    2  506  503 -0.27000178024E+02 -0.53356862821E+02 -0.18440958720E+03  0.19386299357E+03  0.00000000000E+00 0.  1.
<scales pt_clust_3="78.37406" pt_clust_4="46.95474" pt_clust_5="14000.00000" pt_clust_6="52.99867"></scales>
<clustering>
<clus scale="   46.955">  2  4  1 -1</clus>
<clus scale="   52.999">  2  6  1 -1</clus>
<clus scale="   78.374">  2  3  1 -1</clus>
<clus scale="   78.374">  1  3  2 -1</clus>
</clustering>
</event>
<event>
 6    0  0.3042851E+002  0.1437557E+03  0.7546771E-02  0.1208363E+00
         21   -1    0    0  502  501  0.00000000000E+00  0.00000000000E+00  0.52865918807E+03  0.52865918807E+03  0.00000000000E+00 0. -1.
         21   -1    0    0  504  502 -0.00000000000E+00 -0.00000000000E+00 -0.13134744758E+03  0.13134744758E+03  0.00000000000E+00 0. -1.
         21    1    1    2  503  501 -0.35030297500E+02  0.73127307090E+02  0.24252044478E+03  0.25571642677E+03  0.00000000000E+00 0. -1.
         21    1    1    2  504  506 -0.37407788185E+01 -0.84622776007E+02 -0.65734817681E+02  0.10721974585E+03  0.00000000000E+00 0. -1.
         21    1    1    2  505  503 -0.60112976372E+02  0.53251648326E+02  0.14523160299E+03  0.16595639935E+03  0.00000000000E+00 0.  1.
         21    1    1    2  506  505  0.98884052690E+02 -0.41756179409E+02  0.75294510403E+02  0.13111406367E+03  0.00000000000E+00 0. -1.
<scales pt_clust_3="49.08286" pt_clust_4="84.70542" pt_clust_5="49.08286" pt_clust_6="135.03057"></scales>
<clustering>
<clus scale="   49.083">  3  5 -1 -1</clus>
<clus scale="   84.705">  2  4  1 -1</clus>
<clus scale="  135.031">  2  6  1 -1</clus>
<clus scale="  143.756">  1  3  2 -1</clus>
</clustering>
</event>
<event>
 6    0  0.3042851E+002  0.1141195E+03  0.7546771E-02  0.1253126E+00
         21   -1    0    0  506  501  0.00000000000E+00  0.00000000000E+00  0.17441312289E+03  0.17441312289E+03  0.00000000000E+00 0. -1.
         21   -1    0    0  503  502 -0.00000000000E+00 -0.00000000000E+00 -0.93353070694E+03  0.93353070694E+03  0.00000000000E+00 0. -1.
         21    1    1    2  503  504 -0.33713715130E+02 -0.97718231737E+01 -0.30835330733E+02  0.46721737312E+02  0.00000000000E+00 0. -1.
         21    1    1    2  504  501 -0.10268106117E+03  0.78703571325E+02 -0.10547694861E+03  0.16692225481E+03  0.00000000000E+00 0. -1.
         21    1    1    2  505  502  0.93359493597E+02 -0.30842231698E+00 -0.74328329796E+03  0.74912358873E+03  0.00000000000E+00 0. -1.
         21    1    1    2  506  505  0.43035282708E+02 -0.68623325834E+02  0.12047799326E+03  0.14517624897E+03  0.00000000000E+00 0. -1.
<scales pt_clust_3="31.71644" pt_clust_4="31.71644" pt_clust_5="96.51768" pt_clust_6="81.00121"></scales>
<clustering>
<clus scale="   31.716">  3  4 -1 -1</clus>
<clus scale="   81.001">  1  6  2 -1</clus>
<clus scale="   96.518">  2  5  1 -1</clus>
<clus scale="   81.001">  1  3  2 -1</clus>
</clustering>
</event>
<event>
 6    0  0.3042851E+002  0.9925698E+02  0.7546771E-02  0.1281866E+00
         21   -1    0    0  503  501  0.00000000000E+00  0.00000000000E+00  0.14502905674E+04  0.14502905674E+04  0.00000000000E+00 0. -1.
         21   -1    0    0  506  502 -0.00000000000E+00 -0.00000000000E+00 -0.18435287781E+02  0.18435287781E+02  0.00000000000E+00 0. -1.
         21    1    1    2  503  505  0.42750781702E+02  0.74187743506E+02  0.81260687336E+03  0.81710548968E+03  0.00000000000E+00 0. -1.
         21    1    1    2  504  502  0.33758971213E+02 -0.54766898684E+02  0.11136169445E+03  0.12860990755E+03  0.00000000000E+00 0. -1.
         21    1    1    2  505  504 -0.13362650988E+02 -0.37433606735E+02  0.72330373520E+02  0.82531922843E+02  0.00000000000E+00 0. -1.
         21    1    1    2  506  501 -0.63147101927E+02  0.18012761914E+02  0.43555633831E+03  0.44047853513E+03  0.00000000000E+00 0. -1.
<scales pt_clust_3="89.05501" pt_clust_4="34.45149" pt_clust_5="34.45149" pt_clust_6="65.66594"></scales>
<clustering>
<clus scale="   34.451">  4  5 -1 -1</clus>
<clus scale="   65.666">  1  6  2 -1</clus>
<clus scale="   89.055">  1  3  2 -1</clus>
<clus scale="   65.666">  1  3  2 -1</clus>
</clustering>
</event>
<event>
 6    0  0.3042851E+002  0.1022534E+03  0.7546771E-02  0.1275628E+00
         21   -1    0    0  502  501  0.00000000000E+00  0.00000000000E+00  0.23789838591E+02  0.23789838591E+02  0.00000000000E+00 0.  1.
         21   -1    0    0  504  502 -0.00000000000E+00 -0.00000000000E+00 -0.13180170659E+04  0.13180170659E+04  0.00000000000E+00 0.  1.
         21    1    1    2  503  505  0.28489328294E+01  0.11068752858E+03 -0.25415214202E+03  0.27722401897E+03  0.00000000000E+00 0.  1.
         21    1    1    2  504  506  0.44847956682E+02 -0.22832290184E+02 -0.54353061886E+03  0.54585546285E+03  0.00000000000E+00 0.  1.
         21    1    1    2  505  501 -0.42008786472E+02  0.80930275376E+00 -0.60095499777E+02  0.73327090527E+02  0.00000000000E+00 0.  1.
         21    1    1    2  506  503 -0.56881030399E+01 -0.88664541148E+02 -0.43644896666E+03  0.44540033214E+03  0.00000000000E+00 0.  1.
<scales pt_clust_3="102.25338" pt_clust_4="47.78286" pt_clust_5="42.01658" pt_clust_6="14000.00000"></scales>
<clustering>
<clus scale="   42.017">  1  5  2 -1</clus>
<clus scale="   47.783">  2  4  1 -1</clus>
<clus scale="  102.253">  1  3  2 -1</clus>
<clus scale="   42.017">  1  3  2 -1</clus>
</clustering>
</event>
<event>
 6    0  0.3042851E+002  0.1424519E+03  0.7546771E-02  0.1210067E+00
         21   -1    0    0  505  501  0.00000000000E+00  0.00000000000E+00  0.25579459261E+03  0.25579459261E+03  0.00000000000E+00 0.  1.
         21   -1    0    0  504  502 -0.00000000000E+00 -0.00000000000E+00 -0.48095448604E+03  0.48095448604E+03  0.00000000000E+00 0.  1.
         21    1    1    2  503  501  0.65234914449E+02 -0.19784551833E+02  0.12313556872E+03  0.14074583773E+03  0.00000000000E+00 0.  1.
         21    1    1    2  504  503  0.27148677719E+02 -0.73126494948E+02  0.95305393566E+02  0.12315702582E+03  0.00000000000E+00 0.  1.
         21    1    1    2  505  506 -0.71548396349E+02  0.46723669379E+02 -0.13263501792E+03  0.15777934681E+03  0.00000000000E+00 0.  1.
         21    1    1    2  506  502 -0.20835195819E+02  0.46187377402E+02 -0.31096583780E+03  0.31506686829E+03  0.00000000000E+00 0.  1.
<scales pt_clust_3="65.46954" pt_clust_4="65.46954" pt_clust_5="124.62534" pt_clust_6="50.66931"></scales>
<clustering>
<clus scale="   50.669">  2  6  1 -1</clus>
<clus scale="   65.470">  3  4 -1 -1</clus>
<clus scale="  124.625">  2  5  1 -1</clus>
<clus scale="  142.452">  1  3  2 -1</clus>
</clustering>
</event>
<event>
 6    0  0.3042851E+002  0.1007509E+03  0.7546771E-02  0.1278725E+00
         21   -1    0    0  504  501  0.00000000000E+00  0.00000000000E+00  0.51524721410E+03  0.51524721410E+03  0.00000000000E+00 0. -1.
         21   -1    0    0  505  502 -0.00000000000E+00 -0.00000000000E+00 -0.17601311950E+03  0.17601311950E+03  0.00000000000E+00 0. -1.
         21    1    1    2  503  506 -0.62847306148E+02  0.45327440784E+02 -0.10275177712E+03  0.12869455497E+03  0.00000000000E+00 0. -1.
         21    1    1    2  504  502  0.50782415958E+02  0.58798465070E+01  0.11159269946E+03  0.12274508927E+03  0.00000000000E+00 0. -1.
         21    1    1    2  505  503  0.43051891163E+01  0.42570205809E+02 -0.39447717176E+02  0.58196902550E+02  0.00000000000E+00 0. -1.
         21    1    1    2  506  501  0.77597010735E+01 -0.93777493101E+02  0.36984088942E+03  0.38162378682E+03  0.00000000000E+00 0. -1.
<scales pt_clust_3="100.75090" pt_clust_4="51.55640" pt_clust_5="42.78735" pt_clust_6="14000.00000"></scales>
<clustering>
<clus scale="   42.787">  2  5  1 -1</clus>
<clus scale="   51.556">  1  4  2 -1</clus>
<clus scale="  100.751">  2  3  1 -1</clus>
<clus scale="   51.556">  1  3  2 -1</clus>
</clustering>
</event>
<event>
 6    0  0.3042851E+002  0.9368056E+02  0.7546771E-02  0.1294176E+00
         21   -1    0    0  505  501  0.00000000000E+00  0.00000000000E+00  0.25057643391E+03  0.25057643391E+03  0.00000000000E+00 0.  1.
         21   -1    0    0  503  502 -0.00000000000E+00 -0.00000000000E+00 -0.25876662983E+03  0.25876662983E+03  0.00000000000E+00 0.  1.
         21    1    1    2  503  501  0.19165487381E+02 -0.36464167001E+02  0.87550532647E+02  0.96757672297E+02  0.00000000000E+00 0.  1.
         21    1    1    2  504  506  0.51165415067E+01 -0.42831773122E+02 -0.68945600894E+02  0.81327951336E+02  0.00000000000E+00 0.  1.
         21    1    1    2  505  504 -0.45027037335E+02  0.11669617659E+03  0.12303009015E+03  0.17544752721E+03  0.00000000000E+00 0.  1.
         21    1    1    2  506  502  0.20745008447E+02 -0.37400236471E+02 -0.14982521781E+03  0.15580991290E+03  0.00000000000E+00 0.  1.
<scales pt_clust_3="41.19407" pt_clust_4="35.45261" pt_clust_5="86.65072" pt_clust_6="35.45261"></scales>
<clustering>
<clus scale="   35.453">  4  6 -1 -1</clus>
<clus scale="   41.194">  1  3  2 -1</clus>
<clus scale="   86.651">  1  5  2 -1</clus>
<clus scale="   41.194">  1  3  2 -1</clus>
</clustering>
</event>
<event>
 6    0  0.3042851E+002  0.1532466E+03  0.7546771E-02  0.1196539E+00
         21   -1    0    0  506  501  0.00000000000E+00  0.00000000000E+00  0.50722125457E+03  0.50722125457E+03  0.00000000000E+00 0.  1.
         21   -1    0    0  504  502 -0.00000000000E+00 -0.00000000000E+00 -0.37076099506E+03  0.37076099506E+03  0.00000000000E+00 0. -1.
         21    1    1    2  503  501 -0.10295729872E+03  0.42942230844E+00  0.40440513543E+03  0.41730552755E+03  0.00000000000E+00 0.  1.
         21    1    1    2  504  505  0.34026809753E+02 -0.25304635993E+02 -0.37413015943E+02  0.56549820041E+02  0.00000000000E+00 0. -1.
         21    1    1    2  505  503 -0.40210488258E+02  0.12912446955E+02  0.71342521400E+02  0.82905789979E+02  0.00000000000E+00 0. -1.
         21    1    1    2  506  502  0.10914097723E+03  0.11962766730E+02 -0.30187438138E+03  0.32122111206E+03  0.00000000000E+00 0. -1.
<scales pt_clust_3="36.23300" pt_clust_4="42.40458" pt_clust_5="36.23300" pt_clust_6="142.42191"></scales>
<clustering>
<clus scale="   36.233">  3  5 -1 -1</clus>
<clus scale="   42.405">  2  4  1 -1</clus>
<clus scale="  142.422">  2  6  1 -1</clus>
<clus scale="  153.247">  1  3  2 -1</clus>
</clustering>
</event>
<event>
 6    0  0.3042851E+002  0.1028752E+03  0.7546771E-02  0.1274363E+00
         21   -1    0    0  506  501  0.00000000000E+00  0.00000000000E+00  0.22271327960E+03  0.22271327960E+03  0.00000000000E+00 0. -1.
         21   -1    0    0  505  502 -0.00000000000E+00 -0.00000000000E+00 -0.67845635279E+03  0.67845635279E+03  0.00000000000E+00 0.  1.
         21    1    1    2  503  502  0.74676319029E+02 -0.95935203524E+02 -0.42033222929E+03  0.43756062309E+03  0.00000000000E+00 0.  1.
         21    1    1    2  504  501 -0.60190735282E+02  0.72383043491E+02  0.14884095289E+03  0.17611319898E+03  0.00000000000E+00 0. -1.
         21    1    1    2  505  504 -0.64121007199E+02  0.56382960548E+02 -0.20689598785E+03  0.22382245551E+03  0.00000000000E+00 0. -1.
         21    1    1    2  506  503  0.49635423451E+02 -0.32830800515E+02  0.22644191061E+02  0.63673354808E+02  0.00000000000E+00 0.  1.
<scales pt_clust_3="14000.00000" pt_clust_4="45.32656" pt_clust_5="102.87521" pt_clust_6="59.51081"></scales>
<clustering>
<clus scale="   59.511">  1  6  2 -1</clus>
<clus scale="   45.327">  1  4  2 -1</clus>
<clus scale="  102.875">  2  5  1 -1</clus>
<clus scale="   59.511">  1  3  2 -1</clus>
</clustering>
</event>
<event>
 6    0  0.3042851E+002  0.1588659E+03  0.7546771E-02  0.1189983E+00
         21   -1    0    0  503  501  0.00000000000E+00  0.00000000000E+00  0.38391186606E+03  0.38391186606E+03  0.00000000000E+00 0. -1.
         21   -1    0    0  505  502 -0.00000000000E+00 -0.00000000000E+00 -0.10336827391E+04  0.10336827391E+04  0.00000000000E+00 0.  1.
         21    1    1    2  503  504 -0.15945120055E+03 -0.84805011779E+01  0.35033961988E+03  0.38501227710E+03  0.00000000000E+00 0. -1.
         21    1    1    2  504  506  0.11510745584E+03  0.65943516721E+02 -0.85445697540E+03  0.86469358538E+03  0.00000000000E+00 0.  1.
         21    1    1    2  505  501  0.22443369438E+02 -0.21603439079E+02 -0.24426300876E+02  0.39586078187E+02  0.00000000000E+00 0.  1.
         21    1    1    2  506  502  0.21900375277E+02 -0.35859576464E+02 -0.12122721659E+03  0.12830266445E+03  0.00000000000E+00 0.  1.
<scales pt_clust_3="14000.00000" pt_clust_4="158.86586" pt_clust_5="31.15146" pt_clust_6="45.78230"></scales>
<clustering>
<clus scale="   31.151">  2  5  1 -1</clus>
<clus scale="   45.782">  2  6  1 -1</clus>
<clus scale="  158.866">  2  4  1 -1</clus>
<clus scale="  158.866">  1  3  2 -1</clus>
</clustering>
</event>
<event>
 6    0  0.3042851E+002  0.9973853E+02  0.7546771E-02  0.1280847E+00
         21   -1    0    0  506  501  0.00000000000E+00  0.00000000000E+00  0.45682710328E+03  0.45682710328E+03  0.00000000000E+00 0. -1.
         21   -1    0    0  505  502 -0.00000000000E+00 -0.00000000000E+00 -0.11140798630E+04  0.11140798630E+04  0.00000000000E+00 0. -1.
         21    1    1    2  503  502  0.13299491767E+03  0.60788063664E+02  0.22408286248E+03  0.26757422534E+03  0.00000000000E+00 0. -1.
         21    1    1    2  504  501 -0.50467011281E+02 -0.15574737372E+02 -0.50452974388E+03  0.50728665874E+03  0.00000000000E+00 0. -1.
         21    1    1    2  505  504  0.12280191881E+01 -0.39695983844E+02 -0.57731362868E+03  0.57867806682E+03  0.00000000000E+00 0. -1.
         21    1    1    2  506  503 -0.83755925578E+02 -0.55173424473E+01  0.20050775039E+03  0.21736801536E+03  0.00000000000E+00 0. -1.
<scales pt_clust_3="14000.00000" pt_clust_4="72.41640" pt_clust_5="39.71497" pt_clust_6="99.73853"></scales>
<clustering>
<clus scale="   39.715">  2  5  1 -1</clus>
<clus scale="   72.416">  2  4  1 -1</clus>
<clus scale="   99.739">  1  6  2 -1</clus>
<clus scale="   99.739">  1  3  2 -1</clus>
</clustering>
</event>
<event>
 6    0  0.3042851E+002  0.9075025E+02  0.7546771E-02  0.1301045E+00
         21   -1    0    0  504  501  0.00000000000E+00  0.00000000000E+00  0.18543444402E+03  0.18543444402E+03  0.00000000000E+00 0.  1.
         21   -1    0    0  506  502 -0.00000000000E+00 -0.00000000000E+00 -0.28660897282E+03  0.28660897282E+03  0.00000000000E+00 0. -1.
         21    1    1    2  503  501 -0.25855359965E+00 -0.74538345602E+02  0.50084223049E+02  0.89802345256E+02  0.00000000000E+00 0.  1.
         21    1    1    2  504  505 -0.15190013346E+02 -0.32043058832E+02  0.85999006045E+02  0.93023239921E+02  0.00000000000E+00 0.  1.
         21    1    1    2  505  502 -0.54886857848E+02  0.46987490691E+02 -0.11982562663E+03  0.13992345137E+03  0.00000000000E+00 0. -1.
         21    1    1    2  506  503  0.70335424793E+02  0.59593913743E+02 -0.11743213125E+03  0.14929438029E+03  0.00000000000E+00 0. -1.
<scales pt_clust_3="90.75025" pt_clust_4="35.46116" pt_clust_5="71.36818" pt_clust_6="14000.00000"></scales>
<clustering>
<clus scale="   35.461">  1  4  2 -1</clus>
<clus scale="   71.368">  2  5  1 -1</clus>
<clus scale="   90.750">  1  3  2 -1</clus>
<clus scale="   35.461">  1  3  2 -1</clus>
</clustering>
</event>
<event>
 6    0  0.3042851E+002  0.2272839E+03  0.7546771E-02  0.1128566E+00
         21   -1    0    0  503  501  0.00000000000E+00  0.00000000000E+00  0.31308284071E+03  0.31308284071E+03  0.00000000000E+00 0. -1.
         21   -1    0    0  504  502 -0.00000000000E+00 -0.00000000000E+00 -0.10414911631E+04  0.10414911631E+04  0.00000000000E+00 0. -1.
         21    1    1    2  503  506 -0.15778504043E+03  0.17957019908E+03  0.22575931353E+03  0.32879909220E+03  0.00000000000E+00 0. -1.
         21    1    1    2  504  505  0.76353389762E+02 -0.49815177052E+02 -0.47836743098E+03  0.48697719764E+03  0.00000000000E+00 0. -1.
         21    1    1    2  505  501  0.55592278000E+02 -0.16899217549E+03 -0.24217562277E+03  0.30049607154E+03  0.00000000000E+00 0. -1.
         21    1    1    2  506  502  0.25839372673E+02  0.39237153462E+02 -0.23362458217E+03  0.23830164243E+03  0.00000000000E+00 0. -1.
<scales pt_clust_3="14000.00000" pt_clust_4="95.52920" pt_clust_5="227.28392" pt_clust_6="46.98114"></scales>
<clustering>
<clus scale="   46.981">  2  6  1 -1</clus>
<clus scale="   95.529">  2  4  1 -1</clus>
<clus scale="  227.284">  2  5  1 -1</clus>
<clus scale="  227.284">  1  3  2 -1</clus>
</clustering>
</event>
<event>
 6    0  0.3042851E+002  0.1276703E+03  0.7546771E-02  0.1230954E+00
         21   -1    0    0  504  501  0.00000000000E+00  0.00000000000E+00  0.17287216571E+03  0.17287216571E+03  0.00000000000E+00 0. -1.
         21   -1    0    0  501  502 -0.00000000000E+00 -0.00000000000E+00 -0.27291804977E+03  0.27291804977E+03  0.00000000000E+00 0. -1.
         21    1    1    2  503  506 -0.67277932389E+02 -0.10368773864E+03 -0.17503944689E+03  0.21428083278E+03  0.00000000000E+00 0. -1.
         21    1    1    2  504  505  0.20421500838E+02  0.27096086059E+02  0.65890204899E+02  0.74113120821E+02  0.00000000000E+00 0. -1.
         21    1    1    2  505  503  0.77428442942E+02  0.73741976698E+02  0.39692532288E+02  0.11405498684E+03  0.00000000000E+00 0. -1.
         21    1    1    2  506  502 -0.30572011392E+02  0.28496758808E+01 -0.30589174361E+02  0.43341275030E+02  0.00000000000E+00 0.  1.
<scales pt_clust_3="14000.00000" pt_clust_4="33.65197" pt_clust_5="127.67032" pt_clust_6="30.70454"></scales>
<clustering>
<clus scale="   30.705">  2  6  1 -1</clus>
<clus scale="   33.652">  1  4  2 -1</clus>
<clus scale="  127.670">  1  5  2 -1</clus>
<clus scale="   33.652">  1  3  2 -1</clus>
</clustering>
</event>
<event>
 6    0  0.3042851E+002  0.1182359E+03  0.7546771E-02  0.1246036E+00
         21   -1    0    0  504  501  0.00000000000E+00  0.00000000000E+00  0.70760671192E+01  0.70760671192E+01  0.00000000000E+00 0.  1.
         21   -1    0    0  506  502 -0.00000000000E+00 -0.00000000000E+00 -0.34659564167E+04  0.34659564167E+04  0.00000000000E+00 0.  1.
         21    1    1    2  503  502  0.43963195703E+02 -0.65613511586E+02 -0.11241743024E+04  0.11269453215E+04  0.00000000000E+00 0.  1.
         21    1    1    2  504  503  0.33988098665E+01 -0.49467691229E+02 -0.44332260918E+03  0.44608692000E+03  0.00000000000E+00 0.  1.
         21    1    1    2  505  501  0.40805239805E+02  0.54092607669E+02 -0.51323902879E+03  0.51769235891E+03  0.00000000000E+00 0.  1.
         21    1    1    2  506  505 -0.88167245374E+02  0.60988595145E+02 -0.13781444092E+04  0.13823078834E+04  0.00000000000E+00 0.  1.
<scales pt_clust_3="34.51031" pt_clust_4="34.51031" pt_clust_5="67.75749" pt_clust_6="109.92134"></scales>
<clustering>
<clus scale="   34.510">  3  4 -1 -1</clus>
<clus scale="   67.757">  1  5  2 -1</clus>
<clus scale="  109.921">  2  6  1 -1</clus>
<clus scale="   67.757">  1  3  2 -1</clus>
</clustering>
</event>
<event>
 6    0  0.3042851E+002  0.1348347E+03  0.7546771E-02  0.1220453E+00
         21   -1    0    0  503  501  0.00000000000E+00  0.00000000000E+00  0.14237934054E+03  0.14237934054E+03  0.00000000000E+00 0. -1.
         21   -1    0    0  504  502 -0.00000000000E+00 -0.00000000000E+00 -0.41702698557E+03  0.41702698557E+03  0.00000000000E+00 0.  1.
         21    1    1    2  503  502 -0.22895979386E+02  0.39719610394E+02  0.62030274255E+01  0.46263926240E+02  0.00000000000E+00 0. -1.
         21    1    1    2  504  505  0.83305166748E+02  0.14410711653E+02 -0.24889983075E+03  0.26286602132E+03  0.00000000000E+00 0.  1.
         21    1    1    2  505  506  0.42092629302E+02 -0.29612420260E+02 -0.10845287426E+03  0.12004462008E+03  0.00000000000E+00 0. -1.
         21    1    1    2  506  501 -0.10250181666E+03 -0.24517901787E+02  0.76502032553E+02  0.13023175846E+03  0.00000000000E+00 0. -1.
<scales pt_clust_3="45.84619" pt_clust_4="42.47685" pt_clust_5="42.47685" pt_clust_6="123.35513"></scales>
<clustering>
<clus scale="   42.477">  4  5 -1 -1</clus>
<clus scale="   45.846">  1  3  2 -1</clus>
<clus scale="  123.355">  1  6  2 -1</clus>
<clus scale="   45.846">  1  3  2 -1</clus>
</clustering>
</event>
<event>
 6    0  0.3042851E+002  0.1286892E+03  0.7546771E-02  0.1229414E+00
         21   -1    0    0  503  501  0.00000000000E+00  0.00000000000E+00  0.16238708740E+04  0.16238708740E+04  0.00000000000E+00 0. -1.
         21   -1    0    0  505  502 -0.00000000000E+00 -0.00000000000E+00 -0.58078066869E+02  0.58078066869E+02  0.00000000000E+00 0. -1.
         21    1    1    2  503  506  0.87853050597E+01  0.35746651733E+02  0.34509218407E+03  0.34704988143E+03  0.00000000000E+00 0. -1.
         21    1    1    2  504  502  0.22392057884E+02  0.33343116318E+02  0.48791847322E+02  0.63196614048E+02  0.00000000000E+00 0. -1.
         21    1    1    2  505  501 -0.11106352811E+03 -0.10828144001E+03  0.76980742159E+02  0.17316469672E+03  0.00000000000E+00 0. -1.
         21    1    1    2  506  504  0.79886165166E+02  0.39191671955E+02  0.10949280336E+04  0.10985377487E+04  0.00000000000E+00 0. -1.
<scales pt_clust_3="32.71383" pt_clust_4="40.16426" pt_clust_5="118.21136" pt_clust_6="32.71383"></scales>
<clustering>
<clus scale="   32.714">  3  6 -1 -1</clus>
<clus scale="   40.164">  2  4  1 -1</clus>
<clus scale="  118.211">  2  5  1 -1</clus>
<clus scale="  128.689">  1  3  2 -1</clus>
</clustering>
</event>
<event>
 6    0  0.3042851E+002  0.8079369E+02  0.7546771E-02  0.1326814E+00
         21   -1    0    0  505  501  0.00000000000E+00  0.00000000000E+00  0.46528206867E+03  0.46528206867E+03  0.00000000000E+00 0. -1.
         21   -1    0    0  503  502 -0.00000000000E+00 -0.00000000000E+00 -0.23493777867E+03  0.23493777867E+03  0.00000000000E+00 0. -1.
         21    1    1    2  503  506  0.11343185143E+01 -0.63135517216E+02 -0.17203842727E+03  0.18326101787E+03  0.00000000000E+00 0. -1.
         21    1    1    2  504  502  0.57209678199E+02  0.40792610965E+02  0.12199579883E+01  0.70274267598E+02  0.00000000000E+00 0.  1.
         21    1    1    2  505  504 -0.11708893665E+03 -0.17019939394E+02  0.18834300930E+03  0.22242433899E+03  0.00000000000E+00 0. -1.
         21    1    1    2  506  501  0.58744939936E+02  0.39362845645E+02  0.21281974998E+03  0.22426022288E+03  0.00000000000E+00 0. -1.
<scales pt_clust_3="63.14571" pt_clust_4="57.95819" pt_clust_5="80.79369" pt_clust_6="14000.00000"></scales>
<clustering>
<clus scale="   63.146">  2  3  1 -1</clus>
<clus scale="   57.958">  2  4  1 -1</clus>
<clus scale="   80.794">  2  5  1 -1</clus>
<clus scale="   80.794">  1  3  2 -1</clus>
</clustering>
</event>
<event>
 6    0  0.3042851E+002  0.1220229E+03  0.7546771E-02  0.1239797E+00
         21   -1    0    0  502  501  0.00000000000E+00  0.00000000000E+00  0.61717911044E+03  0.61717911044E+03  0.00000000000E+00 0. -1.
         21   -1    0    0  503  502 -0.00000000000E+00 -0.00000000000E+00 -0.85283652597E+02  0.85283652597E+02  0.00000000000E+00 0.  1.
         21    1    1    2  503  504  0.22759782921E+02 -0.27484769648E+02 -0.14431964000E+02  0.38492880719E+02  0.00000000000E+00 0.  1.
         21    1    1    2  504  505  0.38136126584E+02  0.35197770392E+02  0.62187086130E+02  0.80996795448E+02  0.00000000000E+00 0.  1.
         21    1    1    2  505  506  0.56633437647E+02  0.52895731162E+02 -0.36464671082E+01  0.77579645251E+02  0.00000000000E+00 0.  1.
         21    1    1    2  506  501 -0.11752934715E+03 -0.60608731907E+02  0.48778680282E+03  0.50539344162E+03  0.00000000000E+00 0. -1.
<scales pt_clust_3="35.68501" pt_clust_4="51.90381" pt_clust_5="122.02288" pt_clust_6="14000.00000"></scales>
<clustering>
<clus scale="   35.685">  2  3  1 -1</clus>
<clus scale="   51.904">  2  4  1 -1</clus>
<clus scale="  122.023">  2  5  1 -1</clus>
<clus scale="  122.023">  1  3  2 -1</clus>
</clustering>
</event>
<event>
 6    0  0.3042851E+002  0.6410300E+03  0.7546771E-02  0.9823758E-01
         21   -1    0    0  505  501  0.00000000000E+00  0.00000000000E+00  0.69610842626E+03  0.69610842626E+03  0.00000000000E+00 0. -1.
         21   -1    0    0  503  502 -0.00000000000E+00 -0.00000000000E+00 -0.19399238063E+04  0.19399238063E+04  0.00000000000E+00 0.  1.
         21    1    1    2  503  506  0.60365127068E+02  0.60498413284E+03 -0.16709243471E+04  0.17780995257E+04  0.00000000000E+00 0.  1.
         21    1    1    2  504  501 -0.12111237278E+02 -0.29842779472E+02  0.76191807999E+02  0.82719194635E+02  0.00000000000E+00 0. -1.
         21    1    1    2  505  502 -0.25334503049E+01  0.40665011879E+02 -0.29171189762E+02  0.50110077567E+02  0.00000000000E+00 0. -1.
         21    1    1    2  506  504 -0.45720439485E+02 -0.61580636525E+03  0.38008834881E+03  0.72510343467E+03  0.00000000000E+00 0. -1.
<scales pt_clust_3="641.02998" pt_clust_4="32.20673" pt_clust_5="40.25165" pt_clust_6="14000.00000"></scales>
<clustering>
<clus scale="   32.207">  1  4  2 -1</clus>
<clus scale="   40.252">  2  5  1 -1</clus>
<clus scale="  641.030">  2  3  1 -1</clus>
<clus scale="   32.207">  1  3  2 -1</clus>
</clustering>
</event>
<event>
 6    0  0.3042851E+002  0.1269145E+03  0.7546771E-02  0.1232107E+00
         21   -1    0    0  503  501  0.00000000000E+00  0.00000000000E+00  0.36059956983E+03  0.36059956983E+03  0.00000000000E+00 0. -1.
         21   -1    0    0  504  502 -0.00000000000E+00 -0.00000000000E+00 -0.59535525749E+03  0.59535525749E+03  0.00000000000E+00 0.  1.
         21    1    1    2  503  505 -0.63217632890E+01  0.11420531894E+03  0.18791276550E+03  0.21998642459E+03  0.00000000000E+00 0. -1.
         21    1    1    2  504  501  0.38209649875E+02  0.19717788841E+01  0.14718265611E+03  0.15207432234E+03  0.00000000000E+00 0. -1.
         21    1    1    2  505  506 -0.36758308795E+02 -0.67823120746E+02 -0.39223773576E+03  0.39975191098E+03  0.00000000000E+00 0.  1.
         21    1    1    2  506  502  0.48704222086E+01 -0.48353977078E+02 -0.17761337351E+03  0.18414216942E+03  0.00000000000E+00 0.  1.
<scales pt_clust_3="120.08008" pt_clust_4="38.26049" pt_clust_5="32.61033" pt_clust_6="32.61033"></scales>
<clustering>
<clus scale="   32.610">  5  6 -1 -1</clus>
<clus scale="   38.260">  1  4  2 -1</clus>
<clus scale="  120.080">  1  3  2 -1</clus>
<clus scale="   38.260">  1  3  2 -1</clus>
</clustering>
</event>
<event>
 6    0  0.3042851E+002  0.1498411E+03  0.7546771E-02  0.1200668E+00
         21   -1    0    0  505  501  0.00000000000E+00  0.00000000000E+00  0.20062480006E+04  0.20062480006E+04  0.00000000000E+00 0.  1.
         21   -1    0    0  503  502 -0.00000000000E+00 -0.00000000000E+00 -0.41616840065E+02  0.41616840065E+02  0.00000000000E+00 0. -1.
         21    1    1    2  503  506 -0.88063287748E+02 -0.16565282539E+03  0.13503798639E+04  0.13633494703E+04  0.00000000000E+00 0.  1.
         21    1    1    2  504  502  0.12369303727E+03  0.79994658603E+02  0.16800597544E+03  0.22343929971E+03  0.00000000000E+00 0. -1.
         21    1    1    2  505  504  0.40688800908E+01  0.74667057549E+02  0.29282407193E+03  0.30222121430E+03  0.00000000000E+00 0.  1.
         21    1    1    2  506  501 -0.39698629618E+02  0.10991109239E+02  0.15342124928E+03  0.15885485641E+03  0.00000000000E+00 0.  1.
<scales pt_clust_3="14000.00000" pt_clust_4="149.84107" pt_clust_5="76.46963" pt_clust_6="41.19206"></scales>
<clustering>
<clus scale="   41.192">  1  6  2 -1</clus>
<clus scale="   76.470">  1  5  2 -1</clus>
<clus scale="  149.841">  2  4  1 -1</clus>
<clus scale="   41.192">  1  3  2 -1</clus>
</clustering>
</event>
<event>
 6    0  0.3042851E+002  0.1656237E+03  0.7546771E-02  0.1182490E+00
         21   -1    0    0  504  501  0.00000000000E+00  0.00000000000E+00  0.17267824945E+03  0.17267824945E+03  0.00000000000E+00 0.  1.
         21   -1    0    0  505  502 -0.00000000000E+00 -0.00000000000E+00 -0.33328367923E+03  0.33328367923E+03  0.00000000000E+00 0.  1.
         21    1    1    2  503  501  0.10674006546E+03  0.29136271534E+02  0.90586082821E+02  0.14299721079E+03  0.00000000000E+00 0.  1.
         21    1    1    2  504  506 -0.36121258577E+02 -0.28152371715E+02 -0.51883557664E+02  0.69204081601E+02  0.00000000000E+00 0.  1.
         21    1    1    2  505  503  0.46321528426E+02 -0.10292692195E+02  0.14728233680E+02  0.49684448027E+02  0.00000000000E+00 0.  1.
         21    1    1    2  506  502 -0.11694033531E+03  0.93087923756E+01 -0.21403618861E+03  0.24407618826E+03  0.00000000000E+00 0.  1.
<scales pt_clust_3="161.35401" pt_clust_4="37.73910" pt_clust_5="31.07847" pt_clust_6="37.73910"></scales>
<clustering>
<clus scale="   31.078">  3  5 -1 -1</clus>
<clus scale="   37.739">  4  6 -1 -1</clus>
<clus scale="  161.354">  1  3  2 -1</clus>
<clus scale="  161.354">  1  3  2 -1</clus>
</clustering>
</event>
<event>
 6    0  0.3042851E+002  0.9193913E+02  0.7546771E-02  0.1298223E+00
         21   -1    0    0  504  501  0.00000000000E+00  0.00000000000E+00  0.58301050564E+03  0.58301050564E+03  0.00000000000E+00 0. -1.
         21   -1    0    0  503  502 -0.00000000000E+00 -0.00000000000E+00 -0.12350379333E+03  0.12350379333E+03  0.00000000000E+00 0. -1.
         21    1    1    2  503  506 -0.91017845295E+02 -0.61877839288E+01  0.35374676797E+01  0.91296497795E+02  0.00000000000E+00 0. -1.
         21    1    1    2  504  505 -0.31352711433E+02 -0.48347361833E+02  0.44082986922E+03  0.44458006423E+03  0.00000000000E+00 0. -1.
         21    1    1    2  505  502  0.84727259425E+02  0.44303440857E+02 -0.39544331665E+02  0.10346621443E+03  0.00000000000E+00 0. -1.
         21    1    1    2  506  501  0.37643297302E+02  0.10231704905E+02  0.54683707075E+02  0.67171522512E+02  0.00000000000E+00 0. -1.
<scales pt_clust_3="91.93913" pt_clust_4="39.67535" pt_clust_5="14000.00000" pt_clust_6="39.00905"></scales>
<clustering>
<clus scale="   39.009">  1  6  2 -1</clus>
<clus scale="   39.675">  1  4  2 -1</clus>
<clus scale="   91.939">  1  3  2 -1</clus>
<clus scale="   39.009">  1  3  2 -1</clus>
</clustering>
</event>
<event>
 6    0  0.3042851E+002  0.1150952E+03  0.7546771E-02  0.1251415E+00
         21   -1    0    0  504  501  0.00000000000E+00  0.00000000000E+00  0.86864743101E+02  0.86864743101E+02  0.00000000000E+00 0. -1.
         21   -1    0    0  506  502 -0.00000000000E+00 -0.00000000000E+00 -0.11883752231E+04  0.11883752231E+04  0.00000000000E+00 0.  1.
         21    1    1    2  503  505 -0.38783948301E+02  0.60829279727E+02 -0.93008918080E+03  0.93288277944E+03  0.00000000000E+00 0.  1.
         21    1    1    2  504  502  0.29072682266E+02 -0.12039662999E+03 -0.43646528336E+02  0.13132246115E+03  0.00000000000E+00 0. -1.
         21    1    1    2  505  501  0.24148194631E+02  0.31119271170E+02  0.30348773077E+02  0.49725168369E+02  0.00000000000E+00 0.  1.
         21    1    1    2  506  503 -0.14436928596E+02  0.28448079094E+02 -0.15812354391E+03  0.16130955722E+03  0.00000000000E+00 0.  1.
<scales pt_clust_3="31.52234" pt_clust_4="104.88035" pt_clust_5="39.38965" pt_clust_6="31.52234"></scales>
<clustering>
<clus scale="   31.522">  3  6 -1 -1</clus>
<clus scale="   39.390">  1  5  2 -1</clus>
<clus scale="  104.880">  1  4  2 -1</clus>
<clus scale="   39.390">  1  3  2 -1</clus>
</clustering>
</event>
<event>
 6    0  0.3042851E+002  0.1169117E+03  0.7546771E-02  0.1248280E+00
         21   -1    0    0  506  501  0.00000000000E+00  0.00000000000E+00  0.92509782303E+03  0.92509782303E+03  0.00000000000E+00 0.  1.
         21   -1    0    0  505  502 -0.00000000000E+00 -0.00000000000E+00 -0.24509775503E+03  0.24509775503E+03  0.00000000000E+00 0.  1.
         21    1    1    2  503  504 -0.61846900502E+02 -0.74757060356E+01 -0.11481730132E+03  0.13062900889E+03  0.00000000000E+00 0.  1.
         21    1    1    2  504  502 -0.34290010484E+02  0.42592917682E+02 -0.11052336593E+03  0.12331008018E+03  0.00000000000E+00 0.  1.
         21    1    1    2  505  501  0.21705016754E+02  0.29340789873E+02  0.14301982774E+03  0.14760305156E+03  0.00000000000E+00 0.  1.
         21    1    1    2  506  503  0.74431894232E+02 -0.64458001520E+02  0.76232090752E+03  0.76865343744E+03  0.00000000000E+00 0.  1.
<scales pt_clust_3="53.40091" pt_clust_4="53.40091" pt_clust_5="36.49643" pt_clust_6="102.16278"></scales>
<clustering>
<clus scale="   36.496">  1  5  2 -1</clus>
<clus scale="   53.401">  3  4 -1 -1</clus>
<clus scale="  102.163">  1  6  2 -1</clus>
<clus scale="   36.496">  1  3  2 -1</clus>
</clustering>
</event>
<event>
 6    0  0.3042851E+002  0.1094564E+03  0.7546771E-02  0.1261580E+00
         21   -1    0    0  505  501  0.00000000000E+00  0.00000000000E+00  0.20065029631E+03  0.20065029631E+03  0.00000000000E+00 0. -1.
         21   -1    0    0  504  502 -0.00000000000E+00 -0.00000000000E+00 -0.19577702720E+04  0.19577702720E+04  0.00000000000E+00 0. -1.
         21    1    1    2  503  502  0.22643177348E+02  0.43009216651E+02 -0.20741820607E+03  0.21303712918E+03  0.00000000000E+00 0.  1.
         21    1    1    2  504  506  0.58620088328E+02  0.30260887621E+02 -0.16836728297E+04  0.16849647574E+04  0.00000000000E+00 0. -1.
         21    1    1    2  505  503 -0.13778777455E+03 -0.89453765372E+02  0.10392127447E+03  0.19438898693E+03  0.00000000000E+00 0. -1.
         21    1    1    2  506  501  0.56524508872E+02  0.16183661100E+02  0.30049785586E+02  0.66029694862E+02  0.00000000000E+00 0. -1.
<scales pt_clust_3="48.60562" pt_clust_4="14000.00000" pt_clust_5="109.45636" pt_clust_6="59.14274"></scales>
<clustering>
<clus scale="   48.606">  2  3  1 -1</clus>
<clus scale="   59.143">  1  6  2 -1</clus>
<clus scale="  109.456">  1  5  2 -1</clus>
<clus scale="   59.143">  1  3  2 -1</clus>
</clustering>
</event>
<event>
 6    0  0.3042851E+002  0.1271344E+03  0.7546771E-02  0.1231771E+00
         21   -1    0    0  505  501  0.00000000000E+00  0.00000000000E+00  0.18258660880E+03  0.18258660880E+03  0.00000000000E+00 0. -1.
         21   -1    0    0  503  502 -0.00000000000E+00 -0.00000000000E+00 -0.31667400708E+04  0.31667400708E+04  0.00000000000E+00 0.  1.
         21    1    1    2  503  506 -0.68797088038E+02 -0.43242051120E+01 -0.27657645056E+04  0.27666234002E+04  0.00000000000E+00 0.  1.
         21    1    1    2  504  501  0.10663305975E+03 -0.74959912319E+02  0.13316231357E+03  0.18633786422E+03  0.00000000000E+00 0. -1.
         21    1    1    2  505  502  0.33332591843E+02  0.52267285442E+02 -0.35839607485E+02  0.71605923436E+02  0.00000000000E+00 0.  1.
         21    1    1    2  506  504 -0.71168563555E+02  0.27016831989E+02 -0.31571166258E+03  0.32475949184E+03  0.00000000000E+00 0. -1.
<scales pt_clust_3="68.83769" pt_clust_4="14000.00000" pt_clust_5="61.99138" pt_clust_6="127.13440"></scales>
<clustering>
<clus scale="   61.991">  1  5  2 -1</clus>
<clus scale="   68.838">  2  3  1 -1</clus>
<clus scale="  127.134">  2  6  1 -1</clus>
<clus scale="   61.991">  1  3  2 -1</clus>
</clustering>
</event>
<event>
 6    0  0.3042851E+002  0.2003595E+03  0.7546771E-02  0.1149436E+00
         21   -1    0    0  502  501  0.00000000000E+00  0.00000000000E+00  0.37496639115E+03  0.37496639115E+03  0.00000000000E+00 0.  1.
         21   -1    0    0  504  502 -0.00000000000E+00 -0.00000000000E+00 -0.50978476197E+03  0.50978476197E+03  0.00000000000E+00 0. -1.
         21    1    1    2  503  506  0.67646162884E+02 -0.15155418258E+03  0.15587461268E+03  0.22768743595E+03  0.00000000000E+00 0.  1.
         21    1    1    2  504  505 -0.43365207121E+02  0.24187372644E+02 -0.20832879034E+03  0.21416455138E+03  0.00000000000E+00 0. -1.
         21    1    1    2  505  503 -0.77759000735E+02  0.11642179656E+03 -0.23902094170E+03  0.27700452610E+03  0.00000000000E+00 0. -1.
         21    1    1    2  506  501  0.53478044972E+02  0.10945013374E+02  0.15665674855E+03  0.16589463969E+03  0.00000000000E+00 0.  1.
<scales pt_clust_3="182.92251" pt_clust_4="48.68633" pt_clust_5="48.68633" pt_clust_6="54.58658"></scales>
<clustering>
<clus scale="   48.686">  4  5 -1 -1</clus>
<clus scale="   54.587">  1  6  2 -1</clus>
<clus scale="  182.923">  1  3  2 -1</clus>
<clus scale="   54.587">  1  3  2 -1</clus>
</clustering>
</event>
<event>
 6    0  0.3042851E+002  0.1402240E+03  0.7546771E-02  0.1213028E+00
         21   -1    0    0  505  501  0.00000000000E+00  0.00000000000E+00  0.11606690457E+03  0.11606690457E+03  0.00000000000E+00 0. -1.
         21   -1    0    0  506  502 -0.00000000000E+00 -0.00000000000E+00 -0.22399484922E+03  0.22399484922E+03  0.00000000000E+00 0. -1.
         21    1    1    2  503  501  0.65176602969E+01 -0.54889798893E+02  0.32890376708E+02  0.64320656078E+02  0.00000000000E+00 0. -1.
         21    1    1    2  504  502 -0.52493099991E+01  0.40962574473E+02 -0.90596429749E+02  0.99565058360E+02  0.00000000000E+00 0. -1.
         21    1    1    2  505  504  0.85812425676E+01  0.86276285446E+02 -0.55540853983E+02  0.10296611877E+03  0.00000000000E+00 0. -1.
         21    1    1    2  506  503 -0.98495928654E+01 -0.72349061026E+02  0.53189623749E+01  0.73209920583E+02  0.00000000000E+00 0. -1.
<scales pt_clust_3="30.80938" pt_clust_4="40.60762" pt_clust_5="40.60762" pt_clust_6="132.11626"></scales>
<clustering>
<clus scale="   30.809">  3  6 -1 -1</clus>
<clus scale="   40.608">  4  5 -1 -1</clus>
<clus scale="  132.116">  1  3  2 -1</clus>
<clus scale="  132.116">  1  3  2 -1</clus>
</clustering>
</event>
<event>
 6    0  0.3042851E+002  0.1633477E+03  0.7546771E-02  0.1184968E+00
         21   -1    0    0  505  501  0.00000000000E+00  0.00000000000E+00  0.58402160711E+03  0.58402160711E+03  0.00000000000E+00 0. -1.
         21   -1    0    0  503  502 -0.00000000000E+00 -0.00000000000E+00 -0.63779813745E+02  0.63779813745E+02  0.00000000000E+00 0. -1.
         21    1    1    2  503  504  0.26847018615E+02 -0.97349416274E+02  0.27963430695E+03  0.29730963133E+03  0.00000000000E+00 0. -1.
         21    1    1    2  504  501  0.19692267619E+02 -0.56272882260E+02  0.61206093006E+02  0.85443598373E+02  0.00000000000E+00 0. -1.
         21    1    1    2  505  506 -0.68349127663E+02  0.11928946635E+03  0.17724671315E+03  0.22431668987E+03  0.00000000000E+00 0. -1.
         21    1    1    2  506  502  0.21809841429E+02  0.34332832186E+02  0.21546802537E+01  0.40731501274E+02  0.00000000000E+00 0.  1.
<scales pt_clust_3="50.47293" pt_clust_4="50.47293" pt_clust_5="148.72910" pt_clust_6="40.67447"></scales>
<clustering>
<clus scale="   40.674">  2  6  1 -1</clus>
<clus scale="   50.473">  3  4 -1 -1</clus>
<clus scale="  148.729">  2  5  1 -1</clus>
<clus scale="  163.348">  1  3  2 -1</clus>
</clustering>
</event>
<event>
 6    0  0.3042851E+002  0.1840835E+03  0.7546771E-02  0.1163908E+00
         21   -1    0    0  505  501  0.00000000000E+00  0.00000000000E+00  0.23622586327E+03  0.23622586327E+03  0.00000000000E+00 0. -1.
         21   -1    0    0  506  502 -0.00000000000E+00 -0.00000000000E+00 -0.58669711406E+03  0.58669711406E+03  0.00000000000E+00 0. -1.
         21    1    1    2  503  502 -0.52426770444E+02 -0.12810340839E+03 -0.40832422382E+03  0.43114698336E+03  0.00000000000E+00 0. -1.
         21    1    1    2  504  503  0.51044738996E+01 -0.42385197216E+02 -0.68095688180E+02  0.80371533179E+02  0.00000000000E+00 0. -1.
         21    1    1    2  505  504  0.13661453201E+03  0.12108362791E+03  0.86331643982E+02  0.20193545518E+03  0.00000000000E+00 0. -1.
         21    1    1    2  506  501 -0.89292235468E+02  0.49404977695E+02  0.39617017223E+02  0.10946900561E+03  0.00000000000E+00 0. -1.
<scales pt_clust_3="32.23736" pt_clust_4="32.23736" pt_clust_5="174.69188" pt_clust_6="102.04879"></scales>
<clustering>
<clus scale="   32.237">  3  4 -1 -1</clus>
<clus scale="  102.049">  1  6  2 -1</clus>
<clus scale="  174.692">  1  5  2 -1</clus>
<clus scale="  102.049">  1  3  2 -1</clus>
</clustering>
</event>
<event>
 6    0  0.3042851E+002  0.1251716E+03  0.7546771E-02  0.1234801E+00
         21   -1    0    0  505  501  0.00000000000E+00  0.00000000000E+00  0.40237997774E+03  0.40237997774E+03  0.00000000000E+00 0. -1.
         21   -1    0    0  503  502 -0.00000000000E+00 -0.00000000000E+00 -0.76119677697E+03  0.76119677697E+03  0.00000000000E+00 0. -1.
         21    1    1    2  503  504 -0.44420307116E+02  0.31637734301E+02 -0.26808729786E+03  0.27357797643E+03  0.00000000000E+00 0. -1.
         21    1    1    2  504  506 -0.15374310567E+02  0.68345421493E+02 -0.45343550642E+03  0.45881502214E+03  0.00000000000E+00 0. -1.
         21    1    1    2  505  502  0.99587326056E+02 -0.32555993915E+02  0.33017617039E+03  0.34640125829E+03  0.00000000000E+00 0. -1.
         21    1    1    2  506  501 -0.39792708373E+02 -0.67427161879E+02  0.32529834649E+02  0.84782497846E+02  0.00000000000E+00 0. -1.
<scales pt_clust_3="41.68724" pt_clust_4="41.68724" pt_clust_5="115.91207" pt_clust_6="78.29356"></scales>
<clustering>
<clus scale="   41.687">  3  4 -1 -1</clus>
<clus scale="   78.294">  1  6  2 -1</clus>
<clus scale="  115.912">  1  5  2 -1</clus>
<clus scale="   78.294">  1  3  2 -1</clus>
</clustering>
</event>
<event>
 6    0  0.8202321E+002  0.1215540E+03  0.7546771E-02  0.1240555E+00
         21   -1    0    0  503  501  0.00000000000E+00  0.00000000000E+00  0.49118075248E+03  0.49118075248E+03  0.00000000000E+00 0. -1.
         21   -1    0    0  505  502 -0.00000000000E+00 -0.00000000000E+00 -0.18677284753E+04  0.18677284753E+04  0.00000000000E+00 0.  1.
         21    1    1    2  503  504 -0.36354319088E+02  0.15811392077E+02 -0.26325814702E+02  0.47588708277E+02  0.00000000000E+00 0.  1.
         21    1    1    2  504  502 -0.68363367731E+02  0.17911561699E+02 -0.31338525692E+03  0.32125487287E+03  0.00000000000E+00 0.  1.
         21    1    1    2  505  506 -0.58167184343E+02  0.37329404643E+01 -0.14982144941E+04  0.14993478670E+04  0.00000000000E+00 0.  1.
         21    1    1    2  506  501  0.16288487116E+03 -0.37455894240E+02  0.46137784289E+03  0.49071777956E+03  0.00000000000E+00 0. -1.
<scales pt_clust_3="39.64387" pt_clust_4="14000.00000" pt_clust_5="58.33082" pt_clust_6="121.55404"></scales>
<clustering>
<clus scale="   39.644">  1  3  2 -1</clus>
<clus scale="   58.331">  2  5  1 -1</clus>
<clus scale="  121.554">  1  6  2 -1</clus>
<clus scale="   39.644">  1  3  2 -1</clus>
</clustering>
</event>
<event>
 6    0  0.3042851E+002  0.4094988E+03  0.7546771E-02  0.1040539E+00
         21   -1    0    0  503  501  0.00000000000E+00  0.00000000000E+00  0.74784152580E+03  0.74784152580E+03  0.00000000000E+00 0. -1.
         21   -1    0    0  506  502 -0.00000000000E+00 -0.00000000000E+00 -0.59828299261E+03  0.59828299261E+03  0.00000000000E+00 0.  1.
         21    1    1    2  503  504 -0.55184672782E+02 -0.34563562797E+02  0.42326059588E+02  0.77662624882E+02  0.00000000000E+00 0. -1.
         21    1    1    2  504  505 -0.33733037618E+03  0.44668288842E+02  0.52897587660E+03  0.62896940843E+03  0.00000000000E+00 0. -1.
         21    1    1    2  505  502  0.34097783556E+03 -0.11826072019E+03 -0.31670409563E+03  0.48015931364E+03  0.00000000000E+00 0.  1.
         21    1    1    2  506  501  0.51537213407E+02  0.10815599414E+03 -0.10503930736E+03  0.15933317145E+03  0.00000000000E+00 0. -1.
<scales pt_clust_3="59.93634" pt_clust_4="59.93634" pt_clust_5="385.89703" pt_clust_6="119.80736"></scales>
<clustering>
<clus scale="   59.936">  3  4 -1 -1</clus>
<clus scale="  119.807">  2  6  1 -1</clus>
<clus scale="  385.897">  2  5  1 -1</clus>
<clus scale="  409.499">  1  3  2 -1</clus>
</clustering>
</event>
<event>
 6    0  0.3042851E+002  0.8447543E+02  0.7546771E-02  0.1316810E+00
         21   -1    0    0  504  501  0.00000000000E+00  0.00000000000E+00  0.18785602021E+04  0.18785602021E+04  0.00000000000E+00 0. -1.
         21   -1    0    0  505  502 -0.00000000000E+00 -0.00000000000E+00 -0.10080116520E+03  0.10080116520E+03  0.00000000000E+00 0. -1.
         21    1    1    2  503  502 -0.69710646336E+02  0.55754511191E+02 -0.62825862179E+02  0.10915689941E+03  0.00000000000E+00 0. -1.
         21    1    1    2  504  503  0.25666940772E+02  0.40930657044E+02  0.10066154555E+04  0.10077741740E+04  0.00000000000E+00 0. -1.
         21    1    1    2  505  506  0.21610844168E+01 -0.83774040344E+02  0.11589141447E+03  0.14301601333E+03  0.00000000000E+00 0. -1.
         21    1    1    2  506  501  0.41882621147E+02 -0.12911127890E+02  0.71807802911E+03  0.71941428056E+03  0.00000000000E+00 0. -1.
<scales pt_clust_3="84.47543" pt_clust_4="68.78905" pt_clust_5="14000.00000" pt_clust_6="43.82752"></scales>
<clustering>
<clus scale="   43.828">  1  6  2 -1</clus>
<clus scale="   68.789">  1  4  2 -1</clus>
<clus scale="   84.475">  2  3  1 -1</clus>
<clus scale="   43.828">  1  3  2 -1</clus>
</clustering>
</event>
<event>
 6    0  0.3042851E+002  0.8901054E+02  0.7546771E-02  0.1305266E+00
         21   -1    0    0  505  501  0.00000000000E+00  0.00000000000E+00  0.55571139727E+03  0.55571139727E+03  0.00000000000E+00 0.  1.
         21   -1    0    0  503  502 -0.00000000000E+00 -0.00000000000E+00 -0.13971783017E+03  0.13971783017E+03  0.00000000000E+00 0.  1.
         21    1    1    2  503  504 -0.59829353290E+02 -0.33146485547E+02 -0.49301518514E+02  0.84314178802E+02  0.00000000000E+00 0.  1.
         21    1    1    2  504  501  0.32640359793E+02  0.61033807092E+02  0.33847262219E+03  0.34547682219E+03  0.00000000000E+00 0.  1.
         21    1    1    2  505  506  0.72503956803E+02 -0.69323070937E+02  0.16516937342E+03  0.19324449237E+03  0.00000000000E+00 0. -1.
         21    1    1    2  506  502 -0.45314963307E+02  0.41435749392E+02 -0.38346910004E+02  0.72393734080E+02  0.00000000000E+00 0.  1.
<scales pt_clust_3="89.01054" pt_clust_4="69.88706" pt_clust_5="14000.00000" pt_clust_6="61.40332"></scales>
<clustering>
<clus scale="   61.403">  2  6  1 -1</clus>
<clus scale="   69.887">  1  4  2 -1</clus>
<clus scale="   89.011">  2  3  1 -1</clus>
<clus scale="   69.887">  1  3  2 -1</clus>
</clustering>
</event>
<event>
 6    0  0.3042851E+002  0.9697407E+02  0.7546771E-02  0.1286791E+00
         21   -1    0    0  504  501  0.00000000000E+00  0.00000000000E+00  0.79620796973E+02  0.79620796973E+02  0.00000000000E+00 0.  1.
         21   -1    0    0  506  502 -0.00000000000E+00 -0.00000000000E+00 -0.61283904362E+03  0.61283904362E+03  0.00000000000E+00 0.  1.
         21    1    1    2  503  501  0.31311096266E+02 -0.34979658089E+01 -0.25668623300E+02  0.40638636005E+02  0.00000000000E+00 0.  1.
         21    1    1    2  504  505  0.19363761089E+02 -0.29468367887E+02 -0.29650080764E+01  0.35385466258E+02  0.00000000000E+00 0.  1.
         21    1    1    2  505  502 -0.50520774503E+02 -0.66701463058E+02  0.17025266621E+02  0.85389071513E+02  0.00000000000E+00 0.  1.
         21    1    1    2  506  503 -0.15408285254E+00  0.99667796754E+02 -0.52160988189E+03  0.53104666682E+03  0.00000000000E+00 0.  1.
<scales pt_clust_3="31.50588" pt_clust_4="40.15329" pt_clust_5="14000.00000" pt_clust_6="96.97407"></scales>
<clustering>
<clus scale="   31.506">  1  3  2 -1</clus>
<clus scale="   40.153">  1  4  2 -1</clus>
<clus scale="   96.974">  2  6  1 -1</clus>
<clus scale="   31.506">  1  3  2 -1</clus>
</clustering>
</event>
<event>
 6    0  0.3042851E+002  0.1147184E+03  0.7546771E-02  0.1252073E+00
         21   -1    0    0  502  501  0.00000000000E+00  0.00000000000E+00  0.12834075971E+03  0.12834075971E+03  0.00000000000E+00 0.  1.
         21   -1    0    0  505  502 -0.00000000000E+00 -0.00000000000E+00 -0.30485127607E+03  0.30485127607E+03  0.00000000000E+00 0. -1.
         21    1    1    2  503  501 -0.34104537357E+02 -0.37554920828E+02  0.44554758000E+02  0.67517538515E+02  0.00000000000E+00 0.  1.
         21    1    1    2  504  506  0.73597829107E+02  0.93620885419E+01 -0.16791268554E+03  0.18357276246E+03  0.00000000000E+00 0. -1.
         21    1    1    2  505  504  0.38160587395E+02 -0.22980722899E+02 -0.74390710814E+02  0.86708257454E+02  0.00000000000E+00 0. -1.
         21    1    1    2  506  503 -0.77653879146E+02  0.51173555185E+02  0.21238121991E+02  0.95393477357E+02  0.00000000000E+00 0.  1.
<scales pt_clust_3="50.72959" pt_clust_4="31.62271" pt_clust_5="31.62271" pt_clust_6="107.21392"></scales>
<clustering>
<clus scale="   31.623">  4  5 -1 -1</clus>
<clus scale="   50.730">  1  3  2 -1</clus>
<clus scale="  107.214">  1  6  2 -1</clus>
<clus scale="   50.730">  1  3  2 -1</clus>
</clustering>
</event>
<event>
 6    0  0.3042851E+002  0.1117069E+03  0.7546771E-02  0.1257441E+00
         21   -1    0    0  503  501  0.00000000000E+00  0.00000000000E+00  0.62913854607E+03  0.62913854607E+03  0.00000000000E+00 0. -1.
         21   -1    0    0  506  502 -0.00000000000E+00 -0.00000000000E+00 -0.13288697286E+03  0.13288697286E+03  0.00000000000E+00 0.  1.
         21    1    1    2  503  504  0.95452908935E+01 -0.29187166062E+02  0.54577407457E+02  0.62623451244E+02  0.00000000000E+00 0.  1.
         21    1    1    2  504  502 -0.66542134651E+02  0.11700146305E+03 -0.13712071728E+02  0.13529678101E+03  0.00000000000E+00 0.  1.
         21    1    1    2  505  501  0.86119596276E+02 -0.33128873045E+02  0.48622152889E+03  0.49489946681E+03  0.00000000000E+00 0. -1.
         21    1    1    2  506  505 -0.29122752519E+02 -0.54685423943E+02 -0.30835291415E+02  0.69205819862E+02  0.00000000000E+00 0.  1.
<scales pt_clust_3="30.70836" pt_clust_4="14000.00000" pt_clust_5="111.70688" pt_clust_6="62.67651"></scales>
<clustering>
<clus scale="   30.708">  1  3  2 -1</clus>
<clus scale="   62.677">  2  6  1 -1</clus>
<clus scale="  111.707">  1  5  2 -1</clus>
<clus scale="   30.708">  1  3  2 -1</clus>
</clustering>
</event>
<event>
 6    0  0.3042851E+002  0.8016396E+02  0.7546771E-02  0.1328587E+00
         21   -1    0    0  506  501  0.00000000000E+00  0.00000000000E+00  0.12879438907E+03  0.12879438907E+03  0.00000000000E+00 0. -1.
         21   -1    0    0  505  502 -0.00000000000E+00 -0.00000000000E+00 -0.15012877357E+03  0.15012877357E+03  0.00000000000E+00 0. -1.
         21    1    1    2  503  501  0.59913085792E+02 -0.30962763668E+02  0.19074900399E+02  0.70086535143E+02  0.00000000000E+00 0. -1.
         21    1    1    2  504  502 -0.86682938803E+02  0.33424181710E+02 -0.46522025885E+02  0.10390094655E+03  0.00000000000E+00 0. -1.
         21    1    1    2  505  503 -0.70740425704E+01 -0.44228469810E+02 -0.14919431741E+02  0.47210052569E+02  0.00000000000E+00 0. -1.
         21    1    1    2  506  504  0.33843895581E+02  0.41767051768E+02  0.21032172722E+02  0.57725628372E+02  0.00000000000E+00 0. -1.
<scales pt_clust_3="80.16396" pt_clust_4="14000.00000" pt_clust_5="44.79062" pt_clust_6="47.90037"></scales>
<clustering>
<clus scale="   44.791">  2  5  1 -1</clus>
<clus scale="   47.900">  1  6  2 -1</clus>
<clus scale="   80.164">  1  3  2 -1</clus>
<clus scale="   47.900">  1  3  2 -1</clus>
</clustering>
</event>
<event>
 6    0  0.3042851E+002  0.1034345E+03  0.7546771E-02  0.1273235E+00
         21   -1    0    0  503  501  0.00000000000E+00  0.00000000000E+00  0.63395431323E+03  0.63395431323E+03  0.00000000000E+00 0. -1.
         21   -1    0    0  504  502 -0.00000000000E+00 -0.00000000000E+00 -0.39066984975E+03  0.39066984975E+03  0.00000000000E+00 0.  1.
         21    1    1    2  503  506  0.45176786821E+02 -0.19283336718E+02  0.47953430457E+02  0.68646344659E+02  0.00000000000E+00 0. -1.
         21    1    1    2  504  505 -0.78361378861E+02  0.81098923154E+00 -0.49651190064E+02  0.92770706990E+02  0.00000000000E+00 0.  1.
         21    1    1    2  505  501  0.25618173940E+02  0.98902299796E+02  0.54397852666E+03  0.55348946983E+03  0.00000000000E+00 0. -1.
         21    1    1    2  506  502  0.75664181004E+01 -0.80429952310E+02 -0.29899630357E+03  0.30971764151E+03  0.00000000000E+00 0.  1.
<scales pt_clust_3="49.12015" pt_clust_4="76.66944" pt_clust_5="14000.00000" pt_clust_6="103.43447"></scales>
<clustering>
<clus scale="   49.120">  1  3  2 -1</clus>
<clus scale="   76.669">  2  4  1 -1</clus>
<clus scale="  103.434">  2  6  1 -1</clus>
<clus scale="   49.120">  1  3  2 -1</clus>
</clustering>
</event>
<event>
 6    0  0.3042851E+002  0.9645949E+02  0.7546771E-02  0.1287922E+00
         21   -1    0    0  504  501  0.00000000000E+00  0.00000000000E+00  0.37376071015E+03  0.37376071015E+03  0.00000000000E+00 0.  1.
         21   -1    0    0  505  502 -0.00000000000E+00 -0.00000000000E+00 -0.16754953203E+03  0.16754953203E+03  0.00000000000E+00 0.  1.
         21    1    1    2  503  506  0.66725890653E+02  0.43417334687E+02 -0.68661959599E+02  0.10512789416E+03  0.00000000000E+00 0.  1.
         21    1    1    2  504  503 -0.17001258693E+02 -0.79281301627E+02  0.11471746741E+03  0.14048012284E+03  0.00000000000E+00 0.  1.
         21    1    1    2  505  501 -0.47025840202E+02 -0.13304630498E+02  0.21587725044E+03  0.22134007793E+03  0.00000000000E+00 0.  1.
         21    1    1    2  506  502 -0.26987917583E+01  0.49168597438E+02 -0.55721580127E+02  0.74362147245E+02  0.00000000000E+00 0.  1.
<scales pt_clust_3="96.45949" pt_clust_4="14000.00000" pt_clust_5="48.87170" pt_clust_6="48.68374"></scales>
<clustering>
<clus scale="   48.872">  1  5  2 -1</clus>
<clus scale="   48.684">  2  6  1 -1</clus>
<clus scale="   96.459">  2  3  1 -1</clus>
<clus scale="   48.872">  1  3  2 -1</clus>
</clustering>
</event>
<event>
 6    0  0.3042851E+002  0.1211182E+03  0.7546771E-02  0.1241264E+00
         21   -1    0    0  505  501  0.00000000000E+00  0.00000000000E+00  0.60172284401E+03  0.60172284401E+03  0.00000000000E+00 0. -1.
         21   -1    0    0  504  502 -0.00000000000E+00 -0.00000000000E+00 -0.20512789011E+03  0.20512789011E+03  0.00000000000E+00 0.  1.
         21    1    1    2  503  501  0.38573529167E+02 -0.61488698939E+02  0.44186552000E+03  0.44778780132E+03  0.00000000000E+00 0. -1.
         21    1    1    2  504  506 -0.35601666603E+01  0.14015215835E+03 -0.11634779338E+03  0.18218702286E+03  0.00000000000E+00 0.  1.
         21    1    1    2  505  502 -0.26665549539E+02  0.16144655967E+02  0.75413700568E+02  0.81602252922E+02  0.00000000000E+00 0. -1.
         21    1    1    2  506  503 -0.83478129683E+01 -0.94808115375E+02 -0.43364732899E+01  0.95273657025E+02  0.00000000000E+00 0.  1.
<scales pt_clust_3="50.34079" pt_clust_4="14000.00000" pt_clust_5="31.17213" pt_clust_6="121.11821"></scales>
<clustering>
<clus scale="   31.172">  1  5  2 -1</clus>
<clus scale="   50.341">  1  3  2 -1</clus>
<clus scale="  121.118">  1  6  2 -1</clus>
<clus scale="   31.172">  1  3  2 -1</clus>
</clustering>
</event>
<event>
 6    0  0.3042851E+002  0.1630338E+03  0.7546771E-02  0.1185314E+00
         21   -1    0    0  505  501  0.00000000000E+00  0.00000000000E+00  0.78962498014E+03  0.78962498014E+03  0.00000000000E+00 0. -1.
         21   -1    0    0  501  502 -0.00000000000E+00 -0.00000000000E+00 -0.15708355173E+04  0.15708355173E+04  0.00000000000E+00 0. -1.
         21    1    1    2  503  506  0.12191308337E+03  0.10414907668E+03 -0.10994794037E+04  0.11111097107E+04  0.00000000000E+00 0. -1.
         21    1    1    2  504  503 -0.26453248215E+02 -0.46068321613E+02  0.38722827570E+03  0.39085521884E+03  0.00000000000E+00 0. -1.
         21    1    1    2  505  504 -0.69143082368E+02 -0.75727365570E+02  0.38755042762E+03  0.40088743268E+03  0.00000000000E+00 0. -1.
         21    1    1    2  506  502 -0.26316752791E+02  0.17646610502E+02 -0.45650983673E+03  0.45760813517E+03  0.00000000000E+00 0. -1.
<scales pt_clust_3="154.84989" pt_clust_4="36.70505" pt_clust_5="36.70505" pt_clust_6="31.68555"></scales>
<clustering>
<clus scale="   31.686">  2  6  1 -1</clus>
<clus scale="   36.705">  4  5 -1 -1</clus>
<clus scale="  154.850">  2  3  1 -1</clus>
<clus scale="  163.034">  1  3  2 -1</clus>
</clustering>
</event>
<event>
 6    0  0.3042851E+002  0.2449819E+03  0.7546771E-02  0.1116518E+00
         21   -1    0    0  506  501  0.00000000000E+00  0.00000000000E+00  0.28494474695E+03  0.28494474695E+03  0.00000000000E+00 0. -1.
         21   -1    0    0  503  502 -0.00000000000E+00 -0.00000000000E+00 -0.11254404626E+04  0.11254404626E+04  0.00000000000E+00 0. -1.
         21    1    1    2  503  504  0.59737380198E+02 -0.10789284797E+02 -0.10347113104E+03  0.11996348702E+03  0.00000000000E+00 0. -1.
         21    1    1    2  504  501  0.17519764096E+03 -0.14059800956E+03 -0.14960566447E+02  0.22513514217E+03  0.00000000000E+00 0. -1.
         21    1    1    2  505  502 -0.75192603386E+02 -0.61789425992E+02 -0.78545464971E+03  0.79146122301E+03  0.00000000000E+00 0. -1.
         21    1    1    2  506  505 -0.15974241777E+03  0.21317672035E+03  0.63390631590E+02  0.27382535731E+03  0.00000000000E+00 0. -1.
<scales pt_clust_3="60.70390" pt_clust_4="244.98190" pt_clust_5="75.83401" pt_clust_6="14000.00000"></scales>
<clustering>
<clus scale="   60.704">  2  3  1 -1</clus>
<clus scale="   75.834">  2  5  1 -1</clus>
<clus scale="  244.982">  2  4  1 -1</clus>
<clus scale="  244.982">  1  3  2 -1</clus>
</clustering>
</event>
<event>
 6    0  0.3042851E+002  0.2057275E+03  0.7546771E-02  0.1144995E+00
         21   -1    0    0  505  501  0.00000000000E+00  0.00000000000E+00  0.56626677403E+03  0.56626677403E+03  0.00000000000E+00 0.  1.
         21   -1    0    0  504  502 -0.00000000000E+00 -0.00000000000E+00 -0.36567561435E+03  0.36567561435E+03  0.00000000000E+00 0.  1.
         21    1    1    2  503  501  0.19499332952E+03  0.33196821777E+02  0.22513992403E+03  0.29968719180E+03  0.00000000000E+00 0.  1.
         21    1    1    2  504  503  0.75921703938E+02  0.40010001020E+02 -0.19875693342E+03  0.21649301119E+03  0.00000000000E+00 0.  1.
         21    1    1    2  505  506 -0.21196448881E+03 -0.32950256583E+02  0.23773260576E+03  0.32020533376E+03  0.00000000000E+00 0.  1.
         21    1    1    2  506  502 -0.58950544654E+02 -0.40256566213E+02 -0.63524436691E+02  0.95556851639E+02  0.00000000000E+00 0.  1.
<scales pt_clust_3="14000.00000" pt_clust_4="34.86089" pt_clust_5="205.72754" pt_clust_6="71.38458"></scales>
<clustering>
<clus scale="   71.385">  2  6  1 -1</clus>
<clus scale="   34.861">  2  4  1 -1</clus>
<clus scale="  205.728">  2  5  1 -1</clus>
<clus scale="  205.728">  1  3  2 -1</clus>
</clustering>
</event>
<event>
 6    0  0.3042851E+002  0.1421627E+03  0.7546771E-02  0.1210448E+00
         21   -1    0    0  503  501  0.00000000000E+00  0.00000000000E+00  0.10022974254E+04  0.10022974254E+04  0.00000000000E+00 0.  1.
         21   -1    0    0  505  502 -0.00000000000E+00 -0.00000000000E+00 -0.11103756152E+03  0.11103756152E+03  0.00000000000E+00 0.  1.
         21    1    1    2  503  506  0.19995630202E+02  0.11478256315E+03  0.30458653455E+03  0.32611013333E+03  0.00000000000E+00 0.  1.
         21    1    1    2  504  501 -0.69394010719E+02 -0.15581724505E+03  0.64874087216E+03  0.67079002809E+03  0.00000000000E+00 0.  1.
         21    1    1    2  505  504  0.32237149569E+02 -0.78432032558E+01  0.29441940116E+01  0.33307925904E+02  0.00000000000E+00 0.  1.
         21    1    1    2  506  502  0.17161230948E+02  0.48877885159E+02 -0.65011736857E+02  0.83126899584E+02  0.00000000000E+00 0.  1.
<scales pt_clust_3="142.16274" pt_clust_4="14000.00000" pt_clust_5="33.17755" pt_clust_6="60.02771"></scales>
<clustering>
<clus scale="   33.178">  2  5  1 -1</clus>
<clus scale="   60.028">  2  6  1 -1</clus>
<clus scale="  142.163">  1  3  2 -1</clus>
<clus scale="  142.163">  1  3  2 -1</clus>
</clustering>
</event>
<event>
 6    0  0.3042851E+002  0.1155313E+03  0.7546771E-02  0.1250657E+00
         21   -1    0    0  506  501  0.00000000000E+00  0.00000000000E+00  0.17818674742E+03  0.17818674742E+03  0.00000000000E+00 0.  1.
         21   -1    0    0  503  502 -0.00000000000E+00 -0.00000000000E+00 -0.25859594085E+03  0.25859594085E+03  0.00000000000E+00 0.  1.
         21    1    1    2  503  504 -0.46997649955E+02 -0.28770352125E+01 -0.12460266399E+03  0.13320240353E+03  0.00000000000E+00 0.  1.
         21    1    1    2  504  501  0.36653934020E+02  0.14130082606E+03  0.21018488153E+02  0.14748291823E+03  0.00000000000E+00 0.  1.
         21    1    1    2  505  502  0.14352524481E+01 -0.97445385410E+02 -0.15940425862E+02  0.98751001331E+02  0.00000000000E+00 0.  1.
         21    1    1    2  506  505  0.89084634869E+01 -0.40978405441E+02  0.39115408268E+02  0.57346365170E+02  0.00000000000E+00 0.  1.
<scales pt_clust_3="46.89433" pt_clust_4="14000.00000" pt_clust_5="115.53130" pt_clust_6="41.93555"></scales>
<clustering>
<clus scale="   41.936">  1  6  2 -1</clus>
<clus scale="   46.894">  2  3  1 -1</clus>
<clus scale="  115.531">  2  5  1 -1</clus>
<clus scale="   41.936">  1  3  2 -1</clus>
</clustering>
</event>
<event>
 6    0  0.3042851E+002  0.8622195E+02  0.7546771E-02  0.1312268E+00
         21   -1    0    0  506  501  0.00000000000E+00  0.00000000000E+00  0.94758624475E+02  0.94758624475E+02  0.00000000000E+00 0.  1.
         21   -1    0    0  503  502 -0.00000000000E+00 -0.00000000000E+00 -0.26547221715E+03  0.26547221715E+03  0.00000000000E+00 0.  1.
         21    1    1    2  503  501 -0.24391469504E+02  0.19370347585E+02  0.24871450239E+01  0.31246440445E+02  0.00000000000E+00 0.  1.
         21    1    1    2  504  505  0.93005297025E+02  0.88497484564E+02 -0.88789488011E+02  0.15609408455E+03  0.00000000000E+00 0.  1.
         21    1    1    2  505  502 -0.30245883954E+02 -0.48186020701E+02 -0.84586714686E+02  0.10193928776E+03  0.00000000000E+00 0.  1.
         21    1    1    2  506  504 -0.38367943567E+02 -0.59681811448E+02  0.17546499462E+00  0.70951028880E+02  0.00000000000E+00 0.  1.
<scales pt_clust_3="31.14730" pt_clust_4="86.22195" pt_clust_5="56.61413" pt_clust_6="14000.00000"></scales>
<clustering>
<clus scale="   31.147">  1  3  2 -1</clus>
<clus scale="   56.614">  2  5  1 -1</clus>
<clus scale="   86.222">  2  4  1 -1</clus>
<clus scale="   31.147">  1  3  2 -1</clus>
</clustering>
</event>
<event>
 6    0  0.3042851E+002  0.3013879E+03  0.7546771E-02  0.1084549E+00
         21   -1    0    0  505  501  0.00000000000E+00  0.00000000000E+00  0.55554621156E+03  0.55554621156E+03  0.00000000000E+00 0. -1.
         21   -1    0    0  503  502 -0.00000000000E+00 -0.00000000000E+00 -0.21090348992E+03  0.21090348992E+03  0.00000000000E+00 0.  1.
         21    1    1    2  503  506 -0.29128374520E+01 -0.12524404760E+03  0.97059983164E+02  0.15847774738E+03  0.00000000000E+00 0. -1.
         21    1    1    2  504  502  0.18979046877E+01  0.91969224397E+02 -0.39649680094E+01  0.92074215988E+02  0.00000000000E+00 0.  1.
         21    1    1    2  505  504 -0.99454359392E+02  0.16244725765E+03 -0.27456970258E+02  0.19244263128E+03  0.00000000000E+00 0.  1.
         21    1    1    2  506  501  0.10046929216E+03 -0.12917243444E+03  0.27900467675E+03  0.32345510683E+03  0.00000000000E+00 0. -1.
<scales pt_clust_3="112.69502" pt_clust_4="52.54756" pt_clust_5="282.77641" pt_clust_6="112.69502"></scales>
<clustering>
<clus scale="   52.548">  4  5 -1 -1</clus>
<clus scale="  112.695">  3  6 -1 -1</clus>
<clus scale="  282.776">  2  4  1 -1</clus>
<clus scale="  301.388">  1  3  2 -1</clus>
</clustering>
</event>
<event>
 6    0  0.3042851E+002  0.1414419E+03  0.7546771E-02  0.1211402E+00
         21   -1    0    0  506  501  0.00000000000E+00  0.00000000000E+00  0.27874393779E+03  0.27874393779E+03  0.00000000000E+00 0.  1.
         21   -1    0    0  504  502 -0.00000000000E+00 -0.00000000000E+00 -0.27353477797E+03  0.27353477797E+03  0.00000000000E+00 0. -1.
         21    1    1    2  503  502 -0.11520836166E+03  0.90199604669E+02 -0.16359675492E+03  0.21948310527E+03  0.00000000000E+00 0. -1.
         21    1    1    2  504  505  0.12365119458E+03 -0.29940825560E+02  0.10787192448E+03  0.16680054870E+03  0.00000000000E+00 0.  1.
         21    1    1    2  505  501  0.26854929928E+02  0.20030612824E+02  0.70216304475E+02  0.77799370985E+02  0.00000000000E+00 0.  1.
         21    1    1    2  506  503 -0.35297762849E+02 -0.80289391933E+02 -0.92823142192E+01  0.88195690804E+02  0.00000000000E+00 0.  1.
<scales pt_clust_3="14000.00000" pt_clust_4="141.44186" pt_clust_5="33.50243" pt_clust_6="82.15083"></scales>
<clustering>
<clus scale="   33.502">  1  5  2 -1</clus>
<clus scale="   82.151">  1  6  2 -1</clus>
<clus scale="  141.442">  1  4  2 -1</clus>
<clus scale="   33.502">  1  3  2 -1</clus>
</clustering>
</event>
<event>
 6    0  0.3042851E+002  0.9461094E+02  0.7546771E-02  0.1292055E+00
         21   -1    0    0  504  501  0.00000000000E+00  0.00000000000E+00  0.86143951848E+03  0.86143951848E+03  0.00000000000E+00 0.  1.
         21   -1    0    0  505  502 -0.00000000000E+00 -0.00000000000E+00 -0.30656624558E+03  0.30656624558E+03  0.00000000000E+00 0. -1.
         21    1    1    2  503  506  0.12979085255E+03 -0.11403118661E+02  0.56317866589E+03  0.57805354962E+03  0.00000000000E+00 0.  1.
         21    1    1    2  504  503 -0.42087160656E+02  0.19902156197E+02  0.23463798837E+03  0.23921206178E+03  0.00000000000E+00 0. -1.
         21    1    1    2  505  501 -0.14012462179E+03 -0.41667837262E+02 -0.60808782483E+02  0.15833138135E+03  0.00000000000E+00 0. -1.
         21    1    1    2  506  502  0.52420929892E+02  0.33168799726E+02 -0.18213459887E+03  0.19240877130E+03  0.00000000000E+00 0. -1.
<scales pt_clust_3="14000.00000" pt_clust_4="46.55561" pt_clust_5="94.61094" pt_clust_6="61.82907"></scales>
<clustering>
<clus scale="   46.556">  1  4  2 -1</clus>
<clus scale="   61.829">  2  6  1 -1</clus>
<clus scale="   94.611">  2  5  1 -1</clus>
<clus scale="   46.556">  1  3  2 -1</clus>
</clustering>
</event>
<event>
 6    0  0.3042851E+002  0.1465235E+03  0.7546771E-02  0.1204811E+00
         21   -1    0    0  505  501  0.00000000000E+00  0.00000000000E+00  0.20176742538E+03  0.20176742538E+03  0.00000000000E+00 0.  1.
         21   -1    0    0  506  502 -0.00000000000E+00 -0.00000000000E+00 -0.37182727886E+03  0.37182727886E+03  0.00000000000E+00 0. -1.
         21    1    1    2  503  501  0.31973538624E+02  0.76843754458E+02  0.74827356346E+02  0.11192141452E+03  0.00000000000E+00 0.  1.
         21    1    1    2  504  502 -0.96317865663E+02 -0.99951540397E+02 -0.29265663449E+03  0.32390638676E+03  0.00000000000E+00 0. -1.
         21    1    1    2  505  504  0.79964663608E+00 -0.34437579624E+02 -0.81691289963E+01  0.35402273849E+02  0.00000000000E+00 0.  1.
         21    1    1    2  506  503  0.63544680403E+02  0.57545365563E+02  0.55938553663E+02  0.10236462910E+03  0.00000000000E+00 0.  1.
<scales pt_clust_3="37.97322" pt_clust_4="140.83510" pt_clust_5="34.44686" pt_clust_6="37.97322"></scales>
<clustering>
<clus scale="   34.447">  1  5  2 -1</clus>
<clus scale="   37.973">  3  6 -1 -1</clus>
<clus scale="  140.835">  2  4  1 -1</clus>
<clus scale="   34.447">  1  3  2 -1</clus>
</clustering>
</event>
<event>
 6    0  0.3042851E+002  0.1212441E+03  0.7546771E-02  0.1241059E+00
         21   -1    0    0  506  501  0.00000000000E+00  0.00000000000E+00  0.11291562995E+03  0.11291562995E+03  0.00000000000E+00 0. -1.
         21   -1    0    0  505  502 -0.00000000000E+00 -0.00000000000E+00 -0.11057281428E+04  0.11057281428E+04  0.00000000000E+00 0.  1.
         21    1    1    2  503  502 -0.42738058376E+02  0.86696070084E+01 -0.17297293857E+03  0.17838537271E+03  0.00000000000E+00 0.  1.
         21    1    1    2  504  501  0.69855885020E+02 -0.14365573559E+02  0.95228412228E+01  0.71950669771E+02  0.00000000000E+00 0. -1.
         21    1    1    2  505  504  0.60527076504E+02  0.11133266303E+03 -0.82107478955E+03  0.83079618372E+03  0.00000000000E+00 0.  1.
         21    1    1    2  506  503 -0.87644903148E+02 -0.10563669648E+03 -0.82876259448E+01  0.13751154655E+03  0.00000000000E+00 0. -1.
<scales pt_clust_3="43.60853" pt_clust_4="69.85413" pt_clust_5="121.24408" pt_clust_6="14000.00000"></scales>
<clustering>
<clus scale="   43.609">  2  3  1 -1</clus>
<clus scale="   69.854">  1  4  2 -1</clus>
<clus scale="  121.244">  2  5  1 -1</clus>
<clus scale="   69.854">  1  3  2 -1</clus>
</clustering>
</event>
<event>
 6    0  0.3042851E+002  0.1562061E+03  0.7546771E-02  0.1193048E+00
         21   -1    0    0  506  501  0.00000000000E+00  0.00000000000E+00  0.44294370882E+03  0.44294370882E+03  0.00000000000E+00 0.  1.
         21   -1    0    0  504  502 -0.00000000000E+00 -0.00000000000E+00 -0.12398917682E+04  0.12398917682E+04  0.00000000000E+00 0. -1.
         21    1    1    2  503  502  0.21542544980E+03 -0.18437703352E+02 -0.72373661893E+03  0.75534281416E+03  0.00000000000E+00 0. -1.
         21    1    1    2  504  501 -0.65525143572E+02 -0.26892933659E+02 -0.46862720185E+03  0.47394960559E+03  0.00000000000E+00 0. -1.
         21    1    1    2  505  503 -0.11770454185E+03  0.44469333333E+02  0.11245207712E+03  0.16875233458E+03  0.00000000000E+00 0.  1.
         21    1    1    2  506  505 -0.32195764378E+02  0.86130367721E+00  0.28296368430E+03  0.28479072267E+03  0.00000000000E+00 0.  1.
<scales pt_clust_3="14000.00000" pt_clust_4="71.32236" pt_clust_5="156.20612" pt_clust_6="32.20728"></scales>
<clustering>
<clus scale="   32.207">  1  6  2 -1</clus>
<clus scale="   71.322">  2  4  1 -1</clus>
<clus scale="  156.206">  1  5  2 -1</clus>
<clus scale="   32.207">  1  3  2 -1</clus>
</clustering>
</event>
<event>
 6    0  0.3042851E+002  0.1208427E+03  0.7546771E-02  0.1241713E+00
         21   -1    0    0  505  501  0.00000000000E+00  0.00000000000E+00  0.28846709885E+03  0.28846709885E+03  0.00000000000E+00 0. -1.
         21   -1    0    0  503  502 -0.00000000000E+00 -0.00000000000E+00 -0.10647930823E+03  0.10647930823E+03  0.00000000000E+00 0. -1.
         21    1    1    2  503  501 -0.59094045689E+02 -0.26493604689E+02  0.38505173711E+02  0.75343650879E+02  0.00000000000E+00 0. -1.
         21    1    1    2  504  502  0.60149064816E+02  0.14812069537E+02 -0.18904027703E+02  0.64766269505E+02  0.00000000000E+00 0. -1.
         21    1    1    2  505  506 -0.56924251566E+02 -0.35821735276E+02  0.16832243792E+03  0.18126226922E+03  0.00000000000E+00 0. -1.
         21    1    1    2  506  504  0.55869232439E+02  0.47503270427E+02 -0.59357933128E+01  0.73574217474E+02  0.00000000000E+00 0.  1.
<scales pt_clust_3="64.76123" pt_clust_4="31.53963" pt_clust_5="115.86778" pt_clust_6="31.53963"></scales>
<clustering>
<clus scale="   31.540">  4  6 -1 -1</clus>
<clus scale="   64.761">  1  3  2 -1</clus>
<clus scale="  115.868">  1  5  2 -1</clus>
<clus scale="   64.761">  1  3  2 -1</clus>
</clustering>
</event>
<event>
 6    0  0.3042851E+002  0.1172420E+03  0.7546771E-02  0.1247717E+00
         21   -1    0    0  506  501  0.00000000000E+00  0.00000000000E+00  0.45234271956E+02  0.45234271956E+02  0.00000000000E+00 0. -1.
         21   -1    0    0  503  502 -0.00000000000E+00 -0.00000000000E+00 -0.12736531347E+04  0.12736531347E+04  0.00000000000E+00 0.  1.
         21    1    1    2  503  504 -0.23851454577E+02  0.29034892633E+02 -0.45849392927E+03  0.46003108596E+03  0.00000000000E+00 0.  1.
         21    1    1    2  504  505 -0.78581608743E+02  0.63665703769E+01 -0.68118462325E+03  0.68573179407E+03  0.00000000000E+00 0.  1.
         21    1    1    2  505  501  0.10634131584E+03 -0.17595394155E+01 -0.89864162837E+02  0.13923770752E+03  0.00000000000E+00 0. -1.
         21    1    1    2  506  502 -0.39082525198E+01 -0.33641923595E+02  0.11238526534E+01  0.33886819056E+02  0.00000000000E+00 0.  1.
<scales pt_clust_3="32.08233" pt_clust_4="32.08233" pt_clust_5="107.63884" pt_clust_6="33.86818"></scales>
<clustering>
<clus scale="   32.082">  3  4 -1 -1</clus>
<clus scale="   33.868">  1  6  2 -1</clus>
<clus scale="  107.639">  1  5  2 -1</clus>
<clus scale="   33.868">  1  3  2 -1</clus>
</clustering>
</event>
<event>
 6    0  0.3042851E+002  0.3424622E+03  0.7546771E-02  0.1065752E+00
         21   -1    0    0  506  501  0.00000000000E+00  0.00000000000E+00  0.57718967018E+03  0.57718967018E+03  0.00000000000E+00 0.  1.
         21   -1    0    0  503  502 -0.00000000000E+00 -0.00000000000E+00 -0.54932357805E+03  0.54932357805E+03  0.00000000000E+00 0.  1.
         21    1    1    2  503  505  0.12834739157E+02  0.58846709670E+02 -0.27591307817E+02  0.66249121015E+02  0.00000000000E+00 0.  1.
         21    1    1    2  504  502  0.22624992932E+02 -0.20981317758E+03 -0.21602486085E+03  0.30199370903E+03  0.00000000000E+00 0. -1.
         21    1    1    2  505  501  0.31849699570E+03  0.13702014532E+03  0.80933858032E+02  0.35604093286E+03  0.00000000000E+00 0.  1.
         21    1    1    2  506  504 -0.35395672779E+03  0.13946322585E+02  0.19054840277E+03  0.40222948532E+03  0.00000000000E+00 0.  1.
<scales pt_clust_3="60.23011" pt_clust_4="181.84189" pt_clust_5="342.46220" pt_clust_6="14000.00000"></scales>
<clustering>
<clus scale="   60.230">  2  3  1 -1</clus>
<clus scale="  181.842">  2  4  1 -1</clus>
<clus scale="  342.462">  2  5  1 -1</clus>
<clus scale="  342.462">  1  3  2 -1</clus>
</clustering>
</event>
<event>
 6    0  0.3042851E+002  0.9510287E+02  0.7546771E-02  0.1290945E+00
         21   -1    0    0  502  501  0.00000000000E+00  0.00000000000E+00  0.43239172061E+03  0.43239172061E+03  0.00000000000E+00 0. -1.
         21   -1    0    0  504  502 -0.00000000000E+00 -0.00000000000E+00 -0.17394885920E+03  0.17394885920E+03  0.00000000000E+00 0.  1.
         21    1    1    2  503  501  0.86099478217E+01 -0.11204591450E+03  0.34139615972E+03  0.35941585390E+03  0.00000000000E+00 0. -1.
         21    1    1    2  504  505 -0.33256665331E+02  0.93646960351E+01 -0.75887086091E+02  0.83381971409E+02  0.00000000000E+00 0.  1.
         21    1    1    2  505  506 -0.21367005945E+02  0.45637199402E+02 -0.56064953843E+02  0.75382902318E+02  0.00000000000E+00 0.  1.
         21    1    1    2  506  503  0.46013723455E+02  0.57044019065E+02  0.48998741624E+02  0.88159852189E+02  0.00000000000E+00 0.  1.
<scales pt_clust_3="95.10287" pt_clust_4="34.55001" pt_clust_5="68.59301" pt_clust_6="14000.00000"></scales>
<clustering>
<clus scale="   34.550">  2  4  1 -1</clus>
<clus scale="   68.593">  2  5  1 -1</clus>
<clus scale="   95.103">  1  3  2 -1</clus>
<clus scale="   95.103">  1  3  2 -1</clus>
</clustering>
</event>
<event>
 6    0  0.3042851E+002  0.2606564E+03  0.7546771E-02  0.1106750E+00
         21   -1    0    0  504  501  0.00000000000E+00  0.00000000000E+00  0.95592620327E+02  0.95592620327E+02  0.00000000000E+00 0. -1.
         21   -1    0    0  505  502 -0.00000000000E+00 -0.00000000000E+00 -0.80779760468E+03  0.80779760468E+03  0.00000000000E+00 0.  1.
         21    1    1    2  503  501 -0.10766448213E+03 -0.17028662452E+03 -0.11779610115E+03  0.23337758386E+03  0.00000000000E+00 0. -1.
         21    1    1    2  504  506  0.10487866159E+03  0.86072376763E+02 -0.31615258626E+03  0.34403552941E+03  0.00000000000E+00 0.  1.
         21    1    1    2  505  503 -0.32946953073E+02 -0.33119142889E+02 -0.66611920256E+02  0.81360477277E+02  0.00000000000E+00 0. -1.
         21    1    1    2  506  502  0.35732773606E+02  0.11733339065E+03 -0.21164437669E+03  0.24461663446E+03  0.00000000000E+00 0.  1.
<scales pt_clust_3="255.05632" pt_clust_4="78.38333" pt_clust_5="30.10378" pt_clust_6="78.38333"></scales>
<clustering>
<clus scale="   30.104">  3  5 -1 -1</clus>
<clus scale="   78.383">  4  6 -1 -1</clus>
<clus scale="  255.056">  1  3  2 -1</clus>
<clus scale="  255.056">  1  3  2 -1</clus>
</clustering>
</event>
<event>
 6    0  0.3042851E+002  0.1834161E+03  0.7546771E-02  0.1164537E+00
         21   -1    0    0  506  501  0.00000000000E+00  0.00000000000E+00  0.14660035507E+03  0.14660035507E+03  0.00000000000E+00 0.  1.
         21   -1    0    0  505  502 -0.00000000000E+00 -0.00000000000E+00 -0.89435691914E+03  0.89435691914E+03  0.00000000000E+00 0.  1.
         21    1    1    2  503  501 -0.16748672813E+03  0.25622740358E+02 -0.24150150127E+01  0.16945253383E+03  0.00000000000E+00 0.  1.
         21    1    1    2  504  503 -0.10166690561E+03 -0.65553878507E+02 -0.15690033406E+03  0.19811911951E+03  0.00000000000E+00 0.  1.
         21    1    1    2  505  504 -0.48479399559E+01  0.51526791927E+02 -0.72381898611E+02  0.88981189330E+02  0.00000000000E+00 0. -1.
         21    1    1    2  506  502  0.27400157370E+03 -0.11595653778E+02 -0.51605931638E+03  0.58440443154E+03  0.00000000000E+00 0.  1.
<scales pt_clust_3="183.41612" pt_clust_4="116.19905" pt_clust_5="51.75435" pt_clust_6="14000.00000"></scales>
<clustering>
<clus scale="   51.754">  2  5  1 -1</clus>
<clus scale="  116.199">  2  4  1 -1</clus>
<clus scale="  183.416">  1  3  2 -1</clus>
<clus scale="  183.416">  1  3  2 -1</clus>
</clustering>
</event>
<event>
 6    0  0.3042851E+002  0.9287187E+02  0.7546771E-02  0.1296042E+00
         21   -1    0    0  504  501  0.00000000000E+00  0.00000000000E+00  0.28508592825E+02  0.28508592825E+02  0.00000000000E+00 0. -1.
         21   -1    0    0  506  502 -0.00000000000E+00 -0.00000000000E+00 -0.11254086783E+04  0.11254086783E+04  0.00000000000E+00 0. -1.
         21    1    1    2  503  501 -0.51945485786E+02  0.16723460409E+02 -0.13849039956E+03  0.14885428577E+03  0.00000000000E+00 0. -1.
         21    1    1    2  504  505 -0.69286520275E+02 -0.25078010523E+02 -0.70528969415E+02  0.10199933348E+03  0.00000000000E+00 0. -1.
         21    1    1    2  505  502  0.35485191766E+02  0.55374281111E+02 -0.41474144600E+03  0.41992377508E+03  0.00000000000E+00 0. -1.
         21    1    1    2  506  503  0.85746814295E+02 -0.47019730997E+02 -0.47313927047E+03  0.48313987677E+03  0.00000000000E+00 0. -1.
<scales pt_clust_3="54.57112" pt_clust_4="14000.00000" pt_clust_5="64.48626" pt_clust_6="92.87187"></scales>
<clustering>
<clus scale="   54.571">  1  3  2 -1</clus>
<clus scale="   64.486">  2  5  1 -1</clus>
<clus scale="   92.872">  2  6  1 -1</clus>
<clus scale="   54.571">  1  3  2 -1</clus>
</clustering>
</event>
<event>
 6    0  0.3042851E+002  0.7706691E+02  0.7546771E-02  0.1337587E+00
         21   -1    0    0  503  501  0.00000000000E+00  0.00000000000E+00  0.34103500562E+03  0.34103500562E+03  0.00000000000E+00 0. -1.
         21   -1    0    0  506  502 -0.00000000000E+00 -0.00000000000E+00 -0.87624962405E+02  0.87624962405E+02  0.00000000000E+00 0.  1.
         21    1    1    2  503  505 -0.52723770143E+02  0.74636337785E+02  0.22466171492E+03  0.24253507995E+03  0.00000000000E+00 0. -1.
         21    1    1    2  504  501 -0.19686138980E+02 -0.35995894322E+02  0.40302722779E+02  0.57511372261E+02  0.00000000000E+00 0. -1.
         21    1    1    2  505  502  0.49287001704E+02  0.28194388475E+02  0.97845591323E+00  0.56789871055E+02  0.00000000000E+00 0.  1.
         21    1    1    2  506  504  0.23122907419E+02 -0.66834831939E+02 -0.12532850395E+02  0.71823644762E+02  0.00000000000E+00 0.  1.
<scales pt_clust_3="14000.00000" pt_clust_4="41.02741" pt_clust_5="53.36688" pt_clust_6="77.06691"></scales>
<clustering>
<clus scale="   41.027">  1  4  2 -1</clus>
<clus scale="   53.367">  2  5  1 -1</clus>
<clus scale="   77.067">  2  6  1 -1</clus>
<clus scale="   41.027">  1  3  2 -1</clus>
</clustering>
</event>
<event>
 6    0  0.3042851E+002  0.1116228E+03  0.7546771E-02  0.1257594E+00
         21   -1    0    0  504  501  0.00000000000E+00  0.00000000000E+00  0.61601659373E+03  0.61601659373E+03  0.00000000000E+00 0. -1.
         21   -1    0    0  506  502 -0.00000000000E+00 -0.00000000000E+00 -0.22311062825E+03  0.22311062825E+03  0.00000000000E+00 0. -1.
         21    1    1    2  503  501  0.68004688655E+02 -0.53097389884E+01  0.29632037009E+03  0.30407004578E+03  0.00000000000E+00 0. -1.
         21    1    1    2  504  505 -0.49842344735E+02  0.44135932122E+02  0.23886115830E+03  0.24796550723E+03  0.00000000000E+00 0. -1.
         21    1    1    2  505  502  0.91061464886E+00 -0.12276409754E+03 -0.15748241472E+03  0.19968115537E+03  0.00000000000E+00 0. -1.
         21    1    1    2  506  503 -0.19072958568E+02  0.83937904407E+02  0.15206851812E+02  0.87410513594E+02  0.00000000000E+00 0. -1.
<scales pt_clust_3="41.11618" pt_clust_4="66.57507" pt_clust_5="14000.00000" pt_clust_6="111.62281"></scales>
<clustering>
<clus scale="   66.575">  1  4  2 -1</clus>
<clus scale="   41.116">  1  3  2 -1</clus>
<clus scale="  111.623">  1  6  2 -1</clus>
<clus scale="   66.575">  1  3  2 -1</clus>
</clustering>
</event>
<event>
 6    0  0.3042851E+002  0.7472973E+02  0.7546771E-02  0.1344710E+00
         21   -1    0    0  505  501  0.00000000000E+00  0.00000000000E+00  0.13353524269E+03  0.13353524269E+03  0.00000000000E+00 0. -1.
         21   -1    0    0  503  502 -0.00000000000E+00 -0.00000000000E+00 -0.12897961539E+04  0.12897961539E+04  0.00000000000E+00 0. -1.
         21    1    1    2  503  501  0.42744210806E+02  0.12027376789E+02 -0.19834111244E+03  0.20325088495E+03  0.00000000000E+00 0.  1.
         21    1    1    2  504  506 -0.53856875558E+02  0.73103651715E+02  0.94658382285E+02  0.13116751227E+03  0.00000000000E+00 0. -1.
         21    1    1    2  505  504  0.46936575651E+02  0.79869396733E+00 -0.18191056290E+02  0.50344757173E+02  0.00000000000E+00 0.  1.
         21    1    1    2  506  502 -0.35823910898E+02 -0.85929722472E+02 -0.10343871247E+04  0.10385682422E+04  0.00000000000E+00 0. -1.
<scales pt_clust_3="44.40411" pt_clust_4="74.72973" pt_clust_5="48.29597" pt_clust_6="14000.00000"></scales>
<clustering>
<clus scale="   44.404">  2  3  1 -1</clus>
<clus scale="   48.296">  1  5  2 -1</clus>
<clus scale="   74.730">  1  4  2 -1</clus>
<clus scale="   48.296">  1  3  2 -1</clus>
</clustering>
</event>
<event>
 6    0  0.3042851E+002  0.2975628E+03  0.7546771E-02  0.1086465E+00
         21   -1    0    0  502  501  0.00000000000E+00  0.00000000000E+00  0.43872140828E+03  0.43872140828E+03  0.00000000000E+00 0.  1.
         21   -1    0    0  506  502 -0.00000000000E+00 -0.00000000000E+00 -0.67468364690E+03  0.67468364690E+03  0.00000000000E+00 0. -1.
         21    1    1    2  503  501  0.53785495367E+02 -0.70925546890E+02  0.10697945009E+03  0.13916865831E+03  0.00000000000E+00 0.  1.
         21    1    1    2  504  503  0.23636930807E+02 -0.18746474890E+03  0.24848964076E+03  0.31216796463E+03  0.00000000000E+00 0.  1.
         21    1    1    2  505  504  0.96298921840E+00  0.15950139300E+03 -0.41949176553E+03  0.44879278410E+03  0.00000000000E+00 0. -1.
         21    1    1    2  506  505 -0.78385415393E+02  0.98888902791E+02 -0.17193956393E+03  0.21327564813E+03  0.00000000000E+00 0. -1.
<scales pt_clust_3="46.48409" pt_clust_4="278.11234" pt_clust_5="111.74497" pt_clust_6="111.74497"></scales>
<clustering>
<clus scale="   46.484">  3  4 -1 -1</clus>
<clus scale="  111.745">  5  6 -1 -1</clus>
<clus scale="  278.112">  1  3  2 -1</clus>
<clus scale="  278.112">  1  3  2 -1</clus>
</clustering>
</event>
<event>
 6    0  0.3042851E+002  0.1236236E+03  0.7546771E-02  0.1237236E+00
         21   -1    0    0  505  501  0.00000000000E+00  0.00000000000E+00  0.33526456666E+03  0.33526456666E+03  0.00000000000E+00 0.  1.
         21   -1    0    0  503  502 -0.00000000000E+00 -0.00000000000E+00 -0.28558638448E+03  0.28558638448E+03  0.00000000000E+00 0. -1.
         21    1    1    2  503  504 -0.84988705929E+01  0.16341897688E+03 -0.19601474103E+03  0.25534245927E+03  0.00000000000E+00 0. -1.
         21    1    1    2  504  501 -0.46609780292E+02  0.19352177139E+01  0.25586563733E+02  0.53206098618E+02  0.00000000000E+00 0. -1.
         21    1    1    2  505  506  0.23252589537E+02 -0.11967479559E+03  0.22550615204E+03  0.25635086156E+03  0.00000000000E+00 0.  1.
         21    1    1    2  506  502  0.31856061348E+02 -0.45679399009E+02 -0.53997925575E+01  0.55951531687E+02  0.00000000000E+00 0. -1.
<scales pt_clust_3="123.62360" pt_clust_4="46.64994" pt_clust_5="14000.00000" pt_clust_6="53.37137"></scales>
<clustering>
<clus scale="   46.650">  1  4  2 -1</clus>
<clus scale="   53.371">  2  6  1 -1</clus>
<clus scale="  123.624">  2  3  1 -1</clus>
<clus scale="   46.650">  1  3  2 -1</clus>
</clustering>
</event>
<event>
 6    0  0.3042851E+002  0.1789263E+03  0.7546771E-02  0.1168846E+00
         21   -1    0    0  504  501  0.00000000000E+00  0.00000000000E+00  0.13735647212E+04  0.13735647212E+04  0.00000000000E+00 0.  1.
         21   -1    0    0  505  502 -0.00000000000E+00 -0.00000000000E+00 -0.10048356591E+03  0.10048356591E+03  0.00000000000E+00 0. -1.
         21    1    1    2  503  501  0.22161357817E+02  0.30183192869E+02  0.96474819559E+02  0.10348691570E+03  0.00000000000E+00 0. -1.
         21    1    1    2  504  506 -0.15690179598E+03 -0.39111149174E+02  0.15346625213E+02  0.16242959852E+03  0.00000000000E+00 0. -1.
         21    1    1    2  505  503  0.16185461151E+03 -0.21713045372E+02  0.11553002223E+04  0.11667848881E+04  0.00000000000E+00 0.  1.
         21    1    1    2  506  502 -0.27114173352E+02  0.30641001678E+02  0.59594882727E+01  0.41346884778E+02  0.00000000000E+00 0. -1.
<scales pt_clust_3="37.44531" pt_clust_4="178.92634" pt_clust_5="14000.00000" pt_clust_6="41.06782"></scales>
<clustering>
<clus scale="   37.445">  1  3  2 -1</clus>
<clus scale="   41.068">  2  6  1 -1</clus>
<clus scale="  178.926">  2  4  1 -1</clus>
<clus scale="   37.445">  1  3  2 -1</clus>
</clustering>
</event>
<event>
 6    0  0.3042851E+002  0.1031975E+03  0.7546771E-02  0.1273712E+00
         21   -1    0    0  504  501  0.00000000000E+00  0.00000000000E+00  0.23496281201E+03  0.23496281201E+03  0.00000000000E+00 0. -1.
         21   -1    0    0  506  502 -0.00000000000E+00 -0.00000000000E+00 -0.19296260637E+03  0.19296260637E+03  0.00000000000E+00 0. -1.
         21    1    1    2  503  505  0.78984296684E+02 -0.43987317076E+02  0.10053749831E+03  0.13520795743E+03  0.00000000000E+00 0. -1.
         21    1    1    2  504  503  0.16219699081E+01 -0.63923124340E+02  0.65798365930E+02  0.91750866867E+02  0.00000000000E+00 0. -1.
         21    1    1    2  505  502 -0.39431985342E+02  0.26026593597E+02 -0.92631581976E+02  0.10398497498E+03  0.00000000000E+00 0. -1.
         21    1    1    2  506  501 -0.41174281250E+02  0.81883847820E+02 -0.31704076617E+02  0.96981619106E+02  0.00000000000E+00 0. -1.
<scales pt_clust_3="103.19748" pt_clust_4="60.47361" pt_clust_5="47.24685" pt_clust_6="14000.00000"></scales>
<clustering>
<clus scale="   47.247">  2  5  1 -1</clus>
<clus scale="   60.474">  1  4  2 -1</clus>
<clus scale="  103.197">  1  3  2 -1</clus>
<clus scale="   60.474">  1  3  2 -1</clus>
</clustering>
</event>
<event>
 6    0  0.3042851E+002  0.1196930E+03  0.7546771E-02  0.1243604E+00
         21   -1    0    0  506  501  0.00000000000E+00  0.00000000000E+00  0.79425550252E+03  0.79425550252E+03  0.00000000000E+00 0.  1.
         21   -1    0    0  503  502 -0.00000000000E+00 -0.00000000000E+00 -0.55987040584E+02  0.55987040584E+02  0.00000000000E+00 0.  1.
         21    1    1    2  503  504  0.36231136016E+02  0.10418981033E+02  0.84723151304E+01  0.38639752930E+02  0.00000000000E+00 0.  1.
         21    1    1    2  504  501  0.52360362962E+02 -0.10047675782E+03  0.90394002966E+02  0.14494227211E+03  0.00000000000E+00 0.  1.
         21    1    1    2  505  502 -0.35854223982E+02 -0.19000348825E+02  0.47423292071E+02  0.62413998939E+02  0.00000000000E+00 0.  1.
         21    1    1    2  506  505 -0.52737274997E+02  0.10905812561E+03  0.59197885177E+03  0.60424651913E+03  0.00000000000E+00 0.  1.
<scales pt_clust_3="37.69947" pt_clust_4="14000.00000" pt_clust_5="33.84707" pt_clust_6="119.69305"></scales>
<clustering>
<clus scale="   37.699">  2  3  1 -1</clus>
<clus scale="   33.847">  2  5  1 -1</clus>
<clus scale="  119.693">  1  6  2 -1</clus>
<clus scale="  119.693">  1  3  2 -1</clus>
</clustering>
</event>
<event>
 6    0  0.3042851E+002  0.1245989E+03  0.7546771E-02  0.1235697E+00
         21   -1    0    0  503  501  0.00000000000E+00  0.00000000000E+00  0.13416502180E+03  0.13416502180E+03  0.00000000000E+00 0.  1.
         21   -1    0    0  504  502 -0.00000000000E+00 -0.00000000000E+00 -0.18817857744E+04  0.18817857744E+04  0.00000000000E+00 0. -1.
         21    1    1    2  503  506  0.15738620137E+03 -0.32095973088E+02  0.46924309704E+02  0.16733935195E+03  0.00000000000E+00 0.  1.
         21    1    1    2  504  505 -0.41413909556E+02  0.23342475276E+02 -0.33283818740E+03  0.33621606453E+03  0.00000000000E+00 0.  1.
         21    1    1    2  505  501 -0.83867675748E+02 -0.17359223610E+02 -0.48188533513E+02  0.98271381602E+02  0.00000000000E+00 0.  1.
         21    1    1    2  506  502 -0.32104616062E+02  0.26112721422E+02 -0.14135183414E+04  0.14141239982E+04  0.00000000000E+00 0. -1.
<scales pt_clust_3="124.59889" pt_clust_4="76.86036" pt_clust_5="14000.00000" pt_clust_6="41.38334"></scales>
<clustering>
<clus scale="   41.383">  2  6  1 -1</clus>
<clus scale="   76.860">  2  4  1 -1</clus>
<clus scale="  124.599">  1  3  2 -1</clus>
<clus scale="  124.599">  1  3  2 -1</clus>
</clustering>
</event>
<event>
 6    0  0.3042851E+002  0.1060478E+03  0.7546771E-02  0.1268069E+00
         21   -1    0    0  502  501  0.00000000000E+00  0.00000000000E+00  0.37917464514E+02  0.37917464514E+02  0.00000000000E+00 0.  1.
         21   -1    0    0  503  502 -0.00000000000E+00 -0.00000000000E+00 -0.54498446711E+03  0.54498446711E+03  0.00000000000E+00 0.  1.
         21    1    1    2  503  506 -0.46140521136E+02 -0.75741325526E+02 -0.27217320090E+03  0.28625853240E+03  0.00000000000E+00 0.  1.
         21    1    1    2  504  501  0.21733453254E+02 -0.43959235233E+02 -0.80420535606E+02  0.94192462012E+02  0.00000000000E+00 0.  1.
         21    1    1    2  505  504  0.26377466580E+02  0.33092950599E+02 -0.67683181407E+02  0.79824351973E+02  0.00000000000E+00 0.  1.
         21    1    1    2  506  505 -0.19703986981E+01  0.86607610160E+02 -0.86790084684E+02  0.12262658524E+03  0.00000000000E+00 0.  1.
<scales pt_clust_3="95.10875" pt_clust_4="49.03833" pt_clust_5="32.78623" pt_clust_6="32.78623"></scales>
<clustering>
<clus scale="   32.786">  5  6 -1 -1</clus>
<clus scale="   49.038">  1  4  2 -1</clus>
<clus scale="   95.109">  2  3  1 -1</clus>
<clus scale="   49.038">  1  3  2 -1</clus>
</clustering>
</event>
<event>
 6    0  0.3042851E+002  0.6552046E+02  0.7546771E-02  0.1376024E+00
         21   -1    0    0  504  501  0.00000000000E+00  0.00000000000E+00  0.61648622354E+03  0.61648622354E+03  0.00000000000E+00 0. -1.
         21   -1    0    0  505  502 -0.00000000000E+00 -0.00000000000E+00 -0.59508513494E+02  0.59508513494E+02  0.00000000000E+00 0. -1.
         21    1    1    2  503  502  0.43921576691E+02  0.52116803133E+02 -0.86672972680E+01  0.68705080670E+02  0.00000000000E+00 0. -1.
         21    1    1    2  504  503 -0.90390479906E+02  0.25177883271E+02  0.20555923381E+03  0.22596230497E+03  0.00000000000E+00 0. -1.
         21    1    1    2  505  506  0.15712371412E+02 -0.29698547667E+02  0.26038627111E+02  0.42507557572E+02  0.00000000000E+00 0. -1.
         21    1    1    2  506  501  0.30756531802E+02 -0.47596138737E+02  0.33404714639E+03  0.33881979382E+03  0.00000000000E+00 0. -1.
<scales pt_clust_3="65.52046" pt_clust_4="14000.00000" pt_clust_5="33.59884" pt_clust_6="58.22678"></scales>
<clustering>
<clus scale="   33.599">  2  5  1 -1</clus>
<clus scale="   58.227">  1  6  2 -1</clus>
<clus scale="   65.520">  2  3  1 -1</clus>
<clus scale="   58.227">  1  3  2 -1</clus>
</clustering>
</event>
<event>
 6    0  0.3042851E+002  0.9431498E+02  0.7546771E-02  0.1292726E+00
         21   -1    0    0  504  501  0.00000000000E+00  0.00000000000E+00  0.24700310780E+03  0.24700310780E+03  0.00000000000E+00 0. -1.
         21   -1    0    0  505  502 -0.00000000000E+00 -0.00000000000E+00 -0.38845229347E+03  0.38845229347E+03  0.00000000000E+00 0.  1.
         21    1    1    2  503  506  0.70819882983E+02  0.56384982571E+02  0.16154755107E+03  0.18518189259E+03  0.00000000000E+00 0. -1.
         21    1    1    2  504  503 -0.43468732556E+02  0.40786366702E+02  0.39934701454E+02  0.71748441091E+02  0.00000000000E+00 0.  1.
         21    1    1    2  505  501 -0.63878468189E+02 -0.39615107856E+02 -0.26271209037E+03  0.27325346822E+03  0.00000000000E+00 0.  1.
         21    1    1    2  506  502  0.36527317762E+02 -0.57556241417E+02 -0.80219347817E+02  0.10527159937E+03  0.00000000000E+00 0.  1.
<scales pt_clust_3="14000.00000" pt_clust_4="59.60754" pt_clust_5="94.31498" pt_clust_6="64.39324"></scales>
<clustering>
<clus scale="   59.608">  1  4  2 -1</clus>
<clus scale="   64.393">  2  6  1 -1</clus>
<clus scale="   94.315">  2  5  1 -1</clus>
<clus scale="   59.608">  1  3  2 -1</clus>
</clustering>
</event>
<event>
 6    0  0.3042851E+002  0.7810597E+02  0.7546771E-02  0.1334514E+00
         21   -1    0    0  505  501  0.00000000000E+00  0.00000000000E+00  0.27362979803E+03  0.27362979803E+03  0.00000000000E+00 0.  1.
         21   -1    0    0  504  502 -0.00000000000E+00 -0.00000000000E+00 -0.68632222917E+02  0.68632222917E+02  0.00000000000E+00 0.  1.
         21    1    1    2  503  502 -0.57773678433E+02 -0.36516443689E+02  0.22743596978E+02  0.72031380542E+02  0.00000000000E+00 0.  1.
         21    1    1    2  504  506  0.10238646192E+03  0.22524511383E+02  0.86596614869E+02  0.13597542022E+03  0.00000000000E+00 0.  1.
         21    1    1    2  505  503 -0.36632099278E+02  0.43741487330E+02  0.36997389547E+02  0.68000259151E+02  0.00000000000E+00 0.  1.
         21    1    1    2  506  501 -0.79806842112E+01 -0.29749555024E+02  0.58659973718E+02  0.66254961031E+02  0.00000000000E+00 0.  1.
<scales pt_clust_3="14000.00000" pt_clust_4="78.10597" pt_clust_5="53.03024" pt_clust_6="30.80142"></scales>
<clustering>
<clus scale="   30.801">  1  6  2 -1</clus>
<clus scale="   53.030">  1  5  2 -1</clus>
<clus scale="   78.106">  1  4  2 -1</clus>
<clus scale="   30.801">  1  3  2 -1</clus>
</clustering>
</event>
<event>
 6    0  0.3042851E+002  0.1479206E+03  0.7546771E-02  0.1203052E+00
         21   -1    0    0  505  501  0.00000000000E+00  0.00000000000E+00  0.50236731476E+03  0.50236731476E+03  0.00000000000E+00 0.  1.
         21   -1    0    0  504  502 -0.00000000000E+00 -0.00000000000E+00 -0.64022965476E+02  0.64022965476E+02  0.00000000000E+00 0.  1.
         21    1    1    2  503  506  0.11520703544E+02 -0.10305596112E+03  0.11087715704E+03  0.15181238977E+03  0.00000000000E+00 0.  1.
         21    1    1    2  504  501 -0.33985607701E+02  0.11392840406E+03  0.19706803469E+03  0.23015323826E+03  0.00000000000E+00 0.  1.
         21    1    1    2  505  503  0.55399280210E+02  0.35354593644E+02  0.10101150882E+03  0.12050872356E+03  0.00000000000E+00 0.  1.
         21    1    1    2  506  502 -0.32934376053E+02 -0.46227036586E+02  0.29387648729E+02  0.63915928652E+02  0.00000000000E+00 0.  1.
<scales pt_clust_3="47.49085" pt_clust_4="133.26658" pt_clust_5="65.71931" pt_clust_6="47.49085"></scales>
<clustering>
<clus scale="   47.491">  3  6 -1 -1</clus>
<clus scale="   65.719">  1  5  2 -1</clus>
<clus scale="  133.267">  1  4  2 -1</clus>
<clus scale="   65.719">  1  3  2 -1</clus>
</clustering>
</event>
<event>
 6    0  0.3042851E+002  0.8732841E+02  0.7546771E-02  0.1309453E+00
         21   -1    0    0  505  501  0.00000000000E+00  0.00000000000E+00  0.27761541252E+03  0.27761541252E+03  0.00000000000E+00 0.  1.
         21   -1    0    0  503  502 -0.00000000000E+00 -0.00000000000E+00 -0.58329867765E+03  0.58329867765E+03  0.00000000000E+00 0. -1.
         21    1    1    2  503  506  0.31432958837E+02 -0.80961752102E+02 -0.49785490924E+03  0.50537347265E+03  0.00000000000E+00 0. -1.
         21    1    1    2  504  502 -0.12225377202E+02  0.10418304826E+03  0.88170812554E+02  0.13703160065E+03  0.00000000000E+00 0.  1.
         21    1    1    2  505  504 -0.21337864983E+02  0.33952208126E+02  0.14349199002E+03  0.14898995980E+03  0.00000000000E+00 0.  1.
         21    1    1    2  506  501  0.21302833470E+01 -0.57173504279E+02 -0.39491158468E+02  0.69519057069E+02  0.00000000000E+00 0. -1.
<scales pt_clust_3="87.32841" pt_clust_4="14000.00000" pt_clust_5="40.10059" pt_clust_6="53.29421"></scales>
<clustering>
<clus scale="   40.101">  1  5  2 -1</clus>
<clus scale="   53.294">  1  6  2 -1</clus>
<clus scale="   87.328">  2  3  1 -1</clus>
<clus scale="   40.101">  1  3  2 -1</clus>
</clustering>
</event>
<event>
 6    0  0.3042851E+002  0.1629586E+03  0.7546771E-02  0.1185396E+00
         21   -1    0    0  504  501  0.00000000000E+00  0.00000000000E+00  0.10303745510E+04  0.10303745510E+04  0.00000000000E+00 0.  1.
         21   -1    0    0  506  502 -0.00000000000E+00 -0.00000000000E+00 -0.32204134687E+03  0.32204134687E+03  0.00000000000E+00 0.  1.
         21    1    1    2  503  501  0.66528548555E+02  0.66275190824E+01  0.34212911975E+03  0.34860049679E+03  0.00000000000E+00 0.  1.
         21    1    1    2  504  505 -0.79742046178E+02 -0.35018773777E+02 -0.21556250664E+03  0.23249151106E+03  0.00000000000E+00 0.  1.
         21    1    1    2  505  502 -0.57830507344E+02 -0.33468962693E+02 -0.79232966813E+02  0.10364555983E+03  0.00000000000E+00 0. -1.
         21    1    1    2  506  503  0.71044004967E+02  0.61860217388E+02  0.66099955788E+03  0.66767833023E+03  0.00000000000E+00 0.  1.
<scales pt_clust_3="45.66960" pt_clust_4="161.50467" pt_clust_5="43.50475" pt_clust_6="45.66960"></scales>
<clustering>
<clus scale="   43.505">  4  5 -1 -1</clus>
<clus scale="   45.670">  3  6 -1 -1</clus>
<clus scale="  161.505">  2  4  1 -1</clus>
<clus scale="  162.959">  1  3  2 -1</clus>
</clustering>
</event>
<event>
 6    0  0.3042851E+002  0.1510140E+03  0.7546771E-02  0.1199233E+00
         21   -1    0    0  504  501  0.00000000000E+00  0.00000000000E+00  0.18109972275E+04  0.18109972275E+04  0.00000000000E+00 0.  1.
         21   -1    0    0  503  502 -0.00000000000E+00 -0.00000000000E+00 -0.16777564108E+02  0.16777564108E+02  0.00000000000E+00 0.  1.
         21    1    1    2  503  501  0.84054127556E+02  0.11517930022E+03  0.11167252078E+04  0.11257915248E+04  0.00000000000E+00 0.  1.
         21    1    1    2  504  506 -0.46025580640E+02 -0.23838447109E+02  0.36138404435E+03  0.36508225531E+03  0.00000000000E+00 0.  1.
         21    1    1    2  505  502  0.15927637718E+02 -0.35231714243E+02  0.10706114108E+03  0.11382904402E+03  0.00000000000E+00 0.  1.
         21    1    1    2  506  505 -0.53956184633E+02 -0.56109138868E+02  0.20904927019E+03  0.22307196751E+03  0.00000000000E+00 0.  1.
<scales pt_clust_3="136.60882" pt_clust_4="49.83453" pt_clust_5="38.66476" pt_clust_6="49.83453"></scales>
<clustering>
<clus scale="   38.665">  2  5  1 -1</clus>
<clus scale="   49.835">  4  6 -1 -1</clus>
<clus scale="  136.609">  1  3  2 -1</clus>
<clus scale="  136.609">  1  3  2 -1</clus>
</clustering>
</event>
<event>
 6    0  0.3042851E+002  0.1876937E+03  0.7546771E-02  0.1160558E+00
         21   -1    0    0  504  501  0.00000000000E+00  0.00000000000E+00  0.36299604991E+02  0.36299604991E+02  0.00000000000E+00 0. -1.
         21   -1    0    0  506  502 -0.00000000000E+00 -0.00000000000E+00 -0.14230745596E+04  0.14230745596E+04  0.00000000000E+00 0.  1.
         21    1    1    2  503  502  0.35486568065E+02 -0.14153243078E+02 -0.46534298649E+03  0.46690866974E+03  0.00000000000E+00 0.  1.
         21    1    1    2  504  503  0.15427898365E+03 -0.45932324334E+02 -0.42728748724E+03  0.45660308800E+03  0.00000000000E+00 0.  1.
         21    1    1    2  505  501 -0.51518122728E+02  0.31011333939E+00 -0.79736315156E+02  0.94932044613E+02  0.00000000000E+00 0.  1.
         21    1    1    2  506  505 -0.13824742899E+03  0.59775454073E+02 -0.41440816575E+03  0.44093036227E+03  0.00000000000E+00 0. -1.
<scales pt_clust_3="38.20485" pt_clust_4="178.55087" pt_clust_5="33.84332" pt_clust_6="33.84332"></scales>
<clustering>
<clus scale="   33.843">  5  6 -1 -1</clus>
<clus scale="   38.205">  2  3  1 -1</clus>
<clus scale="  178.551">  1  4  2 -1</clus>
<clus scale="  178.551">  1  3  2 -1</clus>
</clustering>
</event>
<event>
 6    0  0.3042851E+002  0.1103632E+03  0.7546771E-02  0.1259899E+00
         21   -1    0    0  503  501  0.00000000000E+00  0.00000000000E+00  0.58112183041E+02  0.58112183041E+02  0.00000000000E+00 0.  1.
         21   -1    0    0  504  502 -0.00000000000E+00 -0.00000000000E+00 -0.77011327155E+03  0.77011327155E+03  0.00000000000E+00 0.  1.
         21    1    1    2  503  506  0.67418173833E+02  0.97479090482E+02 -0.41701147219E+03  0.43352733614E+03  0.00000000000E+00 0.  1.
         21    1    1    2  504  505  0.34493040887E+02 -0.20600321739E+01 -0.11694853381E+03  0.12194659963E+03  0.00000000000E+00 0. -1.
         21    1    1    2  505  501 -0.77480565360E+02 -0.77193662255E+02 -0.19238771081E+02  0.11105057322E+03  0.00000000000E+00 0.  1.
         21    1    1    2  506  502 -0.24430649360E+02 -0.18225396053E+02 -0.15880231143E+03  0.16170094559E+03  0.00000000000E+00 0.  1.
<scales pt_clust_3="110.36320" pt_clust_4="30.23676" pt_clust_5="14000.00000" pt_clust_6="30.47986"></scales>
<clustering>
<clus scale="   30.480">  2  6  1 -1</clus>
<clus scale="   30.237">  2  4  1 -1</clus>
<clus scale="  110.363">  2  3  1 -1</clus>
<clus scale="  110.363">  1  3  2 -1</clus>
</clustering>
</event>
<event>
 6    0  0.3042851E+002  0.2726471E+03  0.7546771E-02  0.1099774E+00
         21   -1    0    0  506  501  0.00000000000E+00  0.00000000000E+00  0.66227945833E+03  0.66227945833E+03  0.00000000000E+00 0. -1.
         21   -1    0    0  505  502 -0.00000000000E+00 -0.00000000000E+00 -0.54057316680E+03  0.54057316680E+03  0.00000000000E+00 0. -1.
         21    1    1    2  503  502 -0.36390580784E+02  0.92600218736E+01 -0.11578625470E+02  0.39294871709E+02  0.00000000000E+00 0.  1.
         21    1    1    2  504  501  0.25999574200E+03  0.12814175876E+03  0.49454655521E+03  0.57323153391E+03  0.00000000000E+00 0. -1.
         21    1    1    2  505  504 -0.22553167999E+03 -0.90757253613E+02 -0.43774455767E+03  0.50072119541E+03  0.00000000000E+00 0. -1.
         21    1    1    2  506  503  0.19265187688E+01 -0.46644527025E+02  0.76482919456E+02  0.89605024103E+02  0.00000000000E+00 0. -1.
<scales pt_clust_3="37.55026" pt_clust_4="14000.00000" pt_clust_5="272.64714" pt_clust_6="46.54958"></scales>
<clustering>
<clus scale="   37.550">  2  3  1 -1</clus>
<clus scale="   46.550">  1  6  2 -1</clus>
<clus scale="  272.647">  2  5  1 -1</clus>
<clus scale="   46.550">  1  3  2 -1</clus>
</clustering>
</event>
<event>
 6    0  0.3042851E+002  0.2400483E+03  0.7546771E-02  0.1119761E+00
         21   -1    0    0  502  501  0.00000000000E+00  0.00000000000E+00  0.77011391534E+03  0.77011391534E+03  0.00000000000E+00 0.  1.
         21   -1    0    0  504  502 -0.00000000000E+00 -0.00000000000E+00 -0.37888478777E+03  0.37888478777E+03  0.00000000000E+00 0.  1.
         21    1    1    2  503  505 -0.12182068599E+02 -0.59819943032E+02 -0.47239746278E+02  0.77190815569E+02  0.00000000000E+00 0.  1.
         21    1    1    2  504  503  0.70358633902E+01 -0.17261349289E+03 -0.27211907467E+03  0.32232547541E+03  0.00000000000E+00 0.  1.
         21    1    1    2  505  506  0.24854567670E+02  0.12418033365E+03  0.33626837739E+03  0.35932565513E+03  0.00000000000E+00 0.  1.
         21    1    1    2  506  501 -0.19708362461E+02  0.10825310228E+03  0.37431957113E+03  0.39015675700E+03  0.00000000000E+00 0.  1.
<scales pt_clust_3="35.52532" pt_clust_4="35.52532" pt_clust_5="238.30370" pt_clust_6="48.76368"></scales>
<clustering>
<clus scale="   35.525">  3  4 -1 -1</clus>
<clus scale="   48.764">  5  6 -1 -1</clus>
<clus scale="  238.304">  1  5  2 -1</clus>
<clus scale="  238.304">  1  3  2 -1</clus>
</clustering>
</event>
<event>
 6    0  0.3042851E+002  0.5742908E+02  0.7546771E-02  0.1408949E+00
         21   -1    0    0  506  501  0.00000000000E+00  0.00000000000E+00  0.26894632325E+03  0.26894632325E+03  0.00000000000E+00 0. -1.
         21   -1    0    0  504  502 -0.00000000000E+00 -0.00000000000E+00 -0.15429626492E+04  0.15429626492E+04  0.00000000000E+00 0.  1.
         21    1    1    2  503  502  0.42497512564E+02  0.53259426739E+02 -0.11092609650E+04  0.11113516516E+04  0.00000000000E+00 0.  1.
         21    1    1    2  504  501  0.36529705100E+02 -0.24182098733E+02 -0.19710868246E+02  0.48038646742E+02  0.00000000000E+00 0.  1.
         21    1    1    2  505  503  0.84528063551E+01 -0.51244230821E+02 -0.38897644114E+03  0.39242845576E+03  0.00000000000E+00 0.  1.
         21    1    1    2  506  505 -0.87480024019E+02  0.22166902814E+02  0.24393194845E+03  0.26009021831E+03  0.00000000000E+00 0. -1.
<scales pt_clust_3="57.42908" pt_clust_4="43.80860" pt_clust_5="14000.00000" pt_clust_6="51.37755"></scales>
<clustering>
<clus scale="   43.809">  1  4  2 -1</clus>
<clus scale="   51.378">  1  6  2 -1</clus>
<clus scale="   57.429">  2  3  1 -1</clus>
<clus scale="   43.809">  1  3  2 -1</clus>
</clustering>
</event>
<event>
 6    0  0.3042851E+002  0.2269746E+03  0.7546771E-02  0.1128787E+00
         21   -1    0    0  506  501  0.00000000000E+00  0.00000000000E+00  0.29899367496E+03  0.29899367496E+03  0.00000000000E+00 0. -1.
         21   -1    0    0  505  502 -0.00000000000E+00 -0.00000000000E+00 -0.60196804010E+03  0.60196804010E+03  0.00000000000E+00 0. -1.
         21    1    1    2  503  504  0.22090390331E+03 -0.16708193308E+02  0.17192464400E+03  0.28042072219E+03  0.00000000000E+00 0. -1.
         21    1    1    2  504  501  0.19030389548E+02  0.38357387298E+02  0.16238065748E+02  0.45794319145E+02  0.00000000000E+00 0.  1.
         21    1    1    2  505  503 -0.49316209510E+02 -0.74523715827E+02 -0.23286352794E+03  0.24942192242E+03  0.00000000000E+00 0. -1.
         21    1    1    2  506  502 -0.19061808335E+03  0.52874521836E+02 -0.25827354695E+03  0.32532475131E+03  0.00000000000E+00 0. -1.
<scales pt_clust_3="226.97462" pt_clust_4="42.81874" pt_clust_5="88.05114" pt_clust_6="14000.00000"></scales>
<clustering>
<clus scale="   42.819">  1  4  2 -1</clus>
<clus scale="   88.051">  2  5  1 -1</clus>
<clus scale="  226.975">  1  3  2 -1</clus>
<clus scale="   42.819">  1  3  2 -1</clus>
</clustering>
</event>
<event>
 6    0  0.3042851E+002  0.1573360E+03  0.7546771E-02  0.1191738E+00
         21   -1    0    0  505  501  0.00000000000E+00  0.00000000000E+00  0.20956075096E+04  0.20956075096E+04  0.00000000000E+00 0. -1.
         21   -1    0    0  503  502 -0.00000000000E+00 -0.00000000000E+00 -0.23498725555E+02  0.23498725555E+02  0.00000000000E+00 0. -1.
         21    1    1    2  503  504  0.10442918034E+03 -0.26622605743E+02  0.56129407087E+03  0.57154636806E+03  0.00000000000E+00 0. -1.
         21    1    1    2  504  501  0.68847006707E+02 -0.21506443685E+02  0.99999659124E+03  0.10025944444E+04  0.00000000000E+00 0. -1.
         21    1    1    2  505  506 -0.14432866336E+03  0.14313561032E+02  0.37690008786E+03  0.40384318408E+03  0.00000000000E+00 0. -1.
         21    1    1    2  506  502 -0.28947523682E+02  0.33815488396E+02  0.13391803408E+03  0.14112223862E+03  0.00000000000E+00 0.  1.
<scales pt_clust_3="145.06380" pt_clust_4="72.12792" pt_clust_5="33.74884" pt_clust_6="33.74884"></scales>
<clustering>
<clus scale="   33.749">  5  6 -1 -1</clus>
<clus scale="   72.128">  1  4  2 -1</clus>
<clus scale="  145.064">  1  3  2 -1</clus>
<clus scale="   72.128">  1  3  2 -1</clus>
</clustering>
</event>
<event>
 6    0  0.3042851E+002  0.1158451E+03  0.7546771E-02  0.1250113E+00
         21   -1    0    0  505  501  0.00000000000E+00  0.00000000000E+00  0.10978877912E+03  0.10978877912E+03  0.00000000000E+00 0. -1.
         21   -1    0    0  503  502 -0.00000000000E+00 -0.00000000000E+00 -0.75925498380E+03  0.75925498380E+03  0.00000000000E+00 0.  1.
         21    1    1    2  503  504  0.15121003940E+03  0.48677586557E+02 -0.36420419868E+02  0.16297371086E+03  0.00000000000E+00 0. -1.
         21    1    1    2  504  501 -0.39935298541E+02  0.10724958528E+02  0.24162339049E+02  0.47892289915E+02  0.00000000000E+00 0. -1.
         21    1    1    2  505  506 -0.78454712375E+02 -0.27865550925E+01 -0.18088270300E+03  0.19718382040E+03  0.00000000000E+00 0.  1.
         21    1    1    2  506  502 -0.32820028488E+02 -0.56615989992E+02 -0.45632542086E+03  0.46099394174E+03  0.00000000000E+00 0.  1.
<scales pt_clust_3="14000.00000" pt_clust_4="41.35037" pt_clust_5="115.84511" pt_clust_6="65.79332"></scales>
<clustering>
<clus scale="   41.350">  1  4  2 -1</clus>
<clus scale="   65.793">  2  6  1 -1</clus>
<clus scale="  115.845">  2  5  1 -1</clus>
<clus scale="   41.350">  1  3  2 -1</clus>
</clustering>
</event>
<event>
 6    0  0.3042851E+002  0.1213018E+03  0.7546771E-02  0.1240965E+00
         21   -1    0    0  506  501  0.00000000000E+00  0.00000000000E+00  0.42571998654E+02  0.42571998654E+02  0.00000000000E+00 0. -1.
         21   -1    0    0  505  502 -0.00000000000E+00 -0.00000000000E+00 -0.14005260986E+04  0.14005260986E+04  0.00000000000E+00 0. -1.
         21    1    1    2  503  501 -0.99501509553E+02 -0.31168930149E+02 -0.78181891773E+03  0.78874132181E+03  0.00000000000E+00 0. -1.
         21    1    1    2  504  502  0.50001606465E+02  0.16929957734E+02 -0.28148033274E+02  0.59825545506E+02  0.00000000000E+00 0. -1.
         21    1    1    2  505  503 -0.13911926654E+02  0.44760095468E+02 -0.51443771736E+03  0.51656865264E+03  0.00000000000E+00 0. -1.
         21    1    1    2  506  504  0.63411829742E+02 -0.30521123052E+02 -0.33549431632E+02  0.77962577346E+02  0.00000000000E+00 0. -1.
<scales pt_clust_3="112.17162" pt_clust_4="39.98773" pt_clust_5="46.87225" pt_clust_6="39.98773"></scales>
<clustering>
<clus scale="   39.988">  4  6 -1 -1</clus>
<clus scale="   46.872">  2  5  1 -1</clus>
<clus scale="  112.172">  2  3  1 -1</clus>
<clus scale="  121.302">  1  3  2 -1</clus>
</clustering>
</event>
<event>
 6    0  0.3042851E+002  0.1376500E+03  0.7546771E-02  0.1216526E+00
         21   -1    0    0  504  501  0.00000000000E+00  0.00000000000E+00  0.43330429742E+03  0.43330429742E+03  0.00000000000E+00 0.  1.
         21   -1    0    0  506  502 -0.00000000000E+00 -0.00000000000E+00 -0.45025416699E+03  0.45025416699E+03  0.00000000000E+00 0.  1.
         21    1    1    2  503  505 -0.65036012009E+01  0.63246074153E+02  0.17177163096E+03  0.18316073795E+03  0.00000000000E+00 0.  1.
         21    1    1    2  504  502 -0.56255471324E+01 -0.75170573105E+02 -0.90660879316E+02  0.11790528775E+03  0.00000000000E+00 0.  1.
         21    1    1    2  505  501  0.30457409095E+02  0.74801953396E+02  0.23217673303E+03  0.24582315058E+03  0.00000000000E+00 0.  1.
         21    1    1    2  506  503 -0.18328260762E+02 -0.62877454444E+02 -0.33023735425E+03  0.33666928812E+03  0.00000000000E+00 0.  1.
<scales pt_clust_3="31.01392" pt_clust_4="133.13783" pt_clust_5="31.01392" pt_clust_6="65.49427"></scales>
<clustering>
<clus scale="   31.014">  3  5 -1 -1</clus>
<clus scale="   65.494">  2  6  1 -1</clus>
<clus scale="  133.138">  2  4  1 -1</clus>
<clus scale="  137.650">  1  3  2 -1</clus>
</clustering>
</event>
<event>
 6    0  0.3042851E+002  0.1456833E+03  0.7546771E-02  0.1205880E+00
         21   -1    0    0  505  501  0.00000000000E+00  0.00000000000E+00  0.49699467550E+03  0.49699467550E+03  0.00000000000E+00 0.  1.
         21   -1    0    0  503  502 -0.00000000000E+00 -0.00000000000E+00 -0.95157262192E+02  0.95157262192E+02  0.00000000000E+00 0. -1.
         21    1    1    2  503  506  0.67934497602E+02 -0.11707900936E+03  0.30082980468E+02  0.13866353562E+03  0.00000000000E+00 0. -1.
         21    1    1    2  504  502  0.30646649625E+02 -0.85723581332E+00  0.26543549662E+02  0.40552583334E+02  0.00000000000E+00 0.  1.
         21    1    1    2  505  504 -0.40589909567E+02  0.15025681319E+03  0.27711588770E+03  0.31783307865E+03  0.00000000000E+00 0.  1.
         21    1    1    2  506  501 -0.57991237660E+02 -0.32320568015E+02  0.68094995475E+02  0.95102740081E+02  0.00000000000E+00 0.  1.
<scales pt_clust_3="145.68332" pt_clust_4="30.65864" pt_clust_5="14000.00000" pt_clust_6="62.39911"></scales>
<clustering>
<clus scale="   30.659">  2  4  1 -1</clus>
<clus scale="   62.399">  1  6  2 -1</clus>
<clus scale="  145.683">  2  3  1 -1</clus>
<clus scale="   62.399">  1  3  2 -1</clus>
</clustering>
</event>
<event>
 6    0  0.3042851E+002  0.2105947E+03  0.7546771E-02  0.1141096E+00
         21   -1    0    0  503  501  0.00000000000E+00  0.00000000000E+00  0.70362949245E+02  0.70362949245E+02  0.00000000000E+00 0.  1.
         21   -1    0    0  501  502 -0.00000000000E+00 -0.00000000000E+00 -0.26024292272E+04  0.26024292272E+04  0.00000000000E+00 0.  1.
         21    1    1    2  503  505 -0.91391576607E+02  0.21469170334E+02 -0.14395778876E+02  0.94976755045E+02  0.00000000000E+00 0.  1.
         21    1    1    2  504  506  0.92835825346E+02 -0.98800010550E+02 -0.15597467622E+04  0.15656276361E+04  0.00000000000E+00 0.  1.
         21    1    1    2  505  504 -0.59575049157E+02  0.90441330697E+02 -0.86166322265E+02  0.13839601104E+03  0.00000000000E+00 0.  1.
         21    1    1    2  506  502  0.58130800417E+02 -0.13110490481E+02 -0.87175741454E+03  0.87379177424E+03  0.00000000000E+00 0.  1.
<scales pt_clust_3="88.49958" pt_clust_4="196.35299" pt_clust_5="88.49958" pt_clust_6="37.73555"></scales>
<clustering>
<clus scale="   37.736">  4  6 -1 -1</clus>
<clus scale="   88.500">  3  5 -1 -1</clus>
<clus scale="  196.353">  2  4  1 -1</clus>
<clus scale="  210.595">  1  3  2 -1</clus>
</clustering>
</event>
<event>
 6    0  0.3042851E+002  0.1980244E+03  0.7546771E-02  0.1151417E+00
         21   -1    0    0  504  501  0.00000000000E+00  0.00000000000E+00  0.14083113351E+03  0.14083113351E+03  0.00000000000E+00 0.  1.
         21   -1    0    0  506  502 -0.00000000000E+00 -0.00000000000E+00 -0.17324406113E+04  0.17324406113E+04  0.00000000000E+00 0. -1.
         21    1    1    2  503  505  0.19399682550E+02  0.90590323585E+02 -0.76806973117E+03  0.77363690860E+03  0.00000000000E+00 0. -1.
         21    1    1    2  504  502 -0.15885603287E+03 -0.66346238142E+02  0.53319347058E+02  0.18022212757E+03  0.00000000000E+00 0.  1.
         21    1    1    2  505  501  0.46061699628E+02 -0.75248146512E+02 -0.92353990832E+02  0.12772322948E+03  0.00000000000E+00 0.  1.
         21    1    1    2  506  503  0.93394650694E+02  0.51004061069E+02 -0.78450510289E+03  0.79168947921E+03  0.00000000000E+00 0. -1.
<scales pt_clust_3="77.99037" pt_clust_4="179.51910" pt_clust_5="88.22677" pt_clust_6="77.99037"></scales>
<clustering>
<clus scale="   77.990">  3  6 -1 -1</clus>
<clus scale="   88.227">  1  5  2 -1</clus>
<clus scale="  179.519">  1  4  2 -1</clus>
<clus scale="   88.227">  1  3  2 -1</clus>
</clustering>
</event>
<event>
 6    0  0.3042851E+002  0.1351963E+03  0.7546771E-02  0.1219943E+00
         21   -1    0    0  505  501  0.00000000000E+00  0.00000000000E+00  0.10699274308E+04  0.10699274308E+04  0.00000000000E+00 0. -1.
         21   -1    0    0  504  502 -0.00000000000E+00 -0.00000000000E+00 -0.10486880794E+03  0.10486880794E+03  0.00000000000E+00 0. -1.
         21    1    1    2  503  501  0.68361177516E+02 -0.42152393878E+02  0.73618779023E+03  0.74055555996E+03  0.00000000000E+00 0. -1.
         21    1    1    2  504  506 -0.35972399000E+02 -0.14855126992E+02  0.43474111088E+02  0.58349692567E+02  0.00000000000E+00 0.  1.
         21    1    1    2  505  502 -0.55191866051E+02  0.10105579783E+03 -0.56993191581E+02  0.12847817028E+03  0.00000000000E+00 0. -1.
         21    1    1    2  506  503  0.22803087534E+02 -0.44048276955E+02  0.24238991310E+03  0.24741281591E+03  0.00000000000E+00 0. -1.
<scales pt_clust_3="41.12805" pt_clust_4="38.91900" pt_clust_5="124.70902" pt_clust_6="41.12805"></scales>
<clustering>
<clus scale="   38.919">  2  4  1 -1</clus>
<clus scale="   41.128">  3  6 -1 -1</clus>
<clus scale="  124.709">  2  5  1 -1</clus>
<clus scale="  135.196">  1  3  2 -1</clus>
</clustering>
</event>
<event>
 6    0  0.3042851E+002  0.9746861E+02  0.7546771E-02  0.1285711E+00
         21   -1    0    0  503  501  0.00000000000E+00  0.00000000000E+00  0.41451678249E+03  0.41451678249E+03  0.00000000000E+00 0.  1.
         21   -1    0    0  504  502 -0.00000000000E+00 -0.00000000000E+00 -0.10268053259E+03  0.10268053259E+03  0.00000000000E+00 0.  1.
         21    1    1    2  503  506 -0.96997845786E+02 -0.88724591776E+02  0.92529640726E+02  0.16075562101E+03  0.00000000000E+00 0.  1.
         21    1    1    2  504  505  0.39470393359E+02 -0.23376763288E+02  0.15543443855E+03  0.16206248703E+03  0.00000000000E+00 0.  1.
         21    1    1    2  505  501  0.28627119814E+02  0.25194198299E+02  0.91159168264E+02  0.98814237716E+02  0.00000000000E+00 0.  1.
         21    1    1    2  506  502  0.28900332613E+02  0.86907156765E+02 -0.27286997635E+02  0.95564969325E+02  0.00000000000E+00 0.  1.
<scales pt_clust_3="97.46861" pt_clust_4="54.78011" pt_clust_5="38.13476" pt_clust_6="14000.00000"></scales>
<clustering>
<clus scale="   38.135">  1  5  2 -1</clus>
<clus scale="   54.780">  1  4  2 -1</clus>
<clus scale="   97.469">  1  3  2 -1</clus>
<clus scale="   38.135">  1  3  2 -1</clus>
</clustering>
</event>
<event>
 6    0  0.3042851E+002  0.1342250E+03  0.7546771E-02  0.1221318E+00
         21   -1    0    0  503  501  0.00000000000E+00  0.00000000000E+00  0.28713138152E+03  0.28713138152E+03  0.00000000000E+00 0. -1.
         21   -1    0    0  504  502 -0.00000000000E+00 -0.00000000000E+00 -0.31428388325E+03  0.31428388325E+03  0.00000000000E+00 0. -1.
         21    1    1    2  503  502 -0.57944801989E+02  0.69996097457E+02  0.14442830744E+03  0.17063583951E+03  0.00000000000E+00 0. -1.
         21    1    1    2  504  506  0.19441176412E+02  0.30940618530E+02 -0.92930050002E+02  0.99856273758E+02  0.00000000000E+00 0. -1.
         21    1    1    2  505  501 -0.96560245031E+02 -0.49770059382E+02  0.65511429240E+02  0.12685695524E+03  0.00000000000E+00 0. -1.
         21    1    1    2  506  505  0.13506387061E+03 -0.51166656605E+02 -0.14416218841E+03  0.20406619627E+03  0.00000000000E+00 0. -1.
<scales pt_clust_3="91.57990" pt_clust_4="36.54150" pt_clust_5="134.22504" pt_clust_6="14000.00000"></scales>
<clustering>
<clus scale="   36.541">  2  4  1 -1</clus>
<clus scale="   91.580">  1  3  2 -1</clus>
<clus scale="  134.225">  1  5  2 -1</clus>
<clus scale="   91.580">  1  3  2 -1</clus>
</clustering>
</event>
<event>
 6    0  0.3042851E+002  0.1168654E+03  0.7546771E-02  0.1248360E+00
         21   -1    0    0  503  501  0.00000000000E+00  0.00000000000E+00  0.13461179558E+03  0.13461179558E+03  0.00000000000E+00 0. -1.
         21   -1    0    0  504  502 -0.00000000000E+00 -0.00000000000E+00 -0.16855641481E+04  0.16855641481E+04  0.00000000000E+00 0. -1.
         21    1    1    2  503  505 -0.17775796585E+02  0.70514643344E+02  0.43773451448E+02  0.84878789587E+02  0.00000000000E+00 0. -1.
         21    1    1    2  504  501 -0.87577843915E+02  0.33923814427E+02 -0.13175762530E+04  0.13209193338E+04  0.00000000000E+00 0. -1.
         21    1    1    2  505  506  0.13371700823E+03 -0.88423893323E+02 -0.27546702334E+02  0.16265867333E+03  0.00000000000E+00 0. -1.
         21    1    1    2  506  502 -0.28363367731E+02 -0.16014564448E+02 -0.24960284862E+03  0.25171914696E+03  0.00000000000E+00 0.  1.
<scales pt_clust_3="72.59893" pt_clust_4="116.86543" pt_clust_5="14000.00000" pt_clust_6="32.57218"></scales>
<clustering>
<clus scale="   32.572">  2  6  1 -1</clus>
<clus scale="   72.599">  1  3  2 -1</clus>
<clus scale="  116.865">  2  4  1 -1</clus>
<clus scale="   72.599">  1  3  2 -1</clus>
</clustering>
</event>
<event>
 6    0  0.3042851E+002  0.9996864E+02  0.7546771E-02  0.1280362E+00
         21   -1    0    0  506  501  0.00000000000E+00  0.00000000000E+00  0.63445718624E+02  0.63445718624E+02  0.00000000000E+00 0. -1.
         21   -1    0    0  503  502 -0.00000000000E+00 -0.00000000000E+00 -0.41181238087E+03  0.41181238087E+03  0.00000000000E+00 0. -1.
         21    1    1    2  503  505  0.51504447194E+02 -0.60703121961E+01 -0.42353746015E+02  0.66958170319E+02  0.00000000000E+00 0. -1.
         21    1    1    2  504  502 -0.63391951484E+02  0.54287271604E+02 -0.22732283490E+03  0.24215969656E+03  0.00000000000E+00 0. -1.
         21    1    1    2  505  501  0.69484087247E+02 -0.50335625857E+02 -0.30655579621E+02  0.91112447958E+02  0.00000000000E+00 0. -1.
         21    1    1    2  506  504 -0.57596582958E+02  0.21186664493E+01 -0.48034501708E+02  0.75027784655E+02  0.00000000000E+00 0. -1.
<scales pt_clust_3="33.31379" pt_clust_4="90.31957" pt_clust_5="33.31379" pt_clust_6="57.63554"></scales>
<clustering>
<clus scale="   33.314">  3  5 -1 -1</clus>
<clus scale="   57.636">  1  6  2 -1</clus>
<clus scale="   90.320">  2  4  1 -1</clus>
<clus scale="   57.636">  1  3  2 -1</clus>
</clustering>
</event>
<event>
 6    0  0.3042851E+002  0.1016050E+03  0.7546771E-02  0.1276957E+00
         21   -1    0    0  502  501  0.00000000000E+00  0.00000000000E+00  0.21694289751E+02  0.21694289751E+02  0.00000000000E+00 0.  1.
         21   -1    0    0  505  502 -0.00000000000E+00 -0.00000000000E+00 -0.18485693066E+04  0.18485693066E+04  0.00000000000E+00 0.  1.
         21    1    1    2  503  506  0.80212668053E+02  0.48668018679E+01 -0.14878056563E+03  0.16909587395E+03  0.00000000000E+00 0.  1.
         21    1    1    2  504  501 -0.51469033551E+02  0.20121662744E+02 -0.14133244038E+03  0.15175243468E+03  0.00000000000E+00 0.  1.
         21    1    1    2  505  503 -0.87281709626E+02 -0.43078168609E+01 -0.13453821114E+04  0.13482172228E+04  0.00000000000E+00 0.  1.
         21    1    1    2  506  504  0.58538075124E+02 -0.20680647751E+02 -0.19137989947E+03  0.20119806498E+03  0.00000000000E+00 0.  1.
<scales pt_clust_3="38.37955" pt_clust_4="55.26249" pt_clust_5="91.74397" pt_clust_6="38.37955"></scales>
<clustering>
<clus scale="   38.380">  3  6 -1 -1</clus>
<clus scale="   55.262">  1  4  2 -1</clus>
<clus scale="   91.744">  2  5  1 -1</clus>
<clus scale="   55.262">  1  3  2 -1</clus>
</clustering>
</event>
<event>
 6    0  0.3042851E+002  0.1224338E+03  0.7546771E-02  0.1239135E+00
         21   -1    0    0  506  501  0.00000000000E+00  0.00000000000E+00  0.87357617037E+03  0.87357617037E+03  0.00000000000E+00 0.  1.
         21   -1    0    0  504  502 -0.00000000000E+00 -0.00000000000E+00 -0.31857091178E+02  0.31857091178E+02  0.00000000000E+00 0.  1.
         21    1    1    2  503  501 -0.25916162506E+02  0.69149980270E+02  0.33250993227E+03  0.34061154166E+03  0.00000000000E+00 0.  1.
         21    1    1    2  504  505  0.62163106377E+02 -0.38952021888E+02  0.55043496173E+02  0.91713130328E+02  0.00000000000E+00 0.  1.
         21    1    1    2  505  503 -0.57083193659E+02  0.28801898381E+02  0.29982912470E+03  0.30657061889E+03  0.00000000000E+00 0.  1.
         21    1    1    2  506  502  0.20836249788E+02 -0.58999856763E+02  0.15433652605E+03  0.16653797067E+03  0.00000000000E+00 0.  1.
<scales pt_clust_3="46.60457" pt_clust_4="111.72036" pt_clust_5="46.60457" pt_clust_6="62.57102"></scales>
<clustering>
<clus scale="   46.605">  3  5 -1 -1</clus>
<clus scale="   62.571">  2  6  1 -1</clus>
<clus scale="  111.720">  2  4  1 -1</clus>
<clus scale="  122.434">  1  3  2 -1</clus>
</clustering>
</event>
<event>
 6    0  0.3042851E+002  0.2273351E+03  0.7546771E-02  0.1128530E+00
         21   -1    0    0  505  501  0.00000000000E+00  0.00000000000E+00  0.10797591297E+03  0.10797591297E+03  0.00000000000E+00 0.  1.
         21   -1    0    0  504  502 -0.00000000000E+00 -0.00000000000E+00 -0.61017396925E+03  0.61017396925E+03  0.00000000000E+00 0. -1.
         21    1    1    2  503  501 -0.63290647205E+02  0.69341308333E+02 -0.13859621784E+03  0.16740022301E+03  0.00000000000E+00 0. -1.
         21    1    1    2  504  503 -0.11190486122E+03  0.67118761609E+02 -0.28110477535E+03  0.30991534464E+03  0.00000000000E+00 0. -1.
         21    1    1    2  505  506  0.64126775718E+02 -0.61763606831E+02 -0.12874113782E+02  0.89959598145E+02  0.00000000000E+00 0.  1.
         21    1    1    2  506  502  0.11106873270E+03 -0.74696463111E+02 -0.69622949311E+02  0.15087471643E+03  0.00000000000E+00 0.  1.
<scales pt_clust_3="41.26186" pt_clust_4="41.26186" pt_clust_5="35.36831" pt_clust_6="226.26401"></scales>
<clustering>
<clus scale="   35.368">  5  6 -1 -1</clus>
<clus scale="   41.262">  3  4 -1 -1</clus>
<clus scale="  226.264">  1  5  2 -1</clus>
<clus scale="  226.264">  1  3  2 -1</clus>
</clustering>
</event>
<event>
 6    0  0.3042851E+002  0.8249521E+02  0.7546771E-02  0.1322116E+00
         21   -1    0    0  504  501  0.00000000000E+00  0.00000000000E+00  0.10737891275E+04  0.10737891275E+04  0.00000000000E+00 0.  1.
         21   -1    0    0  506  502 -0.00000000000E+00 -0.00000000000E+00 -0.30330487343E+03  0.30330487343E+03  0.00000000000E+00 0. -1.
         21    1    1    2  503  505 -0.55298614711E+02  0.69292967143E+01 -0.28006155554E+02  0.62372242951E+02  0.00000000000E+00 0.  1.
         21    1    1    2  504  502  0.91388162951E+02  0.31430000794E+01  0.56749454152E+03  0.57481451741E+03  0.00000000000E+00 0.  1.
         21    1    1    2  505  501 -0.24040105732E+02 -0.60524663739E+02  0.48058882825E+03  0.48498121968E+03  0.00000000000E+00 0. -1.
         21    1    1    2  506  503 -0.12049442509E+02  0.50452366945E+02 -0.24959296012E+03  0.25492602091E+03  0.00000000000E+00 0. -1.
<scales pt_clust_3="14000.00000" pt_clust_4="82.49521" pt_clust_5="63.31120" pt_clust_6="51.87129"></scales>
<clustering>
<clus scale="   51.871">  2  6  1 -1</clus>
<clus scale="   63.311">  1  5  2 -1</clus>
<clus scale="   82.495">  1  4  2 -1</clus>
<clus scale="   63.311">  1  3  2 -1</clus>
</clustering>
</event>
<event>
 6    0  0.3042851E+002  0.1754953E+03  0.7546771E-02  0.1172235E+00
         21   -1    0    0  506  501  0.00000000000E+00  0.00000000000E+00  0.69521697145E+03  0.69521697145E+03  0.00000000000E+00 0. -1.
         21   -1    0    0  503  502 -0.00000000000E+00 -0.00000000000E+00 -0.20593460495E+03  0.20593460495E+03  0.00000000000E+00 0.  1.
         21    1    1    2  503  501 -0.18052710546E+03  0.31102061911E+02  0.53183273912E+03  0.56249749908E+03  0.00000000000E+00 0. -1.
         21    1    1    2  504  502  0.90950830272E+02 -0.33860264253E+02 -0.12500387993E+03  0.15825467140E+03  0.00000000000E+00 0.  1.
         21    1    1    2  505  504  0.62992253590E+02  0.20286638890E+02 -0.23141433063E+02  0.70107757445E+02  0.00000000000E+00 0. -1.
         21    1    1    2  506  505  0.26584021597E+02 -0.17528436547E+02  0.10559494037E+03  0.11029164847E+03  0.00000000000E+00 0. -1.
<scales pt_clust_3="156.45747" pt_clust_4="65.74676" pt_clust_5="65.74676" pt_clust_6="31.84268"></scales>
<clustering>
<clus scale="   31.843">  1  6  2 -1</clus>
<clus scale="   65.747">  4  5 -1 -1</clus>
<clus scale="  156.457">  1  3  2 -1</clus>
<clus scale="   31.843">  1  3  2 -1</clus>
</clustering>
</event>
<event>
 6    0  0.3042851E+002  0.8332574E+02  0.7546771E-02  0.1319870E+00
         21   -1    0    0  506  501  0.00000000000E+00  0.00000000000E+00  0.21302048058E+03  0.21302048058E+03  0.00000000000E+00 0. -1.
         21   -1    0    0  503  502 -0.00000000000E+00 -0.00000000000E+00 -0.33785511283E+03  0.33785511283E+03  0.00000000000E+00 0.  1.
         21    1    1    2  503  505  0.65830768224E+01 -0.39654204658E+02 -0.18576483664E+03  0.19006411386E+03  0.00000000000E+00 0.  1.
         21    1    1    2  504  501 -0.67531177005E+02  0.47609299136E+02  0.15803800271E+03  0.17833428031E+03  0.00000000000E+00 0. -1.
         21    1    1    2  505  504  0.74790391165E+02 -0.52626264793E+02 -0.10013796120E+03  0.13561245382E+03  0.00000000000E+00 0.  1.
         21    1    1    2  506  502 -0.13842290982E+02  0.44671170315E+02  0.30301628825E+01  0.46864745428E+02  0.00000000000E+00 0. -1.
<scales pt_clust_3="40.19693" pt_clust_4="14000.00000" pt_clust_5="83.32574" pt_clust_6="40.95295"></scales>
<clustering>
<clus scale="   40.197">  2  3  1 -1</clus>
<clus scale="   40.953">  2  6  1 -1</clus>
<clus scale="   83.326">  2  5  1 -1</clus>
<clus scale="   83.326">  1  3  2 -1</clus>
</clustering>
</event>
<event>
 6    0  0.3042851E+002  0.1353039E+03  0.7546771E-02  0.1219791E+00
         21   -1    0    0  506  501  0.00000000000E+00  0.00000000000E+00  0.27310185404E+03  0.27310185404E+03  0.00000000000E+00 0. -1.
         21   -1    0    0  505  502 -0.00000000000E+00 -0.00000000000E+00 -0.34411246319E+03  0.34411246319E+03  0.00000000000E+00 0. -1.
         21    1    1    2  503  504  0.12210339955E+03  0.13884256098E+02  0.14556479285E+02  0.12374935895E+03  0.00000000000E+00 0. -1.
         21    1    1    2  504  501 -0.13546260063E+03 -0.42662112657E+02  0.16645083263E+03  0.21880596818E+03  0.00000000000E+00 0. -1.
         21    1    1    2  505  503 -0.34524477538E+02  0.85594962868E+00 -0.29745335574E+02  0.45579131052E+02  0.00000000000E+00 0.  1.
         21    1    1    2  506  502  0.47883678614E+02  0.27921906930E+02 -0.22227258549E+03  0.22907985906E+03  0.00000000000E+00 0. -1.
<scales pt_clust_3="14000.00000" pt_clust_4="135.30394" pt_clust_5="34.53509" pt_clust_6="36.32690"></scales>
<clustering>
<clus scale="   34.535">  2  5  1 -1</clus>
<clus scale="   36.327">  2  6  1 -1</clus>
<clus scale="  135.304">  1  4  2 -1</clus>
<clus scale="  135.304">  1  3  2 -1</clus>
</clustering>
</event>
<event>
 6    0  0.3042851E+002  0.1742387E+03  0.7546771E-02  0.1173498E+00
         21   -1    0    0  503  501  0.00000000000E+00  0.00000000000E+00  0.26513403632E+03  0.26513403632E+03  0.00000000000E+00 0. -1.
         21   -1    0    0  505  502 -0.00000000000E+00 -0.00000000000E+00 -0.45235534268E+03  0.45235534268E+03  0.00000000000E+00 0.  1.
         21    1    1    2  503  506 -0.19501298817E+02 -0.34037996065E+02  0.21157123480E+02  0.44570278277E+02  0.00000000000E+00 0. -1.
         21    1    1    2  504  501  0.29433450299E+02 -0.68344867367E+02 -0.13876965671E+03  0.15746227013E+03  0.00000000000E+00 0.  1.
         21    1    1    2  505  504  0.86290890196E+02 -0.45205905470E+02 -0.24695304227E+03  0.26547221456E+03  0.00000000000E+00 0.  1.
         21    1    1    2  506  502 -0.96223041677E+02  0.14758876890E+03  0.17734426913E+03  0.24998461603E+03  0.00000000000E+00 0. -1.
<scales pt_clust_3="39.22864" pt_clust_4="54.27627" pt_clust_5="54.27627" pt_clust_6="162.95225"></scales>
<clustering>
<clus scale="   39.229">  1  3  2 -1</clus>
<clus scale="   54.276">  4  5 -1 -1</clus>
<clus scale="  162.952">  1  6  2 -1</clus>
<clus scale="   39.229">  1  3  2 -1</clus>
</clustering>
</event>
<event>
 6    0  0.3042851E+002  0.2499311E+03  0.7546771E-02  0.1113348E+00
         21   -1    0    0  503  501  0.00000000000E+00  0.00000000000E+00  0.17829796260E+04  0.17829796260E+04  0.00000000000E+00 0. -1.
         21   -1    0    0  506  502 -0.00000000000E+00 -0.00000000000E+00 -0.57694760972E+03  0.57694760972E+03  0.00000000000E+00 0.  1.
         21    1    1    2  503  502 -0.70847238894E+02 -0.49213829403E+01 -0.44263615361E+03  0.44829712887E+03  0.00000000000E+00 0.  1.
         21    1    1    2  504  501  0.16117973335E+02 -0.52305944827E+02  0.31058732067E+03  0.31537308809E+03  0.00000000000E+00 0. -1.
         21    1    1    2  505  504  0.16101687712E+03 -0.11456938572E+03  0.13765045828E+04  0.13906176489E+04  0.00000000000E+00 0. -1.
         21    1    1    2  506  505 -0.10628761156E+03  0.17179671349E+03 -0.38423733613E+02  0.20563936987E+03  0.00000000000E+00 0.  1.
<scales pt_clust_3="71.01796" pt_clust_4="36.84361" pt_clust_5="36.84361" pt_clust_6="239.92579"></scales>
<clustering>
<clus scale="   36.844">  4  5 -1 -1</clus>
<clus scale="   71.018">  2  3  1 -1</clus>
<clus scale="  239.926">  2  6  1 -1</clus>
<clus scale="  249.931">  1  3  2 -1</clus>
</clustering>
</event>
<event>
 6    0  0.3042851E+002  0.2060318E+03  0.7546771E-02  0.1144747E+00
         21   -1    0    0  503  501  0.00000000000E+00  0.00000000000E+00  0.41680031979E+03  0.41680031979E+03  0.00000000000E+00 0.  1.
         21   -1    0    0  506  502 -0.00000000000E+00 -0.00000000000E+00 -0.15656943971E+03  0.15656943971E+03  0.00000000000E+00 0.  1.
         21    1    1    2  503  502 -0.17361858203E+03  0.40841897471E+01  0.27101800403E+03  0.32188639477E+03  0.00000000000E+00 0.  1.
         21    1    1    2  504  505  0.14929903255E+03 -0.45393584412E+02 -0.71922112678E+00  0.15604901764E+03  0.00000000000E+00 0.  1.
         21    1    1    2  505  501 -0.23413652027E+02  0.23944849993E+02  0.17345891987E+02  0.37715181443E+02  0.00000000000E+00 0. -1.
         21    1    1    2  506  504  0.47733201502E+02  0.17364544672E+02 -0.27413794805E+02  0.57719165647E+02  0.00000000000E+00 0.  1.
<scales pt_clust_3="192.74612" pt_clust_4="42.10594" pt_clust_5="33.48962" pt_clust_6="42.10594"></scales>
<clustering>
<clus scale="   33.490">  1  5  2 -1</clus>
<clus scale="   42.106">  4  6 -1 -1</clus>
<clus scale="  192.746">  1  3  2 -1</clus>
<clus scale="   33.490">  1  3  2 -1</clus>
</clustering>
</event>
<event>
 6    0  0.3042851E+002  0.1037801E+03  0.7546771E-02  0.1272542E+00
         21   -1    0    0  504  501  0.00000000000E+00  0.00000000000E+00  0.13366139086E+04  0.13366139086E+04  0.00000000000E+00 0. -1.
         21   -1    0    0  505  502 -0.00000000000E+00 -0.00000000000E+00 -0.39656613095E+02  0.39656613095E+02  0.00000000000E+00 0.  1.
         21    1    1    2  503  506 -0.24930812946E+02 -0.30739580950E+02  0.12905131180E+03  0.13498410406E+03  0.00000000000E+00 0.  1.
         21    1    1    2  504  503  0.49036243360E+02  0.10370894278E+02  0.10034923308E+04  0.10047432342E+04  0.00000000000E+00 0. -1.
         21    1    1    2  505  501  0.59964358100E+02  0.46926257866E+02  0.46165626162E+02  0.89045285998E+02  0.00000000000E+00 0.  1.
         21    1    1    2  506  502 -0.84069788513E+02 -0.26557571194E+02  0.11824802667E+03  0.14749789741E+03  0.00000000000E+00 0.  1.
<scales pt_clust_3="39.49677" pt_clust_4="50.12094" pt_clust_5="85.41250" pt_clust_6="39.49677"></scales>
<clustering>
<clus scale="   39.497">  3  6 -1 -1</clus>
<clus scale="   50.121">  1  4  2 -1</clus>
<clus scale="   85.412">  2  5  1 -1</clus>
<clus scale="   50.121">  1  3  2 -1</clus>
</clustering>
</event>
<event>
 6    0  0.3042851E+002  0.1602519E+03  0.7546771E-02  0.1188413E+00
         21   -1    0    0  506  501  0.00000000000E+00  0.00000000000E+00  0.19375930896E+03  0.19375930896E+03  0.00000000000E+00 0.  1.
         21   -1    0    0  503  502 -0.00000000000E+00 -0.00000000000E+00 -0.14352134116E+03  0.14352134116E+03  0.00000000000E+00 0.  1.
         21    1    1    2  503  505  0.17465153545E+02  0.72497320561E+02  0.62546807269E+01  0.74833241998E+02  0.00000000000E+00 0.  1.
         21    1    1    2  504  502 -0.11586736771E+02 -0.79722411389E+02 -0.34807134322E+02  0.87757916717E+02  0.00000000000E+00 0.  1.
         21    1    1    2  505  501  0.23639861079E+02  0.65152841474E+02  0.84657399236E+02  0.10941028758E+03  0.00000000000E+00 0.  1.
         21    1    1    2  506  504 -0.29518277853E+02 -0.57927750646E+02 -0.58669778344E+01  0.65279203819E+02  0.00000000000E+00 0.  1.
<scales pt_clust_3="68.46583" pt_clust_4="147.53297" pt_clust_5="68.46583" pt_clust_6="30.18236"></scales>
<clustering>
<clus scale="   30.182">  4  6 -1 -1</clus>
<clus scale="   68.466">  3  5 -1 -1</clus>
<clus scale="  147.533">  2  4  1 -1</clus>
<clus scale="  160.252">  1  3  2 -1</clus>
</clustering>
</event>
<event>
 6    0  0.3042851E+002  0.1302710E+03  0.7546771E-02  0.1227054E+00
         21   -1    0    0  505  501  0.00000000000E+00  0.00000000000E+00  0.20267308638E+04  0.20267308638E+04  0.00000000000E+00 0. -1.
         21   -1    0    0  504  502 -0.00000000000E+00 -0.00000000000E+00 -0.26272816238E+02  0.26272816238E+02  0.00000000000E+00 0. -1.
         21    1    1    2  503  502  0.94098427121E+02 -0.24188916630E+02  0.43770604047E+03  0.44835944903E+03  0.00000000000E+00 0. -1.
         21    1    1    2  504  506 -0.15399315911E+03  0.21415141224E+02  0.31478763355E+03  0.35108938401E+03  0.00000000000E+00 0. -1.
         21    1    1    2  505  503  0.79586913571E+02 -0.20809306701E+02  0.10503448227E+04  0.10535612705E+04  0.00000000000E+00 0. -1.
         21    1    1    2  506  501 -0.19692181580E+02  0.23583082107E+02  0.19761955076E+03  0.19999357644E+03  0.00000000000E+00 0.  1.
<scales pt_clust_3="14000.00000" pt_clust_4="130.27098" pt_clust_5="68.63690" pt_clust_6="30.72367"></scales>
<clustering>
<clus scale="   30.724">  1  6  2 -1</clus>
<clus scale="   68.637">  1  5  2 -1</clus>
<clus scale="  130.271">  2  4  1 -1</clus>
<clus scale="   30.724">  1  3  2 -1</clus>
</clustering>
</event>
<event>
 6    0  0.3042851E+002  0.6706887E+02  0.7546771E-02  0.1370354E+00
         21   -1    0    0  506  501  0.00000000000E+00  0.00000000000E+00  0.96093056260E+02  0.96093056260E+02  0.00000000000E+00 0. -1.
         21   -1    0    0  505  502 -0.00000000000E+00 -0.00000000000E+00 -0.40775838090E+03  0.40775838090E+03  0.00000000000E+00 0. -1.
         21    1    1    2  503  501 -0.41272290441E+02  0.19085574115E+02  0.30055041752E+02  0.54506574212E+02  0.00000000000E+00 0. -1.
         21    1    1    2  504  502  0.65748097612E+02 -0.34374639322E+02 -0.15459512725E+03  0.17147618359E+03  0.00000000000E+00 0. -1.
         21    1    1    2  505  503 -0.37024925220E+01  0.75547875940E+02 -0.19912772845E+03  0.21300948863E+03  0.00000000000E+00 0. -1.
         21    1    1    2  506  504 -0.20773314649E+02 -0.60258810732E+02  0.12002489308E+02  0.64859190728E+02  0.00000000000E+00 0. -1.
<scales pt_clust_3="45.47154" pt_clust_4="67.06887" pt_clust_5="65.70192" pt_clust_6="14000.00000"></scales>
<clustering>
<clus scale="   45.472">  1  3  2 -1</clus>
<clus scale="   67.069">  2  4  1 -1</clus>
<clus scale="   65.702">  2  5  1 -1</clus>
<clus scale="   45.472">  1  3  2 -1</clus>
</clustering>
</event>
<event>
 6    0  0.3042851E+002  0.1210619E+03  0.7546771E-02  0.1241356E+00
         21   -1    0    0  506  501  0.00000000000E+00  0.00000000000E+00  0.77550304367E+02  0.77550304367E+02  0.00000000000E+00 0. -1.
         21   -1    0    0  503  502 -0.00000000000E+00 -0.00000000000E+00 -0.38781622622E+03  0.38781622622E+03  0.00000000000E+00 0. -1.
         21    1    1    2  503  505 -0.18286602762E+02  0.56807073845E+02 -0.17165509003E+03  0.18173308287E+03  0.00000000000E+00 0. -1.
         21    1    1    2  504  501  0.97761853583E+02 -0.78241939191E+02 -0.17562864419E+02  0.12644222108E+03  0.00000000000E+00 0. -1.
         21    1    1    2  505  504 -0.49434355306E+02  0.28759773345E+02 -0.11067159031E+03  0.12457560335E+03  0.00000000000E+00 0. -1.
         21    1    1    2  506  502 -0.30040895516E+02 -0.73249079982E+01 -0.10376377091E+02  0.32615623282E+02  0.00000000000E+00 0. -1.
<scales pt_clust_3="46.86982" pt_clust_4="111.56671" pt_clust_5="46.86982" pt_clust_6="30.92102"></scales>
<clustering>
<clus scale="   30.921">  1  6  2 -1</clus>
<clus scale="   46.870">  3  5 -1 -1</clus>
<clus scale="  111.567">  1  4  2 -1</clus>
<clus scale="   30.921">  1  3  2 -1</clus>
</clustering>
</event>
<event>
 6    0  0.3042851E+002  0.1494393E+03  0.7546771E-02  0.1201164E+00
         21   -1    0    0  504  501  0.00000000000E+00  0.00000000000E+00  0.77352283639E+03  0.77352283639E+03  0.00000000000E+00 0.  1.
         21   -1    0    0  503  502 -0.00000000000E+00 -0.00000000000E+00 -0.34848596451E+03  0.34848596451E+03  0.00000000000E+00 0. -1.
         21    1    1    2  503  506 -0.65130119522E+02  0.43815256650E+02 -0.22481561057E+03  0.23812552979E+03  0.00000000000E+00 0. -1.
         21    1    1    2  504  505  0.11848343237E+03 -0.15342449763E+03  0.43040900402E+03  0.47204799646E+03  0.00000000000E+00 0.  1.
         21    1    1    2  505  502  0.28217883834E+02  0.16857590081E+02 -0.80771484921E+02  0.87203555476E+02  0.00000000000E+00 0.  1.
         21    1    1    2  506  501 -0.81571196678E+02  0.92751650898E+02  0.30021496335E+03  0.32463171917E+03  0.00000000000E+00 0.  1.
<scales pt_clust_3="71.17054" pt_clust_4="14000.00000" pt_clust_5="32.86985" pt_clust_6="149.43928"></scales>
<clustering>
<clus scale="   32.870">  2  5  1 -1</clus>
<clus scale="   71.171">  2  3  1 -1</clus>
<clus scale="  149.439">  1  6  2 -1</clus>
<clus scale="  149.439">  1  3  2 -1</clus>
</clustering>
</event>
<event>
 6    0  0.3042851E+002  0.1636805E+03  0.7546771E-02  0.1184603E+00
         21   -1    0    0  504  501  0.00000000000E+00  0.00000000000E+00  0.18744544800E+03  0.18744544800E+03  0.00000000000E+00 0.  1.
         21   -1    0    0  505  502 -0.00000000000E+00 -0.00000000000E+00 -0.20267687556E+03  0.20267687556E+03  0.00000000000E+00 0.  1.
         21    1    1    2  503  502  0.13132578236E+03 -0.29687000158E+02 -0.26558946738E+02  0.13723394894E+03  0.00000000000E+00 0.  1.
         21    1    1    2  504  503  0.17618103713E+02 -0.29394986261E+02  0.60457866899E+02  0.69495442050E+02  0.00000000000E+00 0.  1.
         21    1    1    2  505  506 -0.77150901893E+02  0.55891571359E+02 -0.57129705248E+02  0.11108524940E+03  0.00000000000E+00 0.  1.
         21    1    1    2  506  501 -0.71792984175E+02  0.31904150598E+01  0.79993575257E+01  0.72307683173E+02  0.00000000000E+00 0.  1.
<scales pt_clust_3="145.76378" pt_clust_4="34.27044" pt_clust_5="64.50717" pt_clust_6="64.50717"></scales>
<clustering>
<clus scale="   34.270">  1  4  2 -1</clus>
<clus scale="   64.507">  5  6 -1 -1</clus>
<clus scale="  145.764">  2  3  1 -1</clus>
<clus scale="   34.270">  1  3  2 -1</clus>
</clustering>
</event>
<event>
 6    0  0.3042851E+002  0.1105662E+03  0.7546771E-02  0.1259525E+00
         21   -1    0    0  506  501  0.00000000000E+00  0.00000000000E+00  0.46871499880E+03  0.46871499880E+03  0.00000000000E+00 0.  1.
         21   -1    0    0  504  502 -0.00000000000E+00 -0.00000000000E+00 -0.44216409225E+03  0.44216409225E+03  0.00000000000E+00 0.  1.
         21    1    1    2  503  505  0.10560108617E+02  0.74389110539E+02 -0.12913248591E+03  0.14940031653E+03  0.00000000000E+00 0.  1.
         21    1    1    2  504  501 -0.65751418965E+02 -0.10476406888E+03  0.40835499428E+03  0.42667617766E+03  0.00000000000E+00 0.  1.
         21    1    1    2  505  502  0.21863131959E+02  0.35289038433E+02 -0.28506193942E+03  0.28806878012E+03  0.00000000000E+00 0.  1.
         21    1    1    2  506  503  0.33328178390E+02 -0.49140800886E+01  0.32390337603E+02  0.46733816749E+02  0.00000000000E+00 0.  1.
<scales pt_clust_3="110.56621" pt_clust_4="14000.00000" pt_clust_5="41.55980" pt_clust_6="33.68851"></scales>
<clustering>
<clus scale="   33.689">  1  6  2 -1</clus>
<clus scale="   41.560">  2  5  1 -1</clus>
<clus scale="  110.566">  2  3  1 -1</clus>
<clus scale="   33.689">  1  3  2 -1</clus>
</clustering>
</event>
<event>
 6    0  0.3042851E+002  0.4098289E+03  0.7546771E-02  0.1040428E+00
         21   -1    0    0  502  501  0.00000000000E+00  0.00000000000E+00  0.13403691023E+04  0.13403691023E+04  0.00000000000E+00 0. -1.
         21   -1    0    0  504  502 -0.00000000000E+00 -0.00000000000E+00 -0.11892740107E+03  0.11892740107E+03  0.00000000000E+00 0. -1.
         21    1    1    2  503  506  0.23030795775E+03  0.19016845225E+03  0.41551270903E+03  0.51171926581E+03  0.00000000000E+00 0. -1.
         21    1    1    2  504  503  0.83606149652E+02  0.25812236782E+02  0.11945499413E+03  0.14807347990E+03  0.00000000000E+00 0. -1.
         21    1    1    2  505  501 -0.24094757191E+03 -0.23124253634E+03  0.53494164939E+03  0.63062779139E+03  0.00000000000E+00 0. -1.
         21    1    1    2  506  505 -0.72966535500E+02  0.15261847308E+02  0.15153234866E+03  0.16887596625E+03  0.00000000000E+00 0.  1.
<scales pt_clust_3="386.18134" pt_clust_4="34.00172" pt_clust_5="71.29276" pt_clust_6="71.29276"></scales>
<clustering>
<clus scale="   34.002">  3  4 -1 -1</clus>
<clus scale="   71.293">  5  6 -1 -1</clus>
<clus scale="  386.181">  2  3  1 -1</clus>
<clus scale="  409.829">  1  3  2 -1</clus>
</clustering>
</event>
<event>
 6    0  0.3042851E+002  0.1691550E+03  0.7546771E-02  0.1178732E+00
         21   -1    0    0  505  501  0.00000000000E+00  0.00000000000E+00  0.80901595632E+02  0.80901595632E+02  0.00000000000E+00 0.  1.
         21   -1    0    0  504  502 -0.00000000000E+00 -0.00000000000E+00 -0.44296574750E+03  0.44296574750E+03  0.00000000000E+00 0.  1.
         21    1    1    2  503  502 -0.25877275325E+02 -0.55592041554E+02 -0.11962548753E+03  0.13442606045E+03  0.00000000000E+00 0.  1.
         21    1    1    2  504  501  0.46169531505E+02  0.14070927442E+03 -0.13051241747E+03  0.19739355780E+03  0.00000000000E+00 0.  1.
         21    1    1    2  505  506 -0.19259466862E+02  0.27250811830E+02  0.10514818177E+00  0.33369819678E+02  0.00000000000E+00 0.  1.
         21    1    1    2  506  503 -0.10327893171E+01 -0.11236804469E+03 -0.11203139505E+03  0.15867790520E+03  0.00000000000E+00 0.  1.
<scales pt_clust_3="43.77727" pt_clust_4="159.06961" pt_clust_5="33.36965" pt_clust_6="43.77727"></scales>
<clustering>
<clus scale="   33.370">  1  5  2 -1</clus>
<clus scale="   43.777">  3  6 -1 -1</clus>
<clus scale="  159.070">  1  4  2 -1</clus>
<clus scale="   33.370">  1  3  2 -1</clus>
</clustering>
</event>
<event>
 6    0  0.3042851E+002  0.2185929E+03  0.7546771E-02  0.1134936E+00
         21   -1    0    0  504  501  0.00000000000E+00  0.00000000000E+00  0.31068821751E+03  0.31068821751E+03  0.00000000000E+00 0.  1.
         21   -1    0    0  505  502 -0.00000000000E+00 -0.00000000000E+00 -0.68175605094E+03  0.68175605094E+03  0.00000000000E+00 0. -1.
         21    1    1    2  503  506 -0.10632930874E+03  0.68421007266E+01  0.86742686472E+02  0.13739370399E+03  0.00000000000E+00 0.  1.
         21    1    1    2  504  502  0.73408088531E+02  0.70006369843E+02 -0.29536203089E+03  0.31229532269E+03  0.00000000000E+00 0. -1.
         21    1    1    2  505  503  0.13311697594E+03 -0.13337848609E+03 -0.30564741692E+03  0.35906864706E+03  0.00000000000E+00 0. -1.
         21    1    1    2  506  501 -0.10019575573E+03  0.56530015516E+02  0.14319892791E+03  0.18368659471E+03  0.00000000000E+00 0.  1.
<scales pt_clust_3="57.34660" pt_clust_4="101.43786" pt_clust_5="210.31418" pt_clust_6="57.34660"></scales>
<clustering>
<clus scale="   57.347">  3  6 -1 -1</clus>
<clus scale="  101.438">  2  4  1 -1</clus>
<clus scale="  210.314">  2  5  1 -1</clus>
<clus scale="  218.593">  1  3  2 -1</clus>
</clustering>
</event>
<event>
 6    0  0.3042851E+002  0.1148868E+03  0.7546771E-02  0.1251779E+00
         21   -1    0    0  504  501  0.00000000000E+00  0.00000000000E+00  0.19238268999E+03  0.19238268999E+03  0.00000000000E+00 0. -1.
         21   -1    0    0  505  502 -0.00000000000E+00 -0.00000000000E+00 -0.13965690729E+04  0.13965690729E+04  0.00000000000E+00 0. -1.
         21    1    1    2  503  501  0.58862133014E+02 -0.99144706363E+02  0.54988213607E+02  0.12774242498E+03  0.00000000000E+00 0. -1.
         21    1    1    2  504  506 -0.40826710951E+02 -0.17083092253E+02  0.90362452757E+02  0.10061821523E+03  0.00000000000E+00 0. -1.
         21    1    1    2  505  503  0.30514265602E+02  0.71467270960E+02 -0.10906539381E+04  0.10934188145E+04  0.00000000000E+00 0. -1.
         21    1    1    2  506  502 -0.48549687665E+02  0.44760527656E+02 -0.25888311124E+03  0.26717230824E+03  0.00000000000E+00 0. -1.
<scales pt_clust_3="114.88681" pt_clust_4="44.25666" pt_clust_5="14000.00000" pt_clust_6="66.84547"></scales>
<clustering>
<clus scale="   44.257">  1  4  2 -1</clus>
<clus scale="   66.845">  2  6  1 -1</clus>
<clus scale="  114.887">  1  3  2 -1</clus>
<clus scale="   44.257">  1  3  2 -1</clus>
</clustering>
</event>
<event>
 6    0  0.3042851E+002  0.9788433E+02  0.7546771E-02  0.1284809E+00
         21   -1    0    0  503  501  0.00000000000E+00  0.00000000000E+00  0.45188854112E+03  0.45188854112E+03  0.00000000000E+00 0.  1.
         21   -1    0    0  501  502 -0.00000000000E+00 -0.00000000000E+00 -0.20914888306E+03  0.20914888306E+03  0.00000000000E+00 0.  1.
         21    1    1    2  503  505  0.60941202839E+01  0.10809243719E+03  0.32474969197E+03  0.34232072054E+03  0.00000000000E+00 0.  1.
         21    1    1    2  504  506 -0.14483669738E+02 -0.38417580442E+02 -0.10878837354E+03  0.11627810367E+03  0.00000000000E+00 0.  1.
         21    1    1    2  505  504  0.38160986719E+02 -0.77256156213E+02  0.94613707584E+02  0.12797081012E+03  0.00000000000E+00 0.  1.
         21    1    1    2  506  502 -0.29771437265E+02  0.75812994655E+01 -0.67835367958E+02  0.74467789845E+02  0.00000000000E+00 0.  1.
<scales pt_clust_3="97.88433" pt_clust_4="50.41393" pt_clust_5="14000.00000" pt_clust_6="30.72157"></scales>
<clustering>
<clus scale="   30.722">  2  6  1 -1</clus>
<clus scale="   50.414">  2  4  1 -1</clus>
<clus scale="   97.884">  1  3  2 -1</clus>
<clus scale="   97.884">  1  3  2 -1</clus>
</clustering>
</event>
<event>
 6    0  0.3042851E+002  0.2657379E+03  0.7546771E-02  0.1103744E+00
         21   -1    0    0  503  501  0.00000000000E+00  0.00000000000E+00  0.48979967228E+03  0.48979967228E+03  0.00000000000E+00 0.  1.
         21   -1    0    0  506  502 -0.00000000000E+00 -0.00000000000E+00 -0.51110418761E+03  0.51110418761E+03  0.00000000000E+00 0.  1.
         21    1    1    2  503  502 -0.45732235771E+02  0.42608788872E+02  0.10240832874E+02  0.63338936963E+02  0.00000000000E+00 0.  1.
         21    1    1    2  504  501 -0.20329943649E+03  0.47791813675E+02  0.38662569323E+03  0.43942478878E+03  0.00000000000E+00 0.  1.
         21    1    1    2  505  504  0.10263637643E+03 -0.64925461531E+02 -0.20537607008E+03  0.23859771894E+03  0.00000000000E+00 0.  1.
         21    1    1    2  506  505  0.14639529584E+03 -0.25475141016E+02 -0.21279497136E+03  0.25954241520E+03  0.00000000000E+00 0.  1.
<scales pt_clust_3="62.50557" pt_clust_4="259.86357" pt_clust_5="50.23399" pt_clust_6="50.23399"></scales>
<clustering>
<clus scale="   50.234">  5  6 -1 -1</clus>
<clus scale="   62.506">  1  3  2 -1</clus>
<clus scale="  259.864">  1  4  2 -1</clus>
<clus scale="   62.506">  1  3  2 -1</clus>
</clustering>
</event>
<event>
 6    0  0.3042851E+002  0.1839867E+03  0.7546771E-02  0.1163999E+00
         21   -1    0    0  504  501  0.00000000000E+00  0.00000000000E+00  0.52892083561E+02  0.52892083561E+02  0.00000000000E+00 0. -1.
         21   -1    0    0  505  502 -0.00000000000E+00 -0.00000000000E+00 -0.82720165299E+03  0.82720165299E+03  0.00000000000E+00 0. -1.
         21    1    1    2  503  506 -0.53305552753E+02 -0.86808635956E+02 -0.14998970866E+03  0.18131225534E+03  0.00000000000E+00 0. -1.
         21    1    1    2  504  503  0.14769683345E+02 -0.34877885609E+02 -0.17049076995E+02  0.41536507762E+02  0.00000000000E+00 0. -1.
         21    1    1    2  505  501  0.78250820729E+02  0.16898508852E+03 -0.40515032660E+03  0.44589902246E+03  0.00000000000E+00 0. -1.
         21    1    1    2  506  502 -0.39714951321E+02 -0.47298566953E+02 -0.20212045717E+03  0.21134595100E+03  0.00000000000E+00 0. -1.
<scales pt_clust_3="45.25792" pt_clust_4="37.87625" pt_clust_5="174.03959" pt_clust_6="45.25792"></scales>
<clustering>
<clus scale="   37.876">  1  4  2 -1</clus>
<clus scale="   45.258">  3  6 -1 -1</clus>
<clus scale="  174.040">  1  5  2 -1</clus>
<clus scale="   37.876">  1  3  2 -1</clus>
</clustering>
</event>
<event>
 6    0  0.3042851E+002  0.1233148E+03  0.7546771E-02  0.1237727E+00
         21   -1    0    0  506  501  0.00000000000E+00  0.00000000000E+00  0.27625105737E+03  0.27625105737E+03  0.00000000000E+00 0. -1.
         21   -1    0    0  501  502 -0.00000000000E+00 -0.00000000000E+00 -0.11647485609E+03  0.11647485609E+03  0.00000000000E+00 0. -1.
         21    1    1    2  503  505 -0.82244142336E+02 -0.19927830265E+02 -0.21912806521E+02  0.87415035647E+02  0.00000000000E+00 0. -1.
         21    1    1    2  504  503  0.64453020020E+02  0.68930542398E+02  0.16900364639E+03  0.19356612296E+03  0.00000000000E+00 0. -1.
         21    1    1    2  505  502 -0.22077303072E+02 -0.34471606855E+02 -0.30615778635E+02  0.51117755150E+02  0.00000000000E+00 0.  1.
         21    1    1    2  506  504  0.39868425387E+02 -0.14531105278E+02  0.43301140039E+02  0.60626999695E+02  0.00000000000E+00 0. -1.
<scales pt_clust_3="35.39460" pt_clust_4="112.32420" pt_clust_5="35.39460" pt_clust_6="42.43400"></scales>
<clustering>
<clus scale="   35.395">  3  5 -1 -1</clus>
<clus scale="   42.434">  1  6  2 -1</clus>
<clus scale="  112.324">  1  4  2 -1</clus>
<clus scale="   42.434">  1  3  2 -1</clus>
</clustering>
</event>
<event>
 6    0  0.3042851E+002  0.8985117E+02  0.7546771E-02  0.1303212E+00
         21   -1    0    0  506  501  0.00000000000E+00  0.00000000000E+00  0.50237729286E+02  0.50237729286E+02  0.00000000000E+00 0.  1.
         21   -1    0    0  505  502 -0.00000000000E+00 -0.00000000000E+00 -0.51867124531E+03  0.51867124531E+03  0.00000000000E+00 0.  1.
         21    1    1    2  503  504  0.27558189706E+02 -0.73570174975E+02 -0.17013968352E+03  0.18740207142E+03  0.00000000000E+00 0.  1.
         21    1    1    2  504  502 -0.27025633277E+02 -0.27068267101E+02 -0.18889482445E+03  0.19272864510E+03  0.00000000000E+00 0.  1.
         21    1    1    2  505  501 -0.40885072544E+02 -0.13949887347E+01 -0.13574276215E+02  0.43102159171E+02  0.00000000000E+00 0.  1.
         21    1    1    2  506  503  0.40352516115E+02  0.10203343081E+03 -0.95824731848E+02  0.14567609891E+03  0.00000000000E+00 0.  1.
<scales pt_clust_3="89.85117" pt_clust_4="38.25018" pt_clust_5="43.38206" pt_clust_6="14000.00000"></scales>
<clustering>
<clus scale="   38.250">  2  4  1 -1</clus>
<clus scale="   43.382">  1  5  2 -1</clus>
<clus scale="   89.851">  2  3  1 -1</clus>
<clus scale="   43.382">  1  3  2 -1</clus>
</clustering>
</event>
<event>
 6    0  0.3042851E+002  0.1185170E+03  0.7546771E-02  0.1245564E+00
         21   -1    0    0  503  501  0.00000000000E+00  0.00000000000E+00  0.22846609727E+03  0.22846609727E+03  0.00000000000E+00 0. -1.
         21   -1    0    0  506  502 -0.00000000000E+00 -0.00000000000E+00 -0.18967666165E+03  0.18967666165E+03  0.00000000000E+00 0. -1.
         21    1    1    2  503  502  0.31924940666E+02 -0.42770599348E+02  0.62585276690E+02  0.82252312207E+02  0.00000000000E+00 0. -1.
         21    1    1    2  504  501  0.94402119426E+02  0.79776579824E+02  0.87980362623E+02  0.15171225082E+03  0.00000000000E+00 0. -1.
         21    1    1    2  505  504 -0.10633174085E+03 -0.87590645473E+01 -0.61517768398E+02  0.12315679499E+03  0.00000000000E+00 0. -1.
         21    1    1    2  506  505 -0.19995319242E+02 -0.28246915930E+02 -0.50258435294E+02  0.61021400912E+02  0.00000000000E+00 0. -1.
<scales pt_clust_3="54.20864" pt_clust_4="118.51704" pt_clust_5="14000.00000" pt_clust_6="34.60782"></scales>
<clustering>
<clus scale="   34.608">  2  6  1 -1</clus>
<clus scale="   54.209">  1  3  2 -1</clus>
<clus scale="  118.517">  1  4  2 -1</clus>
<clus scale="   54.209">  1  3  2 -1</clus>
</clustering>
</event>
<event>
 6    0  0.3042851E+002  0.1281512E+03  0.7546771E-02  0.1230225E+00
         21   -1    0    0  504  501  0.00000000000E+00  0.00000000000E+00  0.31850868912E+03  0.31850868912E+03  0.00000000000E+00 0. -1.
         21   -1    0    0  506  502 -0.00000000000E+00 -0.00000000000E+00 -0.10433562806E+03  0.10433562806E+03  0.00000000000E+00 0. -1.
         21    1    1    2  503  505  0.79843683539E+02 -0.19374628666E+02  0.44488001059E+01  0.82281114840E+02  0.00000000000E+00 0. -1.
         21    1    1    2  504  503 -0.74380145619E+02  0.81815873689E+01  0.17378221923E+03  0.18920783323E+03  0.00000000000E+00 0. -1.
         21    1    1    2  505  502  0.30756772003E+02 -0.47426600080E+02 -0.22659510626E+02  0.60899218722E+02  0.00000000000E+00 0. -1.
         21    1    1    2  506  501 -0.36220309922E+02  0.58619641377E+02  0.58601552354E+02  0.90456150395E+02  0.00000000000E+00 0. -1.
<scales pt_clust_3="48.88959" pt_clust_4="113.79204" pt_clust_5="48.88959" pt_clust_6="68.90699"></scales>
<clustering>
<clus scale="   48.890">  3  5 -1 -1</clus>
<clus scale="   68.907">  1  6  2 -1</clus>
<clus scale="  113.792">  1  4  2 -1</clus>
<clus scale="   68.907">  1  3  2 -1</clus>
</clustering>
</event>
<event>
 6    0  0.3042851E+002  0.1120088E+03  0.7546771E-02  0.1256894E+00
         21   -1    0    0  503  501  0.00000000000E+00  0.00000000000E+00  0.74922344326E+02  0.74922344326E+02  0.00000000000E+00 0. -1.
         21   -1    0    0  504  502 -0.00000000000E+00 -0.00000000000E+00 -0.85852134697E+03  0.85852134697E+03  0.00000000000E+00 0. -1.
         21    1    1    2  503  502 -0.71207472406E+02 -0.64251313094E+02 -0.58939665588E+03  0.59714918849E+03  0.00000000000E+00 0. -1.
         21    1    1    2  504  506 -0.54840884454E+02  0.10252126675E+02 -0.17074241416E+03  0.17962628066E+03  0.00000000000E+00 0. -1.
         21    1    1    2  505  501  0.48424359964E+02  0.30681143308E+02  0.24664902737E+02  0.62406799467E+02  0.00000000000E+00 0. -1.
         21    1    1    2  506  505  0.77623996896E+02  0.23318043111E+02 -0.48124835344E+02  0.94261422679E+02  0.00000000000E+00 0. -1.
<scales pt_clust_3="14000.00000" pt_clust_4="55.79094" pt_clust_5="56.20785" pt_clust_6="112.00883"></scales>
<clustering>
<clus scale="   55.791">  2  4  1 -1</clus>
<clus scale="   56.208">  1  5  2 -1</clus>
<clus scale="  112.009">  1  6  2 -1</clus>
<clus scale="   56.208">  1  3  2 -1</clus>
</clustering>
</event>
<event>
 6    0  0.3042851E+002  0.1162067E+03  0.7546771E-02  0.1249489E+00
         21   -1    0    0  503  501  0.00000000000E+00  0.00000000000E+00  0.33887920922E+03  0.33887920922E+03  0.00000000000E+00 0.  1.
         21   -1    0    0  505  502 -0.00000000000E+00 -0.00000000000E+00 -0.25897107335E+03  0.25897107335E+03  0.00000000000E+00 0.  1.
         21    1    1    2  503  502  0.59813573880E+02  0.58703078962E+02  0.21614872311E+02  0.86550088416E+02  0.00000000000E+00 0.  1.
         21    1    1    2  504  506 -0.14673968534E+03 -0.26016267766E+02 -0.13449932231E+03  0.20074722699E+03  0.00000000000E+00 0.  1.
         21    1    1    2  505  504  0.26339247731E+02 -0.51636007463E+02 -0.39236482575E+02  0.69996677083E+02  0.00000000000E+00 0.  1.
         21    1    1    2  506  501  0.60586863725E+02  0.18949196267E+02  0.23202906845E+03  0.24055629008E+03  0.00000000000E+00 0.  1.
<scales pt_clust_3="14000.00000" pt_clust_4="116.20667" pt_clust_5="57.96579" pt_clust_6="63.69508"></scales>
<clustering>
<clus scale="   57.966">  2  5  1 -1</clus>
<clus scale="   63.695">  1  6  2 -1</clus>
<clus scale="  116.207">  2  4  1 -1</clus>
<clus scale="   63.695">  1  3  2 -1</clus>
</clustering>
</event>
<event>
 6    0  0.3042851E+002  0.2390231E+03  0.7546771E-02  0.1120445E+00
         21   -1    0    0  506  501  0.00000000000E+00  0.00000000000E+00  0.51117852218E+03  0.51117852218E+03  0.00000000000E+00 0. -1.
         21   -1    0    0  501  502 -0.00000000000E+00 -0.00000000000E+00 -0.19990145894E+03  0.19990145894E+03  0.00000000000E+00 0.  1.
         21    1    1    2  503  505  0.51472075618E+02 -0.75536204410E+02  0.18075023537E+03  0.20254811856E+03  0.00000000000E+00 0. -1.
         21    1    1    2  504  502 -0.60314119480E+02  0.90920522781E+02 -0.49935634725E+02  0.11999125838E+03  0.00000000000E+00 0.  1.
         21    1    1    2  505  504 -0.44816324105E+02  0.12000145298E+03 -0.30988121146E+02  0.13179193934E+03  0.00000000000E+00 0.  1.
         21    1    1    2  506  503  0.53658367967E+02 -0.13538577135E+03  0.21145058375E+03  0.25674866485E+03  0.00000000000E+00 0. -1.
<scales pt_clust_3="31.60618" pt_clust_4="33.34783" pt_clust_5="238.42425" pt_clust_6="31.60618"></scales>
<clustering>
<clus scale="   31.606">  3  6 -1 -1</clus>
<clus scale="   33.348">  4  5 -1 -1</clus>
<clus scale="  238.424">  2  4  1 -1</clus>
<clus scale="  239.023">  1  3  2 -1</clus>
</clustering>
</event>
<event>
 6    0  0.3042851E+002  0.2238402E+03  0.7546771E-02  0.1131052E+00
         21   -1    0    0  506  501  0.00000000000E+00  0.00000000000E+00  0.20708336977E+04  0.20708336977E+04  0.00000000000E+00 0. -1.
         21   -1    0    0  504  502 -0.00000000000E+00 -0.00000000000E+00 -0.25281924831E+03  0.25281924831E+03  0.00000000000E+00 0.  1.
         21    1    1    2  503  501  0.41890041192E+02  0.28016071619E+02  0.96943900542E+03  0.97074799050E+03  0.00000000000E+00 0. -1.
         21    1    1    2  504  503  0.16868488040E+03 -0.61029113776E+02  0.10410796761E+04  0.10564213333E+04  0.00000000000E+00 0. -1.
         21    1    1    2  505  502 -0.31894942289E+02  0.32754858094E+02 -0.28016793716E+02  0.53620041053E+02  0.00000000000E+00 0.  1.
         21    1    1    2  506  505 -0.17867997930E+03  0.25818406321E+00 -0.16448743837E+03  0.24286358113E+03  0.00000000000E+00 0.  1.
<scales pt_clust_3="50.39520" pt_clust_4="211.40349" pt_clust_5="37.21570" pt_clust_6="37.21570"></scales>
<clustering>
<clus scale="   37.216">  5  6 -1 -1</clus>
<clus scale="   50.395">  1  3  2 -1</clus>
<clus scale="  211.403">  1  4  2 -1</clus>
<clus scale="   50.395">  1  3  2 -1</clus>
</clustering>
</event>
<event>
 6    0  0.3042851E+002  0.1363825E+03  0.7546771E-02  0.1218281E+00
         21   -1    0    0  504  501  0.00000000000E+00  0.00000000000E+00  0.16134793551E+04  0.16134793551E+04  0.00000000000E+00 0.  1.
         21   -1    0    0  503  502 -0.00000000000E+00 -0.00000000000E+00 -0.69697016134E+03  0.69697016134E+03  0.00000000000E+00 0.  1.
         21    1    1    2  503  505 -0.18794674520E+02  0.25410182548E+02 -0.23662479878E+02  0.39482022762E+02  0.00000000000E+00 0.  1.
         21    1    1    2  504  506 -0.11197249388E+03  0.18419355698E+02  0.11764780681E+04  0.11819381358E+04  0.00000000000E+00 0.  1.
         21    1    1    2  505  501 -0.17970872843E+02 -0.61072227558E+02  0.41544741948E+03  0.42029671376E+03  0.00000000000E+00 0.  1.
         21    1    1    2  506  502  0.14873804124E+03  0.17242689312E+02 -0.65175381398E+03  0.66873264410E+03  0.00000000000E+00 0.  1.
<scales pt_clust_3="31.60565" pt_clust_4="136.38255" pt_clust_5="63.59194" pt_clust_6="14000.00000"></scales>
<clustering>
<clus scale="   31.606">  2  3  1 -1</clus>
<clus scale="   63.592">  1  5  2 -1</clus>
<clus scale="  136.383">  1  4  2 -1</clus>
<clus scale="   63.592">  1  3  2 -1</clus>
</clustering>
</event>
<event>
 6    0  0.3042851E+002  0.8402608E+02  0.7546771E-02  0.1317999E+00
         21   -1    0    0  505  501  0.00000000000E+00  0.00000000000E+00  0.13131538950E+03  0.13131538950E+03  0.00000000000E+00 0. -1.
         21   -1    0    0  503  502 -0.00000000000E+00 -0.00000000000E+00 -0.85455676076E+03  0.85455676076E+03  0.00000000000E+00 0. -1.
         21    1    1    2  503  501  0.11985500367E+03 -0.13799464972E+02  0.72434124787E+02  0.14072082138E+03  0.00000000000E+00 0. -1.
         21    1    1    2  504  502 -0.43428766987E+02 -0.68723315954E+01 -0.22185981723E+03  0.22617485547E+03  0.00000000000E+00 0. -1.
         21    1    1    2  505  506 -0.39630201033E+02 -0.16303835309E+02 -0.58567664808E-01  0.42852903168E+02  0.00000000000E+00 0. -1.
         21    1    1    2  506  504 -0.36796035645E+02  0.36975631877E+02 -0.57375711115E+03  0.57612357024E+03  0.00000000000E+00 0. -1.
<scales pt_clust_3="14000.00000" pt_clust_4="44.78791" pt_clust_5="42.85286" pt_clust_6="84.02608"></scales>
<clustering>
<clus scale="   42.853">  1  5  2 -1</clus>
<clus scale="   44.788">  2  4  1 -1</clus>
<clus scale="   84.026">  2  6  1 -1</clus>
<clus scale="   42.853">  1  3  2 -1</clus>
</clustering>
</event>
<event>
 6    0  0.3042851E+002  0.9207780E+02  0.7546771E-02  0.1297897E+00
         21   -1    0    0  506  501  0.00000000000E+00  0.00000000000E+00  0.14831838333E+03  0.14831838333E+03  0.00000000000E+00 0. -1.
         21   -1    0    0  504  502 -0.00000000000E+00 -0.00000000000E+00 -0.24267289903E+03  0.24267289903E+03  0.00000000000E+00 0.  1.
         21    1    1    2  503  502 -0.34177839578E+01  0.53930079292E+02 -0.20495378280E+02  0.57794422140E+02  0.00000000000E+00 0. -1.
         21    1    1    2  504  505  0.11664624775E+02  0.71355363053E+02 -0.15343444271E+03  0.16961656617E+03  0.00000000000E+00 0.  1.
         21    1    1    2  505  501  0.21341496331E+02 -0.71290828274E+02  0.18126109558E+02  0.76592411565E+02  0.00000000000E+00 0. -1.
         21    1    1    2  506  503 -0.29588337149E+02 -0.53994614071E+02  0.61449195731E+02  0.86987882488E+02  0.00000000000E+00 0. -1.
<scales pt_clust_3="54.03827" pt_clust_4="14000.00000" pt_clust_5="92.07780" pt_clust_6="58.73400"></scales>
<clustering>
<clus scale="   54.038">  2  3  1 -1</clus>
<clus scale="   58.734">  1  6  2 -1</clus>
<clus scale="   92.078">  1  5  2 -1</clus>
<clus scale="   58.734">  1  3  2 -1</clus>
</clustering>
</event>
<event>
 6    0  0.3042851E+002  0.1619871E+03  0.7546771E-02  0.1186471E+00
         21   -1    0    0  505  501  0.00000000000E+00  0.00000000000E+00  0.44487116887E+03  0.44487116887E+03  0.00000000000E+00 0. -1.
         21   -1    0    0  506  502 -0.00000000000E+00 -0.00000000000E+00 -0.11318056131E+03  0.11318056131E+03  0.00000000000E+00 0. -1.
         21    1    1    2  503  504 -0.13841295052E+03 -0.37992408642E+02  0.58942701500E+02  0.15516381681E+03  0.00000000000E+00 0. -1.
         21    1    1    2  504  502  0.22539129866E+01 -0.40456370311E+02 -0.33518764999E+01  0.40657509744E+02  0.00000000000E+00 0.  1.
         21    1    1    2  505  503 -0.35708542008E+02 -0.12195532028E+00  0.90781159702E+02  0.97551698101E+02  0.00000000000E+00 0. -1.
         21    1    1    2  506  501  0.17186757954E+03  0.78570734273E+02  0.18531862286E+03  0.26467870553E+03  0.00000000000E+00 0. -1.
<scales pt_clust_3="14000.00000" pt_clust_4="40.46441" pt_clust_5="35.70875" pt_clust_6="161.98710"></scales>
<clustering>
<clus scale="   35.709">  1  5  2 -1</clus>
<clus scale="   40.464">  2  4  1 -1</clus>
<clus scale="  161.987">  1  6  2 -1</clus>
<clus scale="   35.709">  1  3  2 -1</clus>
</clustering>
</event>
<event>
 6    0  0.3042851E+002  0.1000730E+03  0.7546771E-02  0.1280143E+00
         21   -1    0    0  504  501  0.00000000000E+00  0.00000000000E+00  0.92095888235E+03  0.92095888235E+03  0.00000000000E+00 0. -1.
         21   -1    0    0  506  502 -0.00000000000E+00 -0.00000000000E+00 -0.14140489460E+04  0.14140489460E+04  0.00000000000E+00 0. -1.
         21    1    1    2  503  502 -0.10474931389E+03 -0.13983184535E+03 -0.11631832747E+04  0.11762315649E+04  0.00000000000E+00 0. -1.
         21    1    1    2  504  503 -0.53121073834E+00  0.11147522134E+03  0.82516036165E+03  0.83265636946E+03  0.00000000000E+00 0. -1.
         21    1    1    2  505  501  0.82893663940E+02 -0.57265762560E+02  0.42721422477E+02  0.10943421321E+03  0.00000000000E+00 0.  1.
         21    1    1    2  506  505  0.22386860692E+02  0.85622386572E+02 -0.19778857302E+03  0.21668568072E+03  0.00000000000E+00 0.  1.
<scales pt_clust_3="100.07295" pt_clust_4="14000.00000" pt_clust_5="99.94120" pt_clust_6="88.50065"></scales>
<clustering>
<clus scale="   88.501">  2  6  1 -1</clus>
<clus scale="   99.941">  1  5  2 -1</clus>
<clus scale="  100.073">  2  3  1 -1</clus>
<clus scale="   99.941">  1  3  2 -1</clus>
</clustering>
</event>
<event>
 6    0  0.3042851E+002  0.1222300E+03  0.7546771E-02  0.1239463E+00
         21   -1    0    0  503  501  0.00000000000E+00  0.00000000000E+00  0.47391963184E+03  0.47391963184E+03  0.00000000000E+00 0.  1.
         21   -1    0    0  504  502 -0.00000000000E+00 -0.00000000000E+00 -0.24897664692E+03  0.24897664692E+03  0.00000000000E+00 0. -1.
         21    1    1    2  503  502 -0.12250877684E+01 -0.82492671104E+02 -0.50313722414E+02  0.96633391171E+02  0.00000000000E+00 0. -1.
         21    1    1    2  504  505 -0.11359852363E+03  0.54193652840E+02 -0.14285009846E+03  0.19038835891E+03  0.00000000000E+00 0. -1.
         21    1    1    2  505  506  0.60772390242E+02  0.32285604480E+02  0.24505640199E+03  0.25453542746E+03  0.00000000000E+00 0.  1.
         21    1    1    2  506  501  0.54051221152E+02 -0.39865862163E+01  0.17305040380E+03  0.18133910123E+03  0.00000000000E+00 0.  1.
<scales pt_clust_3="82.50177" pt_clust_4="117.26959" pt_clust_5="30.58839" pt_clust_6="30.58839"></scales>
<clustering>
<clus scale="   30.588">  5  6 -1 -1</clus>
<clus scale="   82.502">  2  3  1 -1</clus>
<clus scale="  117.270">  2  4  1 -1</clus>
<clus scale="  122.230">  1  3  2 -1</clus>
</clustering>
</event>
<event>
 6    0  0.3042851E+002  0.2149500E+03  0.7546771E-02  0.1137705E+00
         21   -1    0    0  506  501  0.00000000000E+00  0.00000000000E+00  0.54160596318E+03  0.54160596318E+03  0.00000000000E+00 0.  1.
         21   -1    0    0  505  502 -0.00000000000E+00 -0.00000000000E+00 -0.34998601371E+03  0.34998601371E+03  0.00000000000E+00 0.  1.
         21    1    1    2  503  501 -0.74069033088E+02  0.21483586690E+03  0.13569323286E+03  0.26467588634E+03  0.00000000000E+00 0.  1.
         21    1    1    2  504  502 -0.21146440162E+02 -0.74098671315E+02 -0.14332738821E+03  0.16272837869E+03  0.00000000000E+00 0.  1.
         21    1    1    2  505  503 -0.10567990376E+02  0.40653043549E+02 -0.94318021853E+02  0.10324844607E+03  0.00000000000E+00 0.  1.
         21    1    1    2  506  504  0.10578346363E+03 -0.18139023913E+03  0.29357212667E+03  0.36093926579E+03  0.00000000000E+00 0.  1.
<scales pt_clust_3="214.94998" pt_clust_4="56.52165" pt_clust_5="42.00419" pt_clust_6="14000.00000"></scales>
<clustering>
<clus scale="   42.004">  2  5  1 -1</clus>
<clus scale="   56.522">  2  4  1 -1</clus>
<clus scale="  214.950">  2  3  1 -1</clus>
<clus scale="  214.950">  1  3  2 -1</clus>
</clustering>
</event>
<event>
 6    0  0.3042851E+002  0.1358019E+03  0.7546771E-02  0.1219092E+00
         21   -1    0    0  504  501  0.00000000000E+00  0.00000000000E+00  0.36421935470E+03  0.36421935470E+03  0.00000000000E+00 0.  1.
         21   -1    0    0  503  502 -0.00000000000E+00 -0.00000000000E+00 -0.16991392515E+03  0.16991392515E+03  0.00000000000E+00 0.  1.
         21    1    1    2  503  501  0.91411872453E+02 -0.32487207487E+02  0.11569481449E+03  0.15098622181E+03  0.00000000000E+00 0.  1.
         21    1    1    2  504  506  0.48762951866E+02  0.62341077412E+02  0.18459226321E+03  0.20084456438E+03  0.00000000000E+00 0.  1.
         21    1    1    2  505  502 -0.78953349955E+02 -0.25162642391E+01 -0.41290232183E+02  0.89133867461E+02  0.00000000000E+00 0.  1.
         21    1    1    2  506  505 -0.61221474364E+02 -0.27337605686E+02 -0.64691415963E+02  0.93168626196E+02  0.00000000000E+00 0.  1.
<scales pt_clust_3="130.30850" pt_clust_4="79.14692" pt_clust_5="35.22484" pt_clust_6="35.22484"></scales>
<clustering>
<clus scale="   35.225">  5  6 -1 -1</clus>
<clus scale="   79.147">  1  4  2 -1</clus>
<clus scale="  130.308">  1  3  2 -1</clus>
<clus scale="   79.147">  1  3  2 -1</clus>
</clustering>
</event>
<event>
 6    0  0.3042851E+002  0.1424891E+03  0.7546771E-02  0.1210018E+00
         21   -1    0    0  504  501  0.00000000000E+00  0.00000000000E+00  0.28593600929E+03  0.28593600929E+03  0.00000000000E+00 0. -1.
         21   -1    0    0  505  502 -0.00000000000E+00 -0.00000000000E+00 -0.27944066559E+03  0.27944066559E+03  0.00000000000E+00 0. -1.
         21    1    1    2  503  502 -0.64911613386E+02  0.67258581099E+02 -0.21178236984E+03  0.23149299440E+03  0.00000000000E+00 0. -1.
         21    1    1    2  504  506  0.89046104139E+02 -0.42208290247E+02  0.20500725414E+03  0.22746147515E+03  0.00000000000E+00 0. -1.
         21    1    1    2  505  501 -0.58326557986E+02 -0.83726788609E+01 -0.12806577454E+02  0.60300062553E+02  0.00000000000E+00 0. -1.
         21    1    1    2  506  503  0.34192067234E+02 -0.16677611991E+02  0.26077036854E+02  0.46122142779E+02  0.00000000000E+00 0.  1.
<scales pt_clust_3="132.32652" pt_clust_4="32.83566" pt_clust_5="58.92444" pt_clust_6="32.83566"></scales>
<clustering>
<clus scale="   32.836">  4  6 -1 -1</clus>
<clus scale="   58.924">  2  5  1 -1</clus>
<clus scale="  132.327">  2  3  1 -1</clus>
<clus scale="  142.489">  1  3  2 -1</clus>
</clustering>
</event>
<event>
 6    0  0.3042851E+002  0.1692200E+03  0.7546771E-02  0.1178664E+00
         21   -1    0    0  504  501  0.00000000000E+00  0.00000000000E+00  0.41854038301E+02  0.41854038301E+02  0.00000000000E+00 0.  1.
         21   -1    0    0  503  502 -0.00000000000E+00 -0.00000000000E+00 -0.12327000423E+04  0.12327000423E+04  0.00000000000E+00 0. -1.
         21    1    1    2  503  505 -0.14283897328E+03 -0.57223214548E+02 -0.69714227690E+03  0.71392214058E+03  0.00000000000E+00 0. -1.
         21    1    1    2  504  502 -0.53682722470E+02  0.26687398570E+02 -0.14416494974E+03  0.15613322730E+03  0.00000000000E+00 0. -1.
         21    1    1    2  505  506  0.81896254485E+02 -0.82373339916E+01 -0.13160324598E+03  0.15522327313E+03  0.00000000000E+00 0.  1.
         21    1    1    2  506  501  0.11462544126E+03  0.38773149970E+02 -0.21793553140E+03  0.24927543960E+03  0.00000000000E+00 0.  1.
<scales pt_clust_3="163.54440" pt_clust_4="59.95041" pt_clust_5="35.84237" pt_clust_6="35.84237"></scales>
<clustering>
<clus scale="   35.842">  5  6 -1 -1</clus>
<clus scale="   59.950">  1  4  2 -1</clus>
<clus scale="  163.544">  2  3  1 -1</clus>
<clus scale="   59.950">  1  3  2 -1</clus>
</clustering>
</event>
<event>
 6    0  0.3042851E+002  0.1431626E+03  0.7546771E-02  0.1209136E+00
         21   -1    0    0  506  501  0.00000000000E+00  0.00000000000E+00  0.99477954027E+02  0.99477954027E+02  0.00000000000E+00 0.  1.
         21   -1    0    0  505  502 -0.00000000000E+00 -0.00000000000E+00 -0.52679283957E+03  0.52679283957E+03  0.00000000000E+00 0.  1.
         21    1    1    2  503  504  0.39588573078E+02 -0.29005467429E+02 -0.96488937261E+02  0.10825288575E+03  0.00000000000E+00 0.  1.
         21    1    1    2  504  502  0.26916196122E+02 -0.95136680737E+02 -0.34276614145E+03  0.35674093872E+03  0.00000000000E+00 0.  1.
         21    1    1    2  505  501  0.24288871199E+01  0.67024679410E+02 -0.13062010343E+02  0.68328787907E+02  0.00000000000E+00 0. -1.
         21    1    1    2  506  503 -0.68933656320E+02  0.57117468755E+02  0.25002203514E+02  0.92948181215E+02  0.00000000000E+00 0.  1.
<scales pt_clust_3="41.32278" pt_clust_4="41.32278" pt_clust_5="67.06867" pt_clust_6="130.59655"></scales>
<clustering>
<clus scale="   41.323">  3  4 -1 -1</clus>
<clus scale="   67.069">  1  5  2 -1</clus>
<clus scale="  130.597">  1  6  2 -1</clus>
<clus scale="   67.069">  1  3  2 -1</clus>
</clustering>
</event>
<event>
 6    0  0.3042851E+002  0.8216767E+02  0.7546771E-02  0.1323010E+00
         21   -1    0    0  503  501  0.00000000000E+00  0.00000000000E+00  0.26069347836E+03  0.26069347836E+03  0.00000000000E+00 0.  1.
         21   -1    0    0  505  502 -0.00000000000E+00 -0.00000000000E+00 -0.30781553386E+03  0.30781553386E+03  0.00000000000E+00 0. -1.
         21    1    1    2  503  504 -0.30236933842E+02 -0.77215717118E+00  0.13614243543E+03  0.13946193430E+03  0.00000000000E+00 0.  1.
         21    1    1    2  504  502  0.72204625793E+02  0.41895716902E+02 -0.23696053118E+03  0.25123505412E+03  0.00000000000E+00 0. -1.
         21    1    1    2  505  506 -0.30637138336E+02 -0.89038607112E+02 -0.12846431538E+02  0.95034407480E+02  0.00000000000E+00 0.  1.
         21    1    1    2  506  501 -0.11330553615E+02  0.47915047381E+02  0.66542471798E+02  0.82777616320E+02  0.00000000000E+00 0.  1.
<scales pt_clust_3="30.24679" pt_clust_4="14000.00000" pt_clust_5="82.16767" pt_clust_6="55.97526"></scales>
<clustering>
<clus scale="   30.247">  1  3  2 -1</clus>
<clus scale="   55.975">  1  6  2 -1</clus>
<clus scale="   82.168">  1  5  2 -1</clus>
<clus scale="   30.247">  1  3  2 -1</clus>
</clustering>
</event>
<event>
 6    0  0.3101614E+002  0.6968071E+02  0.7546771E-02  0.1361182E+00
         21   -1    0    0  506  501  0.00000000000E+00  0.00000000000E+00  0.17243563644E+03  0.17243563644E+03  0.00000000000E+00 0. -1.
         21   -1    0    0  504  502 -0.00000000000E+00 -0.00000000000E+00 -0.26489148278E+04  0.26489148278E+04  0.00000000000E+00 0.  1.
         21    1    1    2  503  501  0.18100905829E+02  0.31410968507E+02 -0.61889362216E+01  0.36777638123E+02  0.00000000000E+00 0. -1.
         21    1    1    2  504  503 -0.75462078705E+02  0.66730587694E+02 -0.25050235298E+04  0.25070481410E+04  0.00000000000E+00 0.  1.
         21    1    1    2  505  502  0.82788134559E+01 -0.47962465630E+02 -0.10800268513E+03  0.11846314556E+03  0.00000000000E+00 0.  1.
         21    1    1    2  506  505  0.49082359421E+02 -0.50179090570E+02  0.14273595979E+03  0.15906153952E+03  0.00000000000E+00 0. -1.
<scales pt_clust_3="36.25316" pt_clust_4="69.68071" pt_clust_5="47.75020" pt_clust_6="14000.00000"></scales>
<clustering>
<clus scale="   36.253">  1  3  2 -1</clus>
<clus scale="   47.750">  2  5  1 -1</clus>
<clus scale="   69.681">  2  4  1 -1</clus>
<clus scale="   36.253">  1  3  2 -1</clus>
</clustering>
</event>
<event>
 6    0  0.3042851E+002  0.1969189E+03  0.7546771E-02  0.1152365E+00
         21   -1    0    0  505  501  0.00000000000E+00  0.00000000000E+00  0.77266673175E+03  0.77266673175E+03  0.00000000000E+00 0.  1.
         21   -1    0    0  503  502 -0.00000000000E+00 -0.00000000000E+00 -0.26697889744E+03  0.26697889744E+03  0.00000000000E+00 0.  1.
         21    1    1    2  503  504 -0.57306235025E+02 -0.92455600481E+02 -0.99250230794E+02  0.14725030032E+03  0.00000000000E+00 0. -1.
         21    1    1    2  504  501 -0.64699250235E+02 -0.41998932640E+02 -0.11918854804E+03  0.14197117069E+03  0.00000000000E+00 0.  1.
         21    1    1    2  505  506  0.55386930535E+02  0.10901807566E+03  0.52055095219E+03  0.53472043791E+03  0.00000000000E+00 0.  1.
         21    1    1    2  506  502  0.66618554725E+02  0.25436457464E+02  0.20357566096E+03  0.21570372026E+03  0.00000000000E+00 0.  1.
<scales pt_clust_3="189.56149" pt_clust_4="45.89394" pt_clust_5="58.22650" pt_clust_6="58.22650"></scales>
<clustering>
<clus scale="   45.894">  3  4 -1 -1</clus>
<clus scale="   58.226">  5  6 -1 -1</clus>
<clus scale="  189.561">  2  3  1 -1</clus>
<clus scale="  196.919">  1  3  2 -1</clus>
</clustering>
</event>
<event>
 6    0  0.3042851E+002  0.1097094E+03  0.7546771E-02  0.1261109E+00
         21   -1    0    0  505  501  0.00000000000E+00  0.00000000000E+00  0.33653740122E+03  0.33653740122E+03  0.00000000000E+00 0. -1.
         21   -1    0    0  504  502 -0.00000000000E+00 -0.00000000000E+00 -0.93405057561E+02  0.93405057561E+02  0.00000000000E+00 0. -1.
         21    1    1    2  503  502  0.82800985226E+01  0.42024776816E+02  0.20041116925E+02  0.47289409656E+02  0.00000000000E+00 0. -1.
         21    1    1    2  504  506 -0.82147847886E+02  0.45423514039E+02  0.41930310510E+01  0.93963535743E+02  0.00000000000E+00 0. -1.
         21    1    1    2  505  503  0.11977351171E+03 -0.54093544041E+02  0.15590718167E+03  0.20390893779E+03  0.00000000000E+00 0. -1.
         21    1    1    2  506  501 -0.45905762344E+02 -0.33354746815E+02  0.62991014011E+02  0.84780575591E+02  0.00000000000E+00 0.  1.
<scales pt_clust_3="42.83272" pt_clust_4="109.70936" pt_clust_5="14000.00000" pt_clust_6="52.60648"></scales>
<clustering>
<clus scale="   42.833">  2  3  1 -1</clus>
<clus scale="   52.606">  1  6  2 -1</clus>
<clus scale="  109.709">  2  4  1 -1</clus>
<clus scale="   52.606">  1  3  2 -1</clus>
</clustering>
</event>
<event>
 6    0  0.3042851E+002  0.2224068E+03  0.7546771E-02  0.1132101E+00
         21   -1    0    0  503  501  0.00000000000E+00  0.00000000000E+00  0.13855002803E+04  0.13855002803E+04  0.00000000000E+00 0. -1.
         21   -1    0    0  504  502 -0.00000000000E+00 -0.00000000000E+00 -0.66109264037E+02  0.66109264037E+02  0.00000000000E+00 0.  1.
         21    1    1    2  503  506  0.62776554043E+02  0.33349086940E+02  0.37907469304E+03  0.38568209738E+03  0.00000000000E+00 0. -1.
         21    1    1    2  504  501  0.27922865348E+01 -0.41225996065E+02  0.31054066505E+02  0.51688825312E+02  0.00000000000E+00 0.  1.
         21    1    1    2  505  502 -0.21695452280E+03  0.23608272978E+01  0.22176336128E+03  0.31024800866E+03  0.00000000000E+00 0.  1.
         21    1    1    2  506  505  0.15138568222E+03  0.55160818273E+01  0.68749889542E+03  0.70399061297E+03  0.00000000000E+00 0. -1.
<scales pt_clust_3="33.77794" pt_clust_4="41.32045" pt_clust_5="216.87173" pt_clust_6="33.77794"></scales>
<clustering>
<clus scale="   33.778">  3  6 -1 -1</clus>
<clus scale="   41.320">  2  4  1 -1</clus>
<clus scale="  216.872">  2  5  1 -1</clus>
<clus scale="  222.407">  1  3  2 -1</clus>
</clustering>
</event>
<event>
 6    0  0.3042851E+002  0.8364256E+02  0.7546771E-02  0.1319021E+00
         21   -1    0    0  505  501  0.00000000000E+00  0.00000000000E+00  0.19202486536E+04  0.19202486536E+04  0.00000000000E+00 0.  1.
         21   -1    0    0  506  502 -0.00000000000E+00 -0.00000000000E+00 -0.10119877785E+02  0.10119877785E+02  0.00000000000E+00 0.  1.
         21    1    1    2  503  502 -0.48326157689E+02 -0.85227566818E+01  0.18466447734E+03  0.19107334741E+03  0.00000000000E+00 0.  1.
         21    1    1    2  504  503  0.10910842877E+02  0.96841479894E+02  0.54829900595E+03  0.55689237618E+03  0.00000000000E+00 0.  1.
         21    1    1    2  505  504  0.51321844607E+02 -0.60017075204E+02  0.89665476347E+03  0.90012540565E+03  0.00000000000E+00 0.  1.
         21    1    1    2  506  501 -0.13906529795E+02 -0.28301648009E+02  0.28051052904E+03  0.28227740213E+03  0.00000000000E+00 0.  1.
<scales pt_clust_3="51.28843" pt_clust_4="14000.00000" pt_clust_5="83.64256" pt_clust_6="31.53371"></scales>
<clustering>
<clus scale="   31.534">  1  6  2 -1</clus>
<clus scale="   51.288">  2  3  1 -1</clus>
<clus scale="   83.643">  1  5  2 -1</clus>
<clus scale="   31.534">  1  3  2 -1</clus>
</clustering>
</event>
<event>
 6    0  0.3042851E+002  0.1277825E+03  0.7546771E-02  0.1230784E+00
         21   -1    0    0  505  501  0.00000000000E+00  0.00000000000E+00  0.16970152731E+03  0.16970152731E+03  0.00000000000E+00 0.  1.
         21   -1    0    0  506  502 -0.00000000000E+00 -0.00000000000E+00 -0.35658436915E+03  0.35658436915E+03  0.00000000000E+00 0.  1.
         21    1    1    2  503  501  0.56804319967E+02 -0.30101880166E+02  0.36857596402E+02  0.74103551662E+02  0.00000000000E+00 0.  1.
         21    1    1    2  504  503  0.43147810819E+02 -0.44543492959E+02  0.89596172053E+02  0.10896481262E+03  0.00000000000E+00 0.  1.
         21    1    1    2  505  502 -0.58300604172E+02  0.71229556807E+02 -0.16314831753E+03  0.18732320658E+03  0.00000000000E+00 0.  1.
         21    1    1    2  506  504 -0.41651526614E+02  0.34158163181E+01 -0.15018829276E+03  0.15589432559E+03  0.00000000000E+00 0.  1.
<scales pt_clust_3="44.19008" pt_clust_4="44.19008" pt_clust_5="119.86349" pt_clust_6="41.79136"></scales>
<clustering>
<clus scale="   41.791">  2  6  1 -1</clus>
<clus scale="   44.190">  3  4 -1 -1</clus>
<clus scale="  119.863">  2  5  1 -1</clus>
<clus scale="  127.782">  1  3  2 -1</clus>
</clustering>
</event>
<event>
 6    0  0.3042851E+002  0.1259292E+03  0.7546771E-02  0.1233624E+00
         21   -1    0    0  504  501  0.00000000000E+00  0.00000000000E+00  0.60152290732E+02  0.60152290732E+02  0.00000000000E+00 0. -1.
         21   -1    0    0  503  502 -0.00000000000E+00 -0.00000000000E+00 -0.21910092321E+04  0.21910092321E+04  0.00000000000E+00 0. -1.
         21    1    1    2  503  505 -0.25737302777E+02  0.22088743961E+02 -0.96904037668E+03  0.96963373136E+03  0.00000000000E+00 0. -1.
         21    1    1    2  504  502 -0.51595378217E+02  0.10904176652E+03 -0.11592093727E+03  0.16730168438E+03  0.00000000000E+00 0. -1.
         21    1    1    2  505  506  0.10016919908E+03  0.12120023622E+02 -0.90960780664E+03  0.91518693463E+03  0.00000000000E+00 0. -1.
         21    1    1    2  506  501 -0.22836518091E+02 -0.14325053410E+03 -0.13628782077E+03  0.19903917245E+03  0.00000000000E+00 0. -1.
<scales pt_clust_3="33.91639" pt_clust_4="125.92924" pt_clust_5="85.85696" pt_clust_6="14000.00000"></scales>
<clustering>
<clus scale="   33.916">  2  3  1 -1</clus>
<clus scale="   85.857">  2  5  1 -1</clus>
<clus scale="  125.929">  1  4  2 -1</clus>
<clus scale="  125.929">  1  3  2 -1</clus>
</clustering>
</event>
<event>
 6    0  0.3042851E+002  0.8448854E+02  0.7546771E-02  0.1316776E+00
         21   -1    0    0  506  501  0.00000000000E+00  0.00000000000E+00  0.96208792280E+03  0.96208792280E+03  0.00000000000E+00 0. -1.
         21   -1    0    0  504  502 -0.00000000000E+00 -0.00000000000E+00 -0.19044634283E+02  0.19044634283E+02  0.00000000000E+00 0. -1.
         21    1    1    2  503  502 -0.48332579602E+02  0.66326011588E+02  0.29318940419E+03  0.30445887209E+03  0.00000000000E+00 0. -1.
         21    1    1    2  504  505  0.68166464498E+02 -0.55267104964E+02  0.23712114820E+03  0.25283899758E+03  0.00000000000E+00 0. -1.
         21    1    1    2  505  501  0.30506371632E+02  0.71865347502E+01  0.26212142873E+03  0.26398850049E+03  0.00000000000E+00 0. -1.
         21    1    1    2  506  503 -0.50340256528E+02 -0.18245441375E+02  0.15061130739E+03  0.15984618692E+03  0.00000000000E+00 0.  1.
<scales pt_clust_3="14000.00000" pt_clust_4="84.48854" pt_clust_5="31.34143" pt_clust_6="46.63904"></scales>
<clustering>
<clus scale="   31.341">  1  5  2 -1</clus>
<clus scale="   46.639">  1  6  2 -1</clus>
<clus scale="   84.489">  2  4  1 -1</clus>
<clus scale="   31.341">  1  3  2 -1</clus>
</clustering>
</event>
<event>
 6    0  0.3042851E+002  0.1034886E+03  0.7546771E-02  0.1273126E+00
         21   -1    0    0  503  501  0.00000000000E+00  0.00000000000E+00  0.10469272601E+04  0.10469272601E+04  0.00000000000E+00 0.  1.
         21   -1    0    0  505  502 -0.00000000000E+00 -0.00000000000E+00 -0.17602821231E+03  0.17602821231E+03  0.00000000000E+00 0.  1.
         21    1    1    2  503  506  0.19016759216E+02 -0.81936072249E+02  0.50143857111E+03  0.50844448829E+03  0.00000000000E+00 0.  1.
         21    1    1    2  504  501 -0.34036314677E+02 -0.21263988364E+02  0.48612230478E+03  0.48777609938E+03  0.00000000000E+00 0.  1.
         21    1    1    2  505  504  0.31191877005E+02  0.14082297117E+03 -0.11709216177E+03  0.18578109900E+03  0.00000000000E+00 0.  1.
         21    1    1    2  506  502 -0.16172321544E+02 -0.37622910556E+02  0.43033369904E+00  0.40953785783E+02  0.00000000000E+00 0.  1.
<scales pt_clust_3="103.48862" pt_clust_4="40.13263" pt_clust_5="14000.00000" pt_clust_6="42.17855"></scales>
<clustering>
<clus scale="   40.133">  1  4  2 -1</clus>
<clus scale="   42.179">  2  6  1 -1</clus>
<clus scale="  103.489">  1  3  2 -1</clus>
<clus scale="   40.133">  1  3  2 -1</clus>
</clustering>
</event>
<event>
 6    0  0.3042851E+002  0.2592888E+03  0.7546771E-02  0.1107571E+00
         21   -1    0    0  504  501  0.00000000000E+00  0.00000000000E+00  0.27085238013E+03  0.27085238013E+03  0.00000000000E+00 0. -1.
         21   -1    0    0  503  502 -0.00000000000E+00 -0.00000000000E+00 -0.16792226222E+04  0.16792226222E+04  0.00000000000E+00 0. -1.
         21    1    1    2  503  505 -0.16143530576E+02 -0.17902837919E+03 -0.12473249981E+04  0.12602108653E+04  0.00000000000E+00 0. -1.
         21    1    1    2  504  502  0.75474068888E+02  0.39144380570E+02  0.12082360830E+03  0.14773950699E+03  0.00000000000E+00 0. -1.
         21    1    1    2  505  506  0.36160844697E+02 -0.65403449944E+02 -0.30547798321E+03  0.31448690939E+03  0.00000000000E+00 0.  1.
         21    1    1    2  506  501 -0.95491383009E+02  0.20528744856E+03  0.23609131000E+02  0.22763772059E+03  0.00000000000E+00 0. -1.
<scales pt_clust_3="58.84368" pt_clust_4="85.02128" pt_clust_5="58.84368" pt_clust_6="242.69800"></scales>
<clustering>
<clus scale="   58.844">  3  5 -1 -1</clus>
<clus scale="   85.021">  1  4  2 -1</clus>
<clus scale="  242.698">  1  6  2 -1</clus>
<clus scale="   85.021">  1  3  2 -1</clus>
</clustering>
</event>
<event>
 6    0  0.3042851E+002  0.1067938E+03  0.7546771E-02  0.1266625E+00
         21   -1    0    0  503  501  0.00000000000E+00  0.00000000000E+00  0.40165438568E+02  0.40165438568E+02  0.00000000000E+00 0. -1.
         21   -1    0    0  506  502 -0.00000000000E+00 -0.00000000000E+00 -0.20186028703E+04  0.20186028703E+04  0.00000000000E+00 0. -1.
         21    1    1    2  503  504 -0.37131612499E+01 -0.55311082501E+02 -0.37957643168E+02  0.67185460397E+02  0.00000000000E+00 0. -1.
         21    1    1    2  504  502  0.95887887281E+02  0.11104334279E+03 -0.14319633190E+04  0.14394596409E+04  0.00000000000E+00 0. -1.
         21    1    1    2  505  501 -0.20452722857E+02 -0.22631140967E+02  0.64125869471E+01  0.31170557985E+02  0.00000000000E+00 0. -1.
         21    1    1    2  506  505 -0.71722003175E+02 -0.33101119325E+02 -0.51492905648E+03  0.52095264953E+03  0.00000000000E+00 0. -1.
<scales pt_clust_3="72.96339" pt_clust_4="106.79376" pt_clust_5="30.50381" pt_clust_6="14000.00000"></scales>
<clustering>
<clus scale="   30.504">  1  5  2 -1</clus>
<clus scale="   72.963">  1  3  2 -1</clus>
<clus scale="  106.794">  1  4  2 -1</clus>
<clus scale="   30.504">  1  3  2 -1</clus>
</clustering>
</event>
<event>
 6    0  0.3042851E+002  0.1521473E+03  0.7546771E-02  0.1197859E+00
         21   -1    0    0  503  501  0.00000000000E+00  0.00000000000E+00  0.14991602496E+03  0.14991602496E+03  0.00000000000E+00 0.  1.
         21   -1    0    0  505  502 -0.00000000000E+00 -0.00000000000E+00 -0.38307886271E+03  0.38307886271E+03  0.00000000000E+00 0. -1.
         21    1    1    2  503  506  0.16214148294E+03  0.30747854047E+02  0.27948091824E+02  0.16738096324E+03  0.00000000000E+00 0.  1.
         21    1    1    2  504  501 -0.13009239596E+03  0.11234295988E+02 -0.10399709660E+03  0.16693003622E+03  0.00000000000E+00 0. -1.
         21    1    1    2  505  504  0.27569845008E+02  0.20762349331E+02 -0.36559809495E+02  0.50277143652E+02  0.00000000000E+00 0. -1.
         21    1    1    2  506  502 -0.59618931988E+02 -0.62744499366E+02 -0.12055402348E+03  0.14840674455E+03  0.00000000000E+00 0. -1.
<scales pt_clust_3="152.14728" pt_clust_4="14000.00000" pt_clust_5="34.51335" pt_clust_6="73.10879"></scales>
<clustering>
<clus scale="   34.513">  2  5  1 -1</clus>
<clus scale="   73.109">  2  6  1 -1</clus>
<clus scale="  152.147">  1  3  2 -1</clus>
<clus scale="  152.147">  1  3  2 -1</clus>
</clustering>
</event>
<event>
 6    0  0.3042851E+002  0.9194503E+02  0.7546771E-02  0.1298209E+00
         21   -1    0    0  506  501  0.00000000000E+00  0.00000000000E+00  0.32961411469E+03  0.32961411469E+03  0.00000000000E+00 0. -1.
         21   -1    0    0  503  502 -0.00000000000E+00 -0.00000000000E+00 -0.10552083942E+03  0.10552083942E+03  0.00000000000E+00 0. -1.
         21    1    1    2  503  504 -0.30588679937E+02 -0.98804270830E-01  0.80022132366E+01  0.31618230806E+02  0.00000000000E+00 0. -1.
         21    1    1    2  504  505  0.18071378439E+02 -0.12146040137E+03  0.15991851873E+03  0.20162622958E+03  0.00000000000E+00 0. -1.
         21    1    1    2  505  501 -0.34760639593E+02  0.66168664393E+02  0.93785897988E+02  0.11992659786E+03  0.00000000000E+00 0. -1.
         21    1    1    2  506  502  0.47277941092E+02  0.55390541251E+02 -0.37613354698E+02  0.81963895867E+02  0.00000000000E+00 0. -1.
<scales pt_clust_3="30.58884" pt_clust_4="91.94503" pt_clust_5="14000.00000" pt_clust_6="61.90222"></scales>
<clustering>
<clus scale="   30.589">  2  3  1 -1</clus>
<clus scale="   61.902">  2  6  1 -1</clus>
<clus scale="   91.945">  2  4  1 -1</clus>
<clus scale="   91.945">  1  3  2 -1</clus>
</clustering>
</event>
<event>
 6    0  0.3042851E+002  0.2514447E+03  0.7546771E-02  0.1112395E+00
         21   -1    0    0  504  501  0.00000000000E+00  0.00000000000E+00  0.53191053409E+03  0.53191053409E+03  0.00000000000E+00 0. -1.
         21   -1    0    0  505  502 -0.00000000000E+00 -0.00000000000E+00 -0.19339074047E+03  0.19339074047E+03  0.00000000000E+00 0. -1.
         21    1    1    2  503  501  0.60418934688E+00 -0.24655009992E+03  0.19999870866E+03  0.31746936904E+03  0.00000000000E+00 0. -1.
         21    1    1    2  504  506 -0.61265642185E+02  0.85860575978E+02  0.58505872470E+02  0.12061697448E+03  0.00000000000E+00 0. -1.
         21    1    1    2  505  503 -0.26577135895E+02 -0.44417467362E+02  0.25762331868E+02  0.57818278274E+02  0.00000000000E+00 0. -1.
         21    1    1    2  506  502  0.87238588733E+02  0.20510699130E+03  0.54252880625E+02  0.22939665277E+03  0.00000000000E+00 0. -1.
<scales pt_clust_3="30.85953" pt_clust_4="105.47757" pt_clust_5="30.85953" pt_clust_6="242.25690"></scales>
<clustering>
<clus scale="   30.860">  3  5 -1 -1</clus>
<clus scale="  105.478">  1  4  2 -1</clus>
<clus scale="  242.257">  2  6  1 -1</clus>
<clus scale="  105.478">  1  3  2 -1</clus>
</clustering>
</event>
<event>
 6    0  0.3042851E+002  0.1112044E+03  0.7546771E-02  0.1258356E+00
         21   -1    0    0  502  501  0.00000000000E+00  0.00000000000E+00  0.37938507457E+03  0.37938507457E+03  0.00000000000E+00 0.  1.
         21   -1    0    0  503  502 -0.00000000000E+00 -0.00000000000E+00 -0.87463177956E+03  0.87463177956E+03  0.00000000000E+00 0.  1.
         21    1    1    2  503  505  0.29363162919E+02 -0.81157422188E+01 -0.17715972018E+03  0.17975991506E+03  0.00000000000E+00 0.  1.
         21    1    1    2  504  506 -0.19668405109E+02  0.69116890476E+02  0.10493234894E+02  0.72622990073E+02  0.00000000000E+00 0. -1.
         21    1    1    2  505  504  0.14480346330E+02 -0.10211713644E+03 -0.65938792201E+03  0.66740544026E+03  0.00000000000E+00 0.  1.
         21    1    1    2  506  501 -0.24175104140E+02  0.41115988186E+02  0.33080770231E+03  0.33422850874E+03  0.00000000000E+00 0.  1.
<scales pt_clust_3="30.46409" pt_clust_4="111.20442" pt_clust_5="14000.00000" pt_clust_6="47.64282"></scales>
<clustering>
<clus scale="   30.464">  2  3  1 -1</clus>
<clus scale="   47.643">  1  6  2 -1</clus>
<clus scale="  111.204">  1  4  2 -1</clus>
<clus scale="   47.643">  1  3  2 -1</clus>
</clustering>
</event>
<event>
 6    0  0.3042851E+002  0.1289741E+03  0.7546771E-02  0.1228986E+00
         21   -1    0    0  506  501  0.00000000000E+00  0.00000000000E+00  0.31144516915E+03  0.31144516915E+03  0.00000000000E+00 0. -1.
         21   -1    0    0  504  502 -0.00000000000E+00 -0.00000000000E+00 -0.76455426901E+02  0.76455426901E+02  0.00000000000E+00 0. -1.
         21    1    1    2  503  501  0.18556047529E+02  0.50521019439E+02  0.96157386739E+02  0.11019502407E+03  0.00000000000E+00 0. -1.
         21    1    1    2  504  505 -0.68661308092E+02 -0.11716825685E+03  0.11618001817E+03  0.17871925544E+03  0.00000000000E+00 0. -1.
         21    1    1    2  505  503  0.44818288341E+02  0.27702964330E+02  0.27419657863E+02  0.59396724151E+02  0.00000000000E+00 0. -1.
         21    1    1    2  506  502  0.52869722223E+01  0.38944273084E+02 -0.47673205166E+01  0.39589592398E+02  0.00000000000E+00 0. -1.
<scales pt_clust_3="57.00049" pt_clust_4="115.23686" pt_clust_5="57.00049" pt_clust_6="39.30151"></scales>
<clustering>
<clus scale="   39.302">  2  6  1 -1</clus>
<clus scale="   57.000">  3  5 -1 -1</clus>
<clus scale="  115.237">  2  4  1 -1</clus>
<clus scale="  128.974">  1  3  2 -1</clus>
</clustering>
</event>
<event>
 6    0  0.3042851E+002  0.1598414E+03  0.7546771E-02  0.1188876E+00
         21   -1    0    0  502  501  0.00000000000E+00  0.00000000000E+00  0.35524685900E+03  0.35524685900E+03  0.00000000000E+00 0.  1.
         21   -1    0    0  505  502 -0.00000000000E+00 -0.00000000000E+00 -0.20933848204E+03  0.20933848204E+03  0.00000000000E+00 0.  1.
         21    1    1    2  503  504  0.46742030106E+02  0.48791320290E+02 -0.64319848777E+02  0.93286940462E+02  0.00000000000E+00 0.  1.
         21    1    1    2  504  506 -0.12334102686E+03 -0.31710517742E+01  0.23830890575E+03  0.26835461433E+03  0.00000000000E+00 0.  1.
         21    1    1    2  505  503  0.95746976406E+02 -0.22884215948E+01 -0.85582104014E+02  0.12844071353E+03  0.00000000000E+00 0.  1.
         21    1    1    2  506  501 -0.19147979653E+02 -0.43331846921E+02  0.57501424007E+02  0.74503072723E+02  0.00000000000E+00 0.  1.
<scales pt_clust_3="54.06562" pt_clust_4="146.02170" pt_clust_5="54.06562" pt_clust_6="47.37398"></scales>
<clustering>
<clus scale="   47.374">  1  6  2 -1</clus>
<clus scale="   54.066">  3  5 -1 -1</clus>
<clus scale="  146.022">  1  4  2 -1</clus>
<clus scale="   47.374">  1  3  2 -1</clus>
</clustering>
</event>
<event>
 6    0  0.3042851E+002  0.1044076E+03  0.7546771E-02  0.1271291E+00
         21   -1    0    0  506  501  0.00000000000E+00  0.00000000000E+00  0.86468216036E+02  0.86468216036E+02  0.00000000000E+00 0.  1.
         21   -1    0    0  503  502 -0.00000000000E+00 -0.00000000000E+00 -0.58558824365E+03  0.58558824365E+03  0.00000000000E+00 0. -1.
         21    1    1    2  503  504  0.35180472616E+02  0.37512979637E+02 -0.67928204734E+02  0.85200529887E+02  0.00000000000E+00 0. -1.
         21    1    1    2  504  505 -0.35411297460E+02  0.83276271633E+02 -0.43402290401E+02  0.10036262361E+03  0.00000000000E+00 0.  1.
         21    1    1    2  505  501  0.34811984871E+02  0.22137672546E+02  0.25037600872E+02  0.48257976479E+02  0.00000000000E+00 0.  1.
         21    1    1    2  506  502 -0.34581160027E+02 -0.14292692382E+03 -0.41282713335E+03  0.43823532972E+03  0.00000000000E+00 0. -1.
<scales pt_clust_3="58.38266" pt_clust_4="104.40758" pt_clust_5="41.25471" pt_clust_6="14000.00000"></scales>
<clustering>
<clus scale="   41.255">  1  5  2 -1</clus>
<clus scale="   58.383">  2  3  1 -1</clus>
<clus scale="  104.408">  1  4  2 -1</clus>
<clus scale="   41.255">  1  3  2 -1</clus>
</clustering>
</event>
<event>
 6    0  0.3042851E+002  0.9384737E+02  0.7546771E-02  0.1293793E+00
         21   -1    0    0  504  501  0.00000000000E+00  0.00000000000E+00  0.14665996665E+04  0.14665996665E+04  0.00000000000E+00 0.  1.
         21   -1    0    0  505  502 -0.00000000000E+00 -0.00000000000E+00 -0.49948463193E+02  0.49948463193E+02  0.00000000000E+00 0.  1.
         21    1    1    2  503  502  0.76572049411E+02 -0.93006993168E+02  0.20985031735E+03  0.24197259188E+03  0.00000000000E+00 0.  1.
         21    1    1    2  504  503  0.49862438783E+01 -0.61185969048E+02  0.54598499325E+03  0.54942533459E+03  0.00000000000E+00 0.  1.
         21    1    1    2  505  506  0.52604811201E+01  0.83293067226E+02  0.36912284846E+02  0.91257462610E+02  0.00000000000E+00 0.  1.
         21    1    1    2  506  501 -0.86818774409E+02  0.70899894991E+02  0.62390360786E+03  0.63389274062E+03  0.00000000000E+00 0.  1.
<scales pt_clust_3="14000.00000" pt_clust_4="61.38881" pt_clust_5="79.22463" pt_clust_6="93.84737"></scales>
<clustering>
<clus scale="   61.389">  1  4  2 -1</clus>
<clus scale="   79.225">  2  5  1 -1</clus>
<clus scale="   93.847">  1  6  2 -1</clus>
<clus scale="   61.389">  1  3  2 -1</clus>
</clustering>
</event>
<event>
 6    0  0.3042851E+002  0.1635026E+03  0.7546771E-02  0.1184798E+00
         21   -1    0    0  506  501  0.00000000000E+00  0.00000000000E+00  0.17848881162E+04  0.17848881162E+04  0.00000000000E+00 0.  1.
         21   -1    0    0  501  502 -0.00000000000E+00 -0.00000000000E+00 -0.17472331074E+02  0.17472331074E+02  0.00000000000E+00 0.  1.
         21    1    1    2  503  505 -0.11024786743E+03  0.44565740576E+02  0.33819912720E+03  0.35849595137E+03  0.00000000000E+00 0.  1.
         21    1    1    2  504  503  0.69819385654E+02 -0.15807096273E+02  0.37917970731E+03  0.38587803946E+03  0.00000000000E+00 0.  1.
         21    1    1    2  505  502 -0.36948672499E+02 -0.18278565957E+02  0.19044734481E+03  0.19485764424E+03  0.00000000000E+00 0. -1.
         21    1    1    2  506  504  0.77377154280E+02 -0.10480078346E+02  0.85958960576E+03  0.86312881216E+03  0.00000000000E+00 0.  1.
<scales pt_clust_3="38.94512" pt_clust_4="53.40426" pt_clust_5="38.94512" pt_clust_6="159.58917"></scales>
<clustering>
<clus scale="   38.945">  3  5 -1 -1</clus>
<clus scale="   53.404">  4  6 -1 -1</clus>
<clus scale="  159.589">  1  4  2 -1</clus>
<clus scale="  159.589">  1  3  2 -1</clus>
</clustering>
</event>
<event>
 6    0  0.3042851E+002  0.1193839E+03  0.7546771E-02  0.1244117E+00
         21   -1    0    0  504  501  0.00000000000E+00  0.00000000000E+00  0.32621727162E+03  0.32621727162E+03  0.00000000000E+00 0. -1.
         21   -1    0    0  501  502 -0.00000000000E+00 -0.00000000000E+00 -0.61740373141E+03  0.61740373141E+03  0.00000000000E+00 0. -1.
         21    1    1    2  503  506 -0.13842091737E+03  0.11795717703E+03 -0.44262528310E+03  0.47853044544E+03  0.00000000000E+00 0. -1.
         21    1    1    2  504  505  0.55563053124E+02 -0.13837606360E+02  0.13922247346E+03  0.15053780037E+03  0.00000000000E+00 0. -1.
         21    1    1    2  505  503  0.16854565736E+02 -0.84391747492E+02  0.14290642659E+03  0.16681813508E+03  0.00000000000E+00 0. -1.
         21    1    1    2  506  502  0.66003298513E+02 -0.19727823180E+02 -0.13069007674E+03  0.14773462214E+03  0.00000000000E+00 0. -1.
<scales pt_clust_3="14000.00000" pt_clust_4="57.26022" pt_clust_5="119.38385" pt_clust_6="71.57674"></scales>
<clustering>
<clus scale="   57.260">  1  4  2 -1</clus>
<clus scale="   71.577">  2  6  1 -1</clus>
<clus scale="  119.384">  1  5  2 -1</clus>
<clus scale="   57.260">  1  3  2 -1</clus>
</clustering>
</event>
<event>
 6    0  0.3042851E+002  0.1542235E+03  0.7546771E-02  0.1195377E+00
         21   -1    0    0  504  501  0.00000000000E+00  0.00000000000E+00  0.23935566816E+02  0.23935566816E+02  0.00000000000E+00 0.  1.
         21   -1    0    0  505  502 -0.00000000000E+00 -0.00000000000E+00 -0.21926418491E+04  0.21926418491E+04  0.00000000000E+00 0.  1.
         21    1    1    2  503  506 -0.82780351479E+02  0.11117573204E+03 -0.67154682712E+03  0.68570239244E+03  0.00000000000E+00 0.  1.
         21    1    1    2  504  502  0.15861052624E+02 -0.29987818887E+02 -0.30871429912E+03  0.31057263362E+03  0.00000000000E+00 0.  1.
         21    1    1    2  505  503 -0.10123806772E+02  0.65839033951E+02 -0.72452764573E+03  0.72758338304E+03  0.00000000000E+00 0.  1.
         21    1    1    2  506  501  0.77043105628E+02 -0.14702694710E+03 -0.46391751035E+03  0.49271900685E+03  0.00000000000E+00 0.  1.
<scales pt_clust_3="154.22348" pt_clust_4="33.92407" pt_clust_5="54.42397" pt_clust_6="14000.00000"></scales>
<clustering>
<clus scale="   33.924">  2  4  1 -1</clus>
<clus scale="   54.424">  2  5  1 -1</clus>
<clus scale="  154.223">  2  3  1 -1</clus>
<clus scale="  154.223">  1  3  2 -1</clus>
</clustering>
</event>
<event>
 6    0  0.3042851E+002  0.1161002E+03  0.7546771E-02  0.1249673E+00
         21   -1    0    0  504  501  0.00000000000E+00  0.00000000000E+00  0.14090875120E+04  0.14090875120E+04  0.00000000000E+00 0.  1.
         21   -1    0    0  503  502 -0.00000000000E+00 -0.00000000000E+00 -0.63112395751E+02  0.63112395751E+02  0.00000000000E+00 0.  1.
         21    1    1    2  503  505  0.51746245372E+02 -0.32690459136E+02  0.75003850124E+02  0.96808664705E+02  0.00000000000E+00 0.  1.
         21    1    1    2  504  506 -0.45861156513E+02 -0.35807137513E+02  0.31006291384E+03  0.31547489174E+03  0.00000000000E+00 0.  1.
         21    1    1    2  505  501  0.66646834104E+02 -0.12100079059E+02 -0.21866335807E+02  0.71178290587E+02  0.00000000000E+00 0.  1.
         21    1    1    2  506  502 -0.72531922963E+02  0.80597675708E+02  0.98277468805E+03  0.98873806068E+03  0.00000000000E+00 0.  1.
<scales pt_clust_3="59.82190" pt_clust_4="58.18416" pt_clust_5="14000.00000" pt_clust_6="116.10018"></scales>
<clustering>
<clus scale="   58.184">  1  4  2 -1</clus>
<clus scale="   59.822">  2  3  1 -1</clus>
<clus scale="  116.100">  1  6  2 -1</clus>
<clus scale="   58.184">  1  3  2 -1</clus>
</clustering>
</event>
<event>
 6    0  0.3042851E+002  0.1336958E+03  0.7546771E-02  0.1222073E+00
         21   -1    0    0  506  501  0.00000000000E+00  0.00000000000E+00  0.80672166068E+02  0.80672166068E+02  0.00000000000E+00 0. -1.
         21   -1    0    0  504  502 -0.00000000000E+00 -0.00000000000E+00 -0.62869175092E+03  0.62869175092E+03  0.00000000000E+00 0. -1.
         21    1    1    2  503  505 -0.33325299951E+02  0.73885529680E+02 -0.12982533714E+01  0.81063756234E+02  0.00000000000E+00 0. -1.
         21    1    1    2  504  503 -0.32503657655E+02 -0.35990646927E+01 -0.11575012366E+03  0.12028105485E+03  0.00000000000E+00 0.  1.
         21    1    1    2  505  501 -0.44414580217E+02  0.23830563792E+02  0.29863433855E+01  0.50492266273E+02  0.00000000000E+00 0. -1.
         21    1    1    2  506  502  0.11024353782E+03 -0.94117028779E+02 -0.43395755120E+03  0.45752683963E+03  0.00000000000E+00 0. -1.
<scales pt_clust_3="32.63063" pt_clust_4="32.70231" pt_clust_5="32.63063" pt_clust_6="127.13130"></scales>
<clustering>
<clus scale="   32.631">  3  5 -1 -1</clus>
<clus scale="   32.702">  2  4  1 -1</clus>
<clus scale="  127.131">  2  6  1 -1</clus>
<clus scale="  133.696">  1  3  2 -1</clus>
</clustering>
</event>
<event>
 6    0  0.3042851E+002  0.1830066E+03  0.7546771E-02  0.1164925E+00
         21   -1    0    0  504  501  0.00000000000E+00  0.00000000000E+00  0.22521004305E+03  0.22521004305E+03  0.00000000000E+00 0.  1.
         21   -1    0    0  503  502 -0.00000000000E+00 -0.00000000000E+00 -0.30151362961E+03  0.30151362961E+03  0.00000000000E+00 0.  1.
         21    1    1    2  503  505 -0.33782846983E+02  0.97465573658E+02 -0.12652099195E+03  0.16324331595E+03  0.00000000000E+00 0.  1.
         21    1    1    2  504  506  0.30053793252E+01 -0.78829571728E+02  0.10861240972E+03  0.13423780849E+03  0.00000000000E+00 0.  1.
         21    1    1    2  505  501  0.19586329244E+02  0.74484687234E+02 -0.10034813466E+03  0.12649640729E+03  0.00000000000E+00 0.  1.
         21    1    1    2  506  502  0.11191138413E+02 -0.93120689164E+02  0.41953130341E+02  0.10274614092E+03  0.00000000000E+00 0.  1.
<scales pt_clust_3="180.22072" pt_clust_4="55.95868" pt_clust_5="44.99038" pt_clust_6="55.95868"></scales>
<clustering>
<clus scale="   44.990">  3  5 -1 -1</clus>
<clus scale="   55.959">  4  6 -1 -1</clus>
<clus scale="  180.221">  2  3  1 -1</clus>
<clus scale="  183.007">  1  3  2 -1</clus>
</clustering>
</event>
<event>
 6    0  0.3042851E+002  0.1559734E+03  0.7546771E-02  0.1193319E+00
         21   -1    0    0  505  501  0.00000000000E+00  0.00000000000E+00  0.15232371741E+03  0.15232371741E+03  0.00000000000E+00 0. -1.
         21   -1    0    0  506  502 -0.00000000000E+00 -0.00000000000E+00 -0.30207648147E+03  0.30207648147E+03  0.00000000000E+00 0. -1.
         21    1    1    2  503  501  0.45698586102E+02 -0.51753480502E+01  0.95552583710E+00  0.46000630743E+02  0.00000000000E+00 0. -1.
         21    1    1    2  504  503  0.68847958996E+02  0.48847165442E+02  0.28747895653E+02  0.89176950688E+02  0.00000000000E+00 0. -1.
         21    1    1    2  505  502 -0.10642919143E+02  0.82527209262E+02 -0.10064298170E+02  0.83817075194E+02  0.00000000000E+00 0. -1.
         21    1    1    2  506  504 -0.10390362595E+03 -0.12619902665E+03 -0.16939188738E+03  0.23540554226E+03  0.00000000000E+00 0. -1.
<scales pt_clust_3="35.87670" pt_clust_4="35.87670" pt_clust_5="83.21065" pt_clust_6="148.20650"></scales>
<clustering>
<clus scale="   35.877">  3  4 -1 -1</clus>
<clus scale="   83.211">  1  5  2 -1</clus>
<clus scale="  148.207">  2  6  1 -1</clus>
<clus scale="   83.211">  1  3  2 -1</clus>
</clustering>
</event>
<event>
 6    0  0.3042851E+002  0.1632941E+03  0.7546771E-02  0.1185027E+00
         21   -1    0    0  506  501  0.00000000000E+00  0.00000000000E+00  0.80610891607E+02  0.80610891607E+02  0.00000000000E+00 0. -1.
         21   -1    0    0  503  502 -0.00000000000E+00 -0.00000000000E+00 -0.66198963477E+03  0.66198963477E+03  0.00000000000E+00 0.  1.
         21    1    1    2  503  501 -0.13360976556E+03 -0.41530801381E+02 -0.35575233032E+03  0.38227751365E+03  0.00000000000E+00 0.  1.
         21    1    1    2  504  502  0.93712189365E+02  0.95373619111E+02 -0.20169044043E+03  0.24198581656E+03  0.00000000000E+00 0. -1.
         21    1    1    2  505  504  0.45970674664E+02  0.97584240325E+01 -0.27316400466E+02  0.54357294847E+02  0.00000000000E+00 0. -1.
         21    1    1    2  506  505 -0.60730984733E+01 -0.63601241763E+02  0.33804280484E+01  0.63979901318E+02  0.00000000000E+00 0. -1.
<scales pt_clust_3="147.83069" pt_clust_4="41.12120" pt_clust_5="41.12120" pt_clust_6="63.89054"></scales>
<clustering>
<clus scale="   41.121">  4  5 -1 -1</clus>
<clus scale="   63.891">  1  6  2 -1</clus>
<clus scale="  147.831">  2  3  1 -1</clus>
<clus scale="   63.891">  1  3  2 -1</clus>
</clustering>
</event>
<event>
 6    0  0.3042851E+002  0.1625069E+03  0.7546771E-02  0.1185895E+00
         21   -1    0    0  502  501  0.00000000000E+00  0.00000000000E+00  0.85568973717E+03  0.85568973717E+03  0.00000000000E+00 0. -1.
         21   -1    0    0  504  502 -0.00000000000E+00 -0.00000000000E+00 -0.83942541583E+02  0.83942541583E+02  0.00000000000E+00 0. -1.
         21    1    1    2  503  506  0.73135869746E+02  0.10803361398E+03  0.49658714405E+03  0.51343832037E+03  0.00000000000E+00 0. -1.
         21    1    1    2  504  505 -0.28540206310E+02 -0.22968330534E+02 -0.18188110802E+02  0.40901038597E+02  0.00000000000E+00 0. -1.
         21    1    1    2  505  503 -0.82814303978E+02 -0.88601778652E+02  0.38023465271E+02  0.12709944152E+03  0.00000000000E+00 0. -1.
         21    1    1    2  506  501  0.38218640542E+02  0.35364952039E+01  0.25532469707E+03  0.25819347826E+03  0.00000000000E+00 0. -1.
<scales pt_clust_3="153.05389" pt_clust_4="30.01789" pt_clust_5="30.01789" pt_clust_6="38.38191"></scales>
<clustering>
<clus scale="   30.018">  4  5 -1 -1</clus>
<clus scale="   38.382">  1  6  2 -1</clus>
<clus scale="  153.054">  1  3  2 -1</clus>
<clus scale="   38.382">  1  3  2 -1</clus>
</clustering>
</event>
<event>
 6    0  0.3042851E+002  0.6572858E+02  0.7546771E-02  0.1375252E+00
         21   -1    0    0  503  501  0.00000000000E+00  0.00000000000E+00  0.80213172890E+03  0.80213172890E+03  0.00000000000E+00 0.  1.
         21   -1    0    0  506  502 -0.00000000000E+00 -0.00000000000E+00 -0.97198271981E+02  0.97198271981E+02  0.00000000000E+00 0.  1.
         21    1    1    2  503  505  0.10133348225E+03  0.20598566791E+02  0.39875529613E+03  0.41194485283E+03  0.00000000000E+00 0.  1.
         21    1    1    2  504  501 -0.42193599998E+02 -0.48146825833E+02  0.35015536311E+03  0.35595954129E+03  0.00000000000E+00 0.  1.
         21    1    1    2  505  502  0.34717960698E+01  0.53598158487E+02 -0.69424829454E+01  0.54157308192E+02  0.00000000000E+00 0.  1.
         21    1    1    2  506  504 -0.62611678326E+02 -0.26049899445E+02 -0.37034719381E+02  0.77268298568E+02  0.00000000000E+00 0.  1.
<scales pt_clust_3="65.72858" pt_clust_4="62.18035" pt_clust_5="53.71048" pt_clust_6="14000.00000"></scales>
<clustering>
<clus scale="   53.710">  2  5  1 -1</clus>
<clus scale="   62.180">  1  4  2 -1</clus>
<clus scale="   65.729">  1  3  2 -1</clus>
<clus scale="   62.180">  1  3  2 -1</clus>
</clustering>
</event>
<event>
 6    0  0.3042851E+002  0.9270842E+02  0.7546771E-02  0.1296422E+00
         21   -1    0    0  505  501  0.00000000000E+00  0.00000000000E+00  0.40945863988E+03  0.40945863988E+03  0.00000000000E+00 0.  1.
         21   -1    0    0  504  502 -0.00000000000E+00 -0.00000000000E+00 -0.82681006810E+03  0.82681006810E+03  0.00000000000E+00 0.  1.
         21    1    1    2  503  506 -0.35155389396E+02  0.27341329125E+02  0.14361029911E+03  0.15035746636E+03  0.00000000000E+00 0.  1.
         21    1    1    2  504  501  0.55466211295E+02 -0.11485040983E+03 -0.73331444874E+03  0.74432331548E+03  0.00000000000E+00 0.  1.
         21    1    1    2  505  503 -0.48439144496E+01  0.44477001665E+02  0.24864676086E+03  0.25263982043E+03  0.00000000000E+00 0.  1.
         21    1    1    2  506  502 -0.15466907450E+02  0.43032079042E+02 -0.76294039446E+02  0.88948105701E+02  0.00000000000E+00 0. -1.
<scales pt_clust_3="42.13385" pt_clust_4="82.53155" pt_clust_5="42.13385" pt_clust_6="45.72729"></scales>
<clustering>
<clus scale="   42.134">  3  5 -1 -1</clus>
<clus scale="   45.727">  2  6  1 -1</clus>
<clus scale="   82.532">  2  4  1 -1</clus>
<clus scale="   92.708">  1  3  2 -1</clus>
</clustering>
</event>
<event>
 6    0  0.3042851E+002  0.1666982E+03  0.7546771E-02  0.1181335E+00
         21   -1    0    0  504  501  0.00000000000E+00  0.00000000000E+00  0.39865965158E+03  0.39865965158E+03  0.00000000000E+00 0.  1.
         21   -1    0    0  506  502 -0.00000000000E+00 -0.00000000000E+00 -0.18411861284E+04  0.18411861284E+04  0.00000000000E+00 0. -1.
         21    1    1    2  503  501  0.36411735327E+02 -0.65154897064E+02  0.68248418242E+02  0.10113763727E+03  0.00000000000E+00 0.  1.
         21    1    1    2  504  505  0.11388479073E+03  0.13797562833E+03  0.28293665067E+03  0.33475389148E+03  0.00000000000E+00 0.  1.
         21    1    1    2  505  502 -0.15540006797E+03 -0.43088102071E+02 -0.14585898613E+04  0.14674774783E+04  0.00000000000E+00 0. -1.
         21    1    1    2  506  503  0.51035419145E+01 -0.29732629191E+02 -0.33512168438E+03  0.33647677293E+03  0.00000000000E+00 0. -1.
<scales pt_clust_3="74.94977" pt_clust_4="14000.00000" pt_clust_5="166.69825" pt_clust_6="30.16746"></scales>
<clustering>
<clus scale="   30.167">  2  6  1 -1</clus>
<clus scale="   74.950">  1  3  2 -1</clus>
<clus scale="  166.698">  2  5  1 -1</clus>
<clus scale="   74.950">  1  3  2 -1</clus>
</clustering>
</event>
<event>
 6    0  0.3042851E+002  0.1213656E+03  0.7546771E-02  0.1240861E+00
         21   -1    0    0  503  501  0.00000000000E+00  0.00000000000E+00  0.24255289934E+03  0.24255289934E+03  0.00000000000E+00 0. -1.
         21   -1    0    0  501  502 -0.00000000000E+00 -0.00000000000E+00 -0.18846690486E+03  0.18846690486E+03  0.00000000000E+00 0. -1.
         21    1    1    2  503  506 -0.30317605732E+02 -0.41345928477E+02  0.19956275407E+02  0.55017233183E+02  0.00000000000E+00 0. -1.
         21    1    1    2  504  502 -0.97676337700E+01 -0.99776370555E+02 -0.11859427703E+03  0.15529112445E+03  0.00000000000E+00 0. -1.
         21    1    1    2  505  504  0.23636714011E+02  0.37036741469E+02  0.13222703367E+02  0.45883050816E+02  0.00000000000E+00 0. -1.
         21    1    1    2  506  505  0.16448525491E+02  0.10408555756E+03  0.13950129273E+03  0.17482839574E+03  0.00000000000E+00 0. -1.
<scales pt_clust_3="51.27029" pt_clust_4="104.22574" pt_clust_5="40.15167" pt_clust_6="40.15167"></scales>
<clustering>
<clus scale="   40.152">  5  6 -1 -1</clus>
<clus scale="   51.270">  1  3  2 -1</clus>
<clus scale="  104.226">  2  4  1 -1</clus>
<clus scale="   51.270">  1  3  2 -1</clus>
</clustering>
</event>
<event>
 6    0  0.3042851E+002  0.1270686E+03  0.7546771E-02  0.1231871E+00
         21   -1    0    0  505  501  0.00000000000E+00  0.00000000000E+00  0.61371164146E+02  0.61371164146E+02  0.00000000000E+00 0.  1.
         21   -1    0    0  503  502 -0.00000000000E+00 -0.00000000000E+00 -0.78585103751E+03  0.78585103751E+03  0.00000000000E+00 0.  1.
         21    1    1    2  503  506  0.28068768684E+02 -0.48031851248E+02 -0.24339154249E+03  0.24966849514E+03  0.00000000000E+00 0.  1.
         21    1    1    2  504  501 -0.12595204402E+03  0.41339004189E+02 -0.79684099498E+02  0.15466863409E+03  0.00000000000E+00 0.  1.
         21    1    1    2  505  502 -0.27581738933E+02 -0.16637003708E+02 -0.21241960411E+03  0.21484792395E+03  0.00000000000E+00 0. -1.
         21    1    1    2  506  504  0.12546501426E+03  0.23329850767E+02 -0.18898462726E+03  0.22803714847E+03  0.00000000000E+00 0.  1.
<scales pt_clust_3="57.52368" pt_clust_4="127.06855" pt_clust_5="32.21090" pt_clust_6="14000.00000"></scales>
<clustering>
<clus scale="   32.211">  2  5  1 -1</clus>
<clus scale="   57.524">  2  3  1 -1</clus>
<clus scale="  127.069">  1  4  2 -1</clus>
<clus scale="  127.069">  1  3  2 -1</clus>
</clustering>
</event>
<event>
 6    0  0.3042851E+002  0.8593634E+02  0.7546771E-02  0.1313002E+00
         21   -1    0    0  503  501  0.00000000000E+00  0.00000000000E+00  0.12402132705E+03  0.12402132705E+03  0.00000000000E+00 0.  1.
         21   -1    0    0  504  502 -0.00000000000E+00 -0.00000000000E+00 -0.42645593680E+03  0.42645593680E+03  0.00000000000E+00 0. -1.
         21    1    1    2  503  505  0.21499657669E+02 -0.24899796059E+02 -0.52055324242E+01  0.33306646356E+02  0.00000000000E+00 0.  1.
         21    1    1    2  504  501  0.43962683269E+02  0.80885286880E+02  0.77167074564E+02  0.12012453767E+03  0.00000000000E+00 0.  1.
         21    1    1    2  505  506 -0.35317221669E+02 -0.83886556607E+02 -0.26474972186E+03  0.27995834646E+03  0.00000000000E+00 0. -1.
         21    1    1    2  506  502 -0.30145119269E+02  0.27901065785E+02 -0.10964643003E+03  0.11708773337E+03  0.00000000000E+00 0.  1.
<scales pt_clust_3="32.89734" pt_clust_4="14000.00000" pt_clust_5="85.93634" pt_clust_6="39.96963"></scales>
<clustering>
<clus scale="   32.897">  1  3  2 -1</clus>
<clus scale="   39.970">  2  6  1 -1</clus>
<clus scale="   85.936">  2  5  1 -1</clus>
<clus scale="   32.897">  1  3  2 -1</clus>
</clustering>
</event>
<event>
 6    0  0.3042851E+002  0.9840575E+02  0.7546771E-02  0.1283685E+00
         21   -1    0    0  506  501  0.00000000000E+00  0.00000000000E+00  0.49044529030E+03  0.49044529030E+03  0.00000000000E+00 0. -1.
         21   -1    0    0  504  502 -0.00000000000E+00 -0.00000000000E+00 -0.27267020831E+03  0.27267020831E+03  0.00000000000E+00 0.  1.
         21    1    1    2  503  502  0.30657060720E+02  0.38983230796E+02 -0.54191344754E+01  0.49889023580E+02  0.00000000000E+00 0.  1.
         21    1    1    2  504  501 -0.94368709509E+02  0.47266371223E+02 -0.21520698816E+03  0.23969482877E+03  0.00000000000E+00 0.  1.
         21    1    1    2  505  503  0.79616615380E+02 -0.22922851020E+02  0.10476465979E+03  0.13356607535E+03  0.00000000000E+00 0. -1.
         21    1    1    2  506  505 -0.15904966591E+02 -0.63326750999E+02  0.33363654483E+03  0.33996557091E+03  0.00000000000E+00 0. -1.
<scales pt_clust_3="49.59383" pt_clust_4="98.40575" pt_clust_5="14000.00000" pt_clust_6="64.70929"></scales>
<clustering>
<clus scale="   49.594">  2  3  1 -1</clus>
<clus scale="   64.709">  1  6  2 -1</clus>
<clus scale="   98.406">  2  4  1 -1</clus>
<clus scale="   64.709">  1  3  2 -1</clus>
</clustering>
</event>
<event>
 6    0  0.3042851E+002  0.1208040E+03  0.7546771E-02  0.1241777E+00
         21   -1    0    0  506  501  0.00000000000E+00  0.00000000000E+00  0.17763239199E+03  0.17763239199E+03  0.00000000000E+00 0.  1.
         21   -1    0    0  505  502 -0.00000000000E+00 -0.00000000000E+00 -0.88570016110E+03  0.88570016110E+03  0.00000000000E+00 0.  1.
         21    1    1    2  503  504  0.10309880573E+03 -0.36189912936E+02  0.89192111884E+02  0.14104717780E+03  0.00000000000E+00 0.  1.
         21    1    1    2  504  502 -0.47907543770E+02  0.36407811164E+02 -0.21191427178E+03  0.22029144343E+03  0.00000000000E+00 0.  1.
         21    1    1    2  505  501 -0.77352222920E+02 -0.38970853805E+02 -0.63171640504E+03  0.63762662290E+03  0.00000000000E+00 0.  1.
         21    1    1    2  506  503  0.22160960955E+02  0.38752955576E+02  0.46370795834E+02  0.64367308959E+02  0.00000000000E+00 0.  1.
<scales pt_clust_3="120.80397" pt_clust_4="60.38981" pt_clust_5="14000.00000" pt_clust_6="44.64191"></scales>
<clustering>
<clus scale="   44.642">  1  6  2 -1</clus>
<clus scale="   60.390">  2  4  1 -1</clus>
<clus scale="  120.804">  1  3  2 -1</clus>
<clus scale="   44.642">  1  3  2 -1</clus>
</clustering>
</event>
<event>
 6    0  0.3042851E+002  0.1278964E+03  0.7546771E-02  0.1230611E+00
         21   -1    0    0  506  501  0.00000000000E+00  0.00000000000E+00  0.51346857465E+03  0.51346857465E+03  0.00000000000E+00 0. -1.
         21   -1    0    0  505  502 -0.00000000000E+00 -0.00000000000E+00 -0.49006077504E+02  0.49006077504E+02  0.00000000000E+00 0. -1.
         21    1    1    2  503  501 -0.35485683427E+02 -0.21428481985E+01  0.11658394385E+03  0.12188372118E+03  0.00000000000E+00 0.  1.
         21    1    1    2  504  502  0.59798227922E+02 -0.25007223010E+02  0.75270195100E+02  0.99331724719E+02  0.00000000000E+00 0. -1.
         21    1    1    2  505  503 -0.10261866938E+03  0.20348034209E+02  0.75378376926E+02  0.12894391614E+03  0.00000000000E+00 0. -1.
         21    1    1    2  506  504  0.78306124885E+02  0.68020369994E+01  0.19722998127E+03  0.21231529011E+03  0.00000000000E+00 0. -1.
<scales pt_clust_3="35.55032" pt_clust_4="57.71847" pt_clust_5="113.55264" pt_clust_6="57.71847"></scales>
<clustering>
<clus scale="   35.550">  1  3  2 -1</clus>
<clus scale="   57.718">  4  6 -1 -1</clus>
<clus scale="  113.553">  2  5  1 -1</clus>
<clus scale="   35.550">  1  3  2 -1</clus>
</clustering>
</event>
<event>
 6    0  0.3042851E+002  0.1008377E+03  0.7546771E-02  0.1278544E+00
         21   -1    0    0  503  501  0.00000000000E+00  0.00000000000E+00  0.13104065527E+04  0.13104065527E+04  0.00000000000E+00 0. -1.
         21   -1    0    0  505  502 -0.00000000000E+00 -0.00000000000E+00 -0.10103948133E+03  0.10103948133E+03  0.00000000000E+00 0. -1.
         21    1    1    2  503  506  0.18052750284E+01  0.49282541698E+02  0.10810947032E+03  0.11882628289E+03  0.00000000000E+00 0.  1.
         21    1    1    2  504  501  0.58627137090E+02  0.32407366848E+02  0.11284365235E+04  0.11304230917E+04  0.00000000000E+00 0. -1.
         21    1    1    2  505  504 -0.95945926462E+02 -0.73900574387E+02 -0.32646571613E+02  0.12543011735E+03  0.00000000000E+00 0. -1.
         21    1    1    2  506  502  0.35513514344E+02 -0.77893341586E+01  0.54676491042E+01  0.36766542051E+02  0.00000000000E+00 0.  1.
<scales pt_clust_3="48.96020" pt_clust_4="100.83771" pt_clust_5="14000.00000" pt_clust_6="36.35771"></scales>
<clustering>
<clus scale="   36.358">  2  6  1 -1</clus>
<clus scale="   48.960">  1  3  2 -1</clus>
<clus scale="  100.838">  1  4  2 -1</clus>
<clus scale="   48.960">  1  3  2 -1</clus>
</clustering>
</event>
<event>
 6    0  0.3042851E+002  0.6839752E+02  0.7546771E-02  0.1365629E+00
         21   -1    0    0  506  501  0.00000000000E+00  0.00000000000E+00  0.38994637948E+03  0.38994637948E+03  0.00000000000E+00 0.  1.
         21   -1    0    0  504  502 -0.00000000000E+00 -0.00000000000E+00 -0.28630189739E+03  0.28630189739E+03  0.00000000000E+00 0. -1.
         21    1    1    2  503  501 -0.19852316806E+01 -0.39135764514E+02  0.82935130086E+02  0.91726686473E+02  0.00000000000E+00 0.  1.
         21    1    1    2  504  503 -0.28139038443E+02 -0.59368500716E+02 -0.17934761684E+03  0.19100259691E+03  0.00000000000E+00 0. -1.
         21    1    1    2  505  502 -0.40097762242E+02  0.47386835910E+02 -0.79451573520E+02  0.10082606453E+03  0.00000000000E+00 0. -1.
         21    1    1    2  506  505  0.70222032365E+02  0.51117429320E+02  0.27950854236E+03  0.29269292896E+03  0.00000000000E+00 0.  1.
<scales pt_clust_3="39.18608" pt_clust_4="14000.00000" pt_clust_5="61.07283" pt_clust_6="68.39752"></scales>
<clustering>
<clus scale="   39.186">  1  3  2 -1</clus>
<clus scale="   61.073">  2  5  1 -1</clus>
<clus scale="   68.398">  1  6  2 -1</clus>
<clus scale="   39.186">  1  3  2 -1</clus>
</clustering>
</event>
<event>
 6    0  0.3042851E+002  0.1150497E+03  0.7546771E-02  0.1251494E+00
         21   -1    0    0  505  501  0.00000000000E+00  0.00000000000E+00  0.55901185757E+03  0.55901185757E+03  0.00000000000E+00 0.  1.
         21   -1    0    0  504  502 -0.00000000000E+00 -0.00000000000E+00 -0.33672991481E+03  0.33672991481E+03  0.00000000000E+00 0.  1.
         21    1    1    2  503  502  0.35385001113E+02 -0.61838949010E+02 -0.15159868358E+03  0.16750616341E+03  0.00000000000E+00 0. -1.
         21    1    1    2  504  506 -0.14360631124E+03  0.32547059365E+02  0.18931890593E+03  0.23984105537E+03  0.00000000000E+00 0.  1.
         21    1    1    2  505  503  0.78076101445E+02  0.85143203698E+02 -0.12627472104E+03  0.17114481566E+03  0.00000000000E+00 0.  1.
         21    1    1    2  506  501  0.30145208679E+02 -0.55851314053E+02  0.31083644145E+03  0.31724973793E+03  0.00000000000E+00 0.  1.
<scales pt_clust_3="73.30720" pt_clust_4="115.04970" pt_clust_5="14000.00000" pt_clust_6="63.46734"></scales>
<clustering>
<clus scale="   63.467">  1  6  2 -1</clus>
<clus scale="   73.307">  2  3  1 -1</clus>
<clus scale="  115.050">  1  4  2 -1</clus>
<clus scale="   63.467">  1  3  2 -1</clus>
</clustering>
</event>
<event>
 6    0  0.3042851E+002  0.9905276E+02  0.7546771E-02  0.1282301E+00
         21   -1    0    0  503  501  0.00000000000E+00  0.00000000000E+00  0.19218242202E+04  0.19218242202E+04  0.00000000000E+00 0. -1.
         21   -1    0    0  505  502 -0.00000000000E+00 -0.00000000000E+00 -0.22211200301E+03  0.22211200301E+03  0.00000000000E+00 0. -1.
         21    1    1    2  503  504  0.14209772639E+02 -0.47621493808E+02  0.48810950054E+03  0.49063286562E+03  0.00000000000E+00 0. -1.
         21    1    1    2  504  502 -0.27864118498E+02  0.56208925189E+02 -0.17892605045E+03  0.18960586463E+03  0.00000000000E+00 0. -1.
         21    1    1    2  505  506 -0.72479483686E+02 -0.31343621449E+02  0.92019977832E+01  0.79500785682E+02  0.00000000000E+00 0.  1.
         21    1    1    2  506  501  0.86133829545E+02  0.22756190068E+02  0.13813267694E+04  0.13841967073E+04  0.00000000000E+00 0. -1.
<scales pt_clust_3="49.69632" pt_clust_4="62.55380" pt_clust_5="14000.00000" pt_clust_6="99.05276"></scales>
<clustering>
<clus scale="   49.696">  1  3  2 -1</clus>
<clus scale="   62.554">  2  4  1 -1</clus>
<clus scale="   99.053">  1  6  2 -1</clus>
<clus scale="   49.696">  1  3  2 -1</clus>
</clustering>
</event>
<event>
 6    0  0.3042851E+002  0.1474058E+03  0.7546771E-02  0.1203697E+00
         21   -1    0    0  506  501  0.00000000000E+00  0.00000000000E+00  0.29731974764E+02  0.29731974764E+02  0.00000000000E+00 0.  1.
         21   -1    0    0  504  502 -0.00000000000E+00 -0.00000000000E+00 -0.14853626702E+04  0.14853626702E+04  0.00000000000E+00 0. -1.
         21    1    1    2  503  501  0.85641249774E+02  0.63295568157E+02 -0.14142868445E+03  0.17703905048E+03  0.00000000000E+00 0.  1.
         21    1    1    2  504  503  0.38962296868E+02  0.28821109663E+02 -0.16142504807E+03  0.16854306003E+03  0.00000000000E+00 0.  1.
         21    1    1    2  505  502 -0.18361219914E+02 -0.88573308592E+02 -0.49379730779E+03  0.50201409001E+03  0.00000000000E+00 0. -1.
         21    1    1    2  506  505 -0.10624232673E+03 -0.35433692281E+01 -0.65897965509E+03  0.66749844440E+03  0.00000000000E+00 0.  1.
<scales pt_clust_3="41.00714" pt_clust_4="41.00714" pt_clust_5="90.45643" pt_clust_6="134.28849"></scales>
<clustering>
<clus scale="   41.007">  3  4 -1 -1</clus>
<clus scale="   90.456">  2  5  1 -1</clus>
<clus scale="  134.288">  2  6  1 -1</clus>
<clus scale="  147.406">  1  3  2 -1</clus>
</clustering>
</event>
<event>
 6    0  0.3042851E+002  0.2201081E+03  0.7546771E-02  0.1133802E+00
         21   -1    0    0  506  501  0.00000000000E+00  0.00000000000E+00  0.88592132277E+03  0.88592132277E+03  0.00000000000E+00 0. -1.
         21   -1    0    0  504  502 -0.00000000000E+00 -0.00000000000E+00 -0.41516963627E+03  0.41516963627E+03  0.00000000000E+00 0.  1.
         21    1    1    2  503  502 -0.81164876985E+02 -0.47710778612E+02 -0.14497837278E+03  0.17286637680E+03  0.00000000000E+00 0.  1.
         21    1    1    2  504  501  0.13133802957E+03  0.44686491541E+02  0.69488455850E+03  0.70859798911E+03  0.00000000000E+00 0. -1.
         21    1    1    2  505  503 -0.12812312872E+03 -0.15685503433E+02 -0.22143884142E+03  0.25631373669E+03  0.00000000000E+00 0.  1.
         21    1    1    2  506  505  0.77949976137E+02  0.18709790504E+02  0.14228434220E+03  0.16331285643E+03  0.00000000000E+00 0.  1.
<scales pt_clust_3="39.26212" pt_clust_4="215.25367" pt_clust_5="39.26212" pt_clust_6="80.16393"></scales>
<clustering>
<clus scale="   39.262">  3  5 -1 -1</clus>
<clus scale="   80.164">  1  6  2 -1</clus>
<clus scale="  215.254">  1  4  2 -1</clus>
<clus scale="   80.164">  1  3  2 -1</clus>
</clustering>
</event>
<event>
 6    0  0.3042851E+002  0.9515092E+02  0.7546771E-02  0.1290837E+00
         21   -1    0    0  506  501  0.00000000000E+00  0.00000000000E+00  0.48021224020E+03  0.48021224020E+03  0.00000000000E+00 0. -1.
         21   -1    0    0  503  502 -0.00000000000E+00 -0.00000000000E+00 -0.30141352209E+03  0.30141352209E+03  0.00000000000E+00 0. -1.
         21    1    1    2  503  504  0.10039358242E+03  0.21598237773E+02 -0.85090099009E+02  0.13336296419E+03  0.00000000000E+00 0.  1.
         21    1    1    2  504  505 -0.47736864639E+02 -0.48109250599E+02  0.31785136302E+03  0.32499661108E+03  0.00000000000E+00 0. -1.
         21    1    1    2  505  501  0.48740713112E+01 -0.44952330696E+02  0.11909774675E+03  0.12739207937E+03  0.00000000000E+00 0. -1.
         21    1    1    2  506  502 -0.57530789097E+02  0.71463343522E+02 -0.17306029265E+03  0.19587410766E+03  0.00000000000E+00 0. -1.
<scales pt_clust_3="14000.00000" pt_clust_4="95.15092" pt_clust_5="45.21580" pt_clust_6="90.52989"></scales>
<clustering>
<clus scale="   45.216">  1  5  2 -1</clus>
<clus scale="   90.530">  2  6  1 -1</clus>
<clus scale="   95.151">  1  4  2 -1</clus>
<clus scale="   45.216">  1  3  2 -1</clus>
</clustering>
</event>
<event>
 6    0  0.3042851E+002  0.1571607E+03  0.7546771E-02  0.1191940E+00
         21   -1    0    0  506  501  0.00000000000E+00  0.00000000000E+00  0.10908580415E+03  0.10908580415E+03  0.00000000000E+00 0. -1.
         21   -1    0    0  505  502 -0.00000000000E+00 -0.00000000000E+00 -0.57590390828E+03  0.57590390828E+03  0.00000000000E+00 0. -1.
         21    1    1    2  503  502  0.40373964133E+02  0.28301670650E+02 -0.10929801249E+03  0.11990453317E+03  0.00000000000E+00 0. -1.
         21    1    1    2  504  501 -0.30538982190E+02 -0.14030633934E+02  0.47948054252E+02  0.58553428835E+02  0.00000000000E+00 0.  1.
         21    1    1    2  505  504 -0.12368212288E+03 -0.10801950064E+02 -0.51010963455E+02  0.13422394734E+03  0.00000000000E+00 0. -1.
         21    1    1    2  506  503  0.11384714094E+03 -0.34690866519E+01 -0.35445718243E+03  0.37230780309E+03  0.00000000000E+00 0. -1.
<scales pt_clust_3="34.44036" pt_clust_4="33.60786" pt_clust_5="147.97359" pt_clust_6="34.44036"></scales>
<clustering>
<clus scale="   33.608">  1  4  2 -1</clus>
<clus scale="   34.440">  3  6 -1 -1</clus>
<clus scale="  147.974">  1  5  2 -1</clus>
<clus scale="   33.608">  1  3  2 -1</clus>
</clustering>
</event>
<event>
 6    0  0.3042851E+002  0.1323959E+03  0.7546771E-02  0.1223943E+00
         21   -1    0    0  504  501  0.00000000000E+00  0.00000000000E+00  0.37748246260E+03  0.37748246260E+03  0.00000000000E+00 0. -1.
         21   -1    0    0  503  502 -0.00000000000E+00 -0.00000000000E+00 -0.44956074424E+03  0.44956074424E+03  0.00000000000E+00 0. -1.
         21    1    1    2  503  501  0.16376415445E+02  0.59720239940E+02  0.78373482908E+02  0.99885418678E+02  0.00000000000E+00 0. -1.
         21    1    1    2  504  506 -0.26776393427E+02  0.66607864393E+02  0.27332123420E+03  0.28259171947E+03  0.00000000000E+00 0. -1.
         21    1    1    2  505  502 -0.50824155186E+01 -0.74139289029E+02 -0.30483351371E+03  0.31376095392E+03  0.00000000000E+00 0. -1.
         21    1    1    2  506  505  0.15482393500E+02 -0.52188815303E+02 -0.11893948504E+03  0.13080511478E+03  0.00000000000E+00 0.  1.
<scales pt_clust_3="61.92491" pt_clust_4="124.66032" pt_clust_5="38.16583" pt_clust_6="38.16583"></scales>
<clustering>
<clus scale="   38.166">  5  6 -1 -1</clus>
<clus scale="   61.925">  1  3  2 -1</clus>
<clus scale="  124.660">  1  4  2 -1</clus>
<clus scale="   61.925">  1  3  2 -1</clus>
</clustering>
</event>
<event>
 6    0  0.3042851E+002  0.1161019E+03  0.7546771E-02  0.1249670E+00
         21   -1    0    0  502  501  0.00000000000E+00  0.00000000000E+00  0.60149232323E+03  0.60149232323E+03  0.00000000000E+00 0.  1.
         21   -1    0    0  505  502 -0.00000000000E+00 -0.00000000000E+00 -0.66183682452E+02  0.66183682452E+02  0.00000000000E+00 0.  1.
         21    1    1    2  503  501 -0.26152466195E+02 -0.23007595825E+02  0.23100566729E+03  0.23361703549E+03  0.00000000000E+00 0.  1.
         21    1    1    2  504  503  0.40834978828E+02  0.69352506837E+01  0.14592814821E+03  0.15169251016E+03  0.00000000000E+00 0.  1.
         21    1    1    2  505  506  0.10921801280E+03  0.41801101093E+01  0.73510829163E+02  0.13171897982E+03  0.00000000000E+00 0.  1.
         21    1    1    2  506  504 -0.12390052544E+03  0.11892235032E+02  0.84863996124E+02  0.15064748022E+03  0.00000000000E+00 0.  1.
<scales pt_clust_3="34.83247" pt_clust_4="30.38352" pt_clust_5="116.10190" pt_clust_6="14000.00000"></scales>
<clustering>
<clus scale="   34.832">  1  3  2 -1</clus>
<clus scale="   30.384">  1  4  2 -1</clus>
<clus scale="  116.102">  2  5  1 -1</clus>
<clus scale="   34.832">  1  3  2 -1</clus>
</clustering>
</event>
<event>
 6    0  0.3042851E+002  0.1615092E+03  0.7546771E-02  0.1187003E+00
         21   -1    0    0  504  501  0.00000000000E+00  0.00000000000E+00  0.34958971012E+03  0.34958971012E+03  0.00000000000E+00 0.  1.
         21   -1    0    0  505  502 -0.00000000000E+00 -0.00000000000E+00 -0.14109770783E+04  0.14109770783E+04  0.00000000000E+00 0. -1.
         21    1    1    2  503  502  0.52489571691E+02 -0.13590767394E+01 -0.10004467194E+03  0.11298645321E+03  0.00000000000E+00 0. -1.
         21    1    1    2  504  506  0.35311771308E+02 -0.10011408606E+02  0.76353214081E+01  0.37489300182E+02  0.00000000000E+00 0. -1.
         21    1    1    2  505  501  0.60775589758E+02  0.13947505218E+03  0.29449801013E+03  0.33147555032E+03  0.00000000000E+00 0.  1.
         21    1    1    2  506  503 -0.14857693276E+03 -0.12810456684E+03 -0.12634760278E+04  0.12786154848E+04  0.00000000000E+00 0. -1.
<scales pt_clust_3="53.21108" pt_clust_4="36.70354" pt_clust_5="161.50919" pt_clust_6="14000.00000"></scales>
<clustering>
<clus scale="   36.704">  1  4  2 -1</clus>
<clus scale="   53.211">  2  3  1 -1</clus>
<clus scale="  161.509">  1  5  2 -1</clus>
<clus scale="   36.704">  1  3  2 -1</clus>
</clustering>
</event>
<event>
 6    0  0.3042851E+002  0.9517326E+02  0.7546771E-02  0.1290786E+00
         21   -1    0    0  505  501  0.00000000000E+00  0.00000000000E+00  0.22212946297E+02  0.22212946297E+02  0.00000000000E+00 0.  1.
         21   -1    0    0  504  502 -0.00000000000E+00 -0.00000000000E+00 -0.10164926647E+04  0.10164926647E+04  0.00000000000E+00 0.  1.
         21    1    1    2  503  502 -0.66210159053E+02 -0.37097854747E+02 -0.25101700838E+03  0.26223953647E+03  0.00000000000E+00 0.  1.
         21    1    1    2  504  506  0.73382057370E+02  0.27691541034E+02 -0.58388601527E+03  0.58913039865E+03  0.00000000000E+00 0.  1.
         21    1    1    2  505  503 -0.36075534126E+02 -0.31812376084E+02 -0.79524324068E+02  0.92938633264E+02  0.00000000000E+00 0.  1.
         21    1    1    2  506  501  0.28903635809E+02  0.41218689797E+02 -0.79852370724E+02  0.94397042654E+02  0.00000000000E+00 0.  1.
<scales pt_clust_3="32.65869" pt_clust_4="85.87766" pt_clust_5="32.65869" pt_clust_6="50.34283"></scales>
<clustering>
<clus scale="   32.659">  3  5 -1 -1</clus>
<clus scale="   50.343">  1  6  2 -1</clus>
<clus scale="   85.878">  2  4  1 -1</clus>
<clus scale="   50.343">  1  3  2 -1</clus>
</clustering>
</event>
<event>
 6    0  0.7738162E+002  0.9359719E+02  0.7546771E-02  0.1294367E+00
         21   -1    0    0  505  501  0.00000000000E+00  0.00000000000E+00  0.68688626789E+03  0.68688626789E+03  0.00000000000E+00 0. -1.
         21   -1    0    0  503  502 -0.00000000000E+00 -0.00000000000E+00 -0.44903473180E+03  0.44903473180E+03  0.00000000000E+00 0. -1.
         21    1    1    2  503  504 -0.41945925465E+02 -0.32567090154E+02 -0.35219847151E+03  0.35617950440E+03  0.00000000000E+00 0. -1.
         21    1    1    2  504  501 -0.33609184829E+02 -0.77651792768E+01  0.96511224647E+01  0.35819261284E+02  0.00000000000E+00 0.  1.
         21    1    1    2  505  506  0.93109848414E+02  0.82088392592E+02  0.64952382570E+03  0.66127841960E+03  0.00000000000E+00 0. -1.
         21    1    1    2  506  502 -0.17554738120E+02 -0.41756123161E+02 -0.69124940564E+02  0.82643814408E+02  0.00000000000E+00 0. -1.
<scales pt_clust_3="14000.00000" pt_clust_4="34.49457" pt_clust_5="93.59719" pt_clust_6="45.50248"></scales>
<clustering>
<clus scale="   34.495">  1  4  2 -1</clus>
<clus scale="   45.502">  2  6  1 -1</clus>
<clus scale="   93.597">  1  5  2 -1</clus>
<clus scale="   34.495">  1  3  2 -1</clus>
</clustering>
</event>
<event>
 6    0  0.3042851E+002  0.1548229E+03  0.7546771E-02  0.1194669E+00
         21   -1    0    0  503  501  0.00000000000E+00  0.00000000000E+00  0.34567874278E+03  0.34567874278E+03  0.00000000000E+00 0. -1.
         21   -1    0    0  506  502 -0.00000000000E+00 -0.00000000000E+00 -0.37031357189E+03  0.37031357189E+03  0.00000000000E+00 0. -1.
         21    1    1    2  503  504  0.76241843226E+02  0.12904777591E+03  0.12574943624E+03  0.19565037143E+03  0.00000000000E+00 0. -1.
         21    1    1    2  504  502 -0.21194607819E+02  0.58687141976E+02 -0.26859332680E+03  0.27574583811E+03  0.00000000000E+00 0. -1.
         21    1    1    2  505  501 -0.36239479615E+02 -0.16047610263E+03  0.12974967325E+03  0.20952531377E+03  0.00000000000E+00 0. -1.
         21    1    1    2  506  505 -0.18807755792E+02 -0.27258815250E+02 -0.11540611812E+02  0.35070791376E+02  0.00000000000E+00 0. -1.
<scales pt_clust_3="154.82286" pt_clust_4="51.80685" pt_clust_5="14000.00000" pt_clust_6="33.11759"></scales>
<clustering>
<clus scale="   33.118">  2  6  1 -1</clus>
<clus scale="   51.807">  2  4  1 -1</clus>
<clus scale="  154.823">  1  3  2 -1</clus>
<clus scale="  154.823">  1  3  2 -1</clus>
</clustering>
</event>
<event>
 6    0  0.3042851E+002  0.7299501E+02  0.7546771E-02  0.1350195E+00
         21   -1    0    0  503  501  0.00000000000E+00  0.00000000000E+00  0.70149798635E+03  0.70149798635E+03  0.00000000000E+00 0. -1.
         21   -1    0    0  506  502 -0.00000000000E+00 -0.00000000000E+00 -0.11219850550E+03  0.11219850550E+03  0.00000000000E+00 0. -1.
         21    1    1    2  503  505  0.15845316094E+01  0.39894958555E+02  0.40431805840E+03  0.40628464259E+03  0.00000000000E+00 0. -1.
         21    1    1    2  504  501 -0.70116305857E+02 -0.23232725220E+02  0.22945047137E+03  0.24104683088E+03  0.00000000000E+00 0. -1.
         21    1    1    2  505  502  0.96278285600E+02 -0.52029668869E+02 -0.10340747859E+02  0.10992509171E+03  0.00000000000E+00 0. -1.
         21    1    1    2  506  504 -0.27746511353E+02  0.35367435534E+02 -0.34128301061E+02  0.56439926663E+02  0.00000000000E+00 0. -1.
<scales pt_clust_3="39.92641" pt_clust_4="72.99501" pt_clust_5="14000.00000" pt_clust_6="46.10812"></scales>
<clustering>
<clus scale="   39.926">  1  3  2 -1</clus>
<clus scale="   46.108">  2  6  1 -1</clus>
<clus scale="   72.995">  1  4  2 -1</clus>
<clus scale="   39.926">  1  3  2 -1</clus>
</clustering>
</event>
<event>
 6    0  0.3042851E+002  0.8619923E+02  0.7546771E-02  0.1312326E+00
         21   -1    0    0  505  501  0.00000000000E+00  0.00000000000E+00  0.62966067844E+03  0.62966067844E+03  0.00000000000E+00 0.  1.
         21   -1    0    0  506  502 -0.00000000000E+00 -0.00000000000E+00 -0.33688980047E+03  0.33688980047E+03  0.00000000000E+00 0. -1.
         21    1    1    2  503  502  0.24124544323E+02 -0.24112823190E+02 -0.10963843395E+02  0.35827751018E+02  0.00000000000E+00 0. -1.
         21    1    1    2  504  501 -0.19121452650E+02  0.29866422912E+02  0.21652705519E+03  0.21941193860E+03  0.00000000000E+00 0.  1.
         21    1    1    2  505  503  0.20545159752E+02 -0.11387169585E+03  0.38048827017E+03  0.39769358864E+03  0.00000000000E+00 0.  1.
         21    1    1    2  506  504 -0.25548251426E+02  0.10811809613E+03 -0.29328060400E+03  0.31361720065E+03  0.00000000000E+00 0. -1.
<scales pt_clust_3="34.10897" pt_clust_4="35.30985" pt_clust_5="86.19923" pt_clust_6="14000.00000"></scales>
<clustering>
<clus scale="   34.109">  2  3  1 -1</clus>
<clus scale="   35.310">  1  4  2 -1</clus>
<clus scale="   86.199">  1  5  2 -1</clus>
<clus scale="   35.310">  1  3  2 -1</clus>
</clustering>
</event>
<event>
 6    0  0.3042851E+002  0.1062346E+03  0.7546771E-02  0.1267706E+00
         21   -1    0    0  504  501  0.00000000000E+00  0.00000000000E+00  0.91534205117E+02  0.91534205117E+02  0.00000000000E+00 0.  1.
         21   -1    0    0  505  502 -0.00000000000E+00 -0.00000000000E+00 -0.22488757460E+03  0.22488757460E+03  0.00000000000E+00 0.  1.
         21    1    1    2  503  506  0.41862868686E+02  0.30169319013E+02 -0.25076899870E+02  0.57371931216E+02  0.00000000000E+00 0.  1.
         21    1    1    2  504  503 -0.99015216618E+02 -0.80874481306E+01 -0.27778686101E+02  0.10315558802E+03  0.00000000000E+00 0.  1.
         21    1    1    2  505  501  0.16097738283E+02 -0.57534122301E+02 -0.11217289089E+01  0.59754252423E+02  0.00000000000E+00 0.  1.
         21    1    1    2  506  502  0.41054609649E+02  0.35452251419E+02 -0.79376054602E+02  0.96140008052E+02  0.00000000000E+00 0.  1.
<scales pt_clust_3="37.44597" pt_clust_4="99.05452" pt_clust_5="59.74372" pt_clust_6="37.44597"></scales>
<clustering>
<clus scale="   37.446">  3  6 -1 -1</clus>
<clus scale="   59.744">  1  5  2 -1</clus>
<clus scale="   99.055">  1  4  2 -1</clus>
<clus scale="   59.744">  1  3  2 -1</clus>
</clustering>
</event>
<event>
 6    0  0.3042851E+002  0.9482507E+02  0.7546771E-02  0.1291571E+00
         21   -1    0    0  503  501  0.00000000000E+00  0.00000000000E+00  0.22722969834E+03  0.22722969834E+03  0.00000000000E+00 0. -1.
         21   -1    0    0  504  502 -0.00000000000E+00 -0.00000000000E+00 -0.59196083771E+03  0.59196083771E+03  0.00000000000E+00 0.  1.
         21    1    1    2  503  506 -0.16971833140E+01 -0.52998362936E+02  0.69649579150E+02  0.87537253674E+02  0.00000000000E+00 0. -1.
         21    1    1    2  504  505 -0.86829350183E+02  0.36864224200E+01 -0.22581357339E+03  0.24196011177E+03  0.00000000000E+00 0. -1.
         21    1    1    2  505  501  0.73850170645E+02 -0.17925218849E+02  0.12653251935E+03  0.14759959224E+03  0.00000000000E+00 0. -1.
         21    1    1    2  506  502  0.14676362852E+02  0.67237159364E+02 -0.33509966448E+03  0.34209357837E+03  0.00000000000E+00 0.  1.
<scales pt_clust_3="53.02553" pt_clust_4="14000.00000" pt_clust_5="94.82507" pt_clust_6="67.59394"></scales>
<clustering>
<clus scale="   53.026">  1  3  2 -1</clus>
<clus scale="   67.594">  2  6  1 -1</clus>
<clus scale="   94.825">  1  5  2 -1</clus>
<clus scale="   53.026">  1  3  2 -1</clus>
</clustering>
</event>
<event>
 6    0  0.3042851E+002  0.8397606E+02  0.7546771E-02  0.1318132E+00
         21   -1    0    0  505  501  0.00000000000E+00  0.00000000000E+00  0.50641170490E+02  0.50641170490E+02  0.00000000000E+00 0.  1.
         21   -1    0    0  506  502 -0.00000000000E+00 -0.00000000000E+00 -0.50240745058E+03  0.50240745058E+03  0.00000000000E+00 0.  1.
         21    1    1    2  503  501  0.90658692862E+01  0.39416937119E+02 -0.14787371577E+02  0.43064501343E+02  0.00000000000E+00 0.  1.
         21    1    1    2  504  503 -0.25022806748E+02 -0.39966132244E+02 -0.72262636691E+02  0.86286274955E+02  0.00000000000E+00 0.  1.
         21    1    1    2  505  502  0.96708478529E+02  0.66432631647E+01 -0.74112870027E+02  0.12202204829E+03  0.00000000000E+00 0.  1.
         21    1    1    2  506  504 -0.80751541067E+02 -0.60940680404E+01 -0.29060340179E+03  0.30167579648E+03  0.00000000000E+00 0.  1.
<scales pt_clust_3="40.44607" pt_clust_4="39.89266" pt_clust_5="14000.00000" pt_clust_6="83.97606"></scales>
<clustering>
<clus scale="   40.446">  1  3  2 -1</clus>
<clus scale="   39.893">  1  4  2 -1</clus>
<clus scale="   83.976">  2  6  1 -1</clus>
<clus scale="   40.446">  1  3  2 -1</clus>
</clustering>
</event>
<event>
 6    0  0.3042851E+002  0.3123987E+03  0.7546771E-02  0.1079202E+00
         21   -1    0    0  506  501  0.00000000000E+00  0.00000000000E+00  0.15185639569E+03  0.15185639569E+03  0.00000000000E+00 0. -1.
         21   -1    0    0  505  502 -0.00000000000E+00 -0.00000000000E+00 -0.64150745610E+03  0.64150745610E+03  0.00000000000E+00 0. -1.
         21    1    1    2  503  501 -0.10535985403E+03  0.22297934907E+03 -0.20697673400E+03  0.32196250926E+03  0.00000000000E+00 0. -1.
         21    1    1    2  504  502  0.22184636081E+02 -0.83384345570E+02 -0.81962398352E+02  0.11900815900E+03  0.00000000000E+00 0.  1.
         21    1    1    2  505  503 -0.56057565362E+02  0.34300918161E+02 -0.59399358238E+02  0.88584916211E+02  0.00000000000E+00 0. -1.
         21    1    1    2  506  504  0.13923278331E+03 -0.17389592166E+03 -0.14131256981E+03  0.26380826732E+03  0.00000000000E+00 0. -1.
<scales pt_clust_3="37.73781" pt_clust_4="41.50717" pt_clust_5="37.73781" pt_clust_6="310.96094"></scales>
<clustering>
<clus scale="   37.738">  3  5 -1 -1</clus>
<clus scale="   41.507">  4  6 -1 -1</clus>
<clus scale="  310.961">  1  4  2 -1</clus>
<clus scale="  310.961">  1  3  2 -1</clus>
</clustering>
</event>
<event>
 6    0  0.3042851E+002  0.1550821E+03  0.7546771E-02  0.1194364E+00
         21   -1    0    0  503  501  0.00000000000E+00  0.00000000000E+00  0.25006647114E+03  0.25006647114E+03  0.00000000000E+00 0. -1.
         21   -1    0    0  506  502 -0.00000000000E+00 -0.00000000000E+00 -0.18011682349E+03  0.18011682349E+03  0.00000000000E+00 0. -1.
         21    1    1    2  503  505  0.44772058102E+02  0.13789532396E+02  0.54901316695E+02  0.72172314396E+02  0.00000000000E+00 0. -1.
         21    1    1    2  504  502 -0.10617615660E+03 -0.58808392524E+02 -0.15865560574E+02  0.12240718636E+03  0.00000000000E+00 0. -1.
         21    1    1    2  505  504  0.71876842187E+02  0.97749357485E+02  0.93441633365E+02  0.15314227430E+03  0.00000000000E+00 0. -1.
         21    1    1    2  506  501 -0.10472743690E+02 -0.52730497356E+02 -0.62527741832E+02  0.82461519574E+02  0.00000000000E+00 0. -1.
<scales pt_clust_3="32.36634" pt_clust_4="146.07294" pt_clust_5="32.36634" pt_clust_6="53.76043"></scales>
<clustering>
<clus scale="   32.366">  3  5 -1 -1</clus>
<clus scale="   53.760">  2  6  1 -1</clus>
<clus scale="  146.073">  2  4  1 -1</clus>
<clus scale="  155.082">  1  3  2 -1</clus>
</clustering>
</event>
<event>
 6    0  0.3042851E+002  0.1403174E+03  0.7546771E-02  0.1212902E+00
         21   -1    0    0  505  501  0.00000000000E+00  0.00000000000E+00  0.16966461377E+03  0.16966461377E+03  0.00000000000E+00 0. -1.
         21   -1    0    0  504  502 -0.00000000000E+00 -0.00000000000E+00 -0.11293702526E+04  0.11293702526E+04  0.00000000000E+00 0. -1.
         21    1    1    2  503  501  0.68646929522E+02  0.61902225557E+02  0.95590108538E+02  0.13297276154E+03  0.00000000000E+00 0. -1.
         21    1    1    2  504  506 -0.10156182628E+03 -0.73833774968E+01 -0.39440169698E+03  0.40733526413E+03  0.00000000000E+00 0. -1.
         21    1    1    2  505  502 -0.14482036687E+02 -0.42306432300E+02 -0.69666815605E+03  0.69810177142E+03  0.00000000000E+00 0. -1.
         21    1    1    2  506  503  0.47396933445E+02 -0.12212415760E+02  0.35774105612E+02  0.60625069328E+02  0.00000000000E+00 0. -1.
<scales pt_clust_3="48.05163" pt_clust_4="124.09944" pt_clust_5="44.71648" pt_clust_6="48.05163"></scales>
<clustering>
<clus scale="   44.716">  2  5  1 -1</clus>
<clus scale="   48.052">  3  6 -1 -1</clus>
<clus scale="  124.099">  2  4  1 -1</clus>
<clus scale="  140.317">  1  3  2 -1</clus>
</clustering>
</event>
<event>
 6    0  0.3042851E+002  0.1448749E+03  0.7546771E-02  0.1206916E+00
         21   -1    0    0  505  501  0.00000000000E+00  0.00000000000E+00  0.78155501782E+02  0.78155501782E+02  0.00000000000E+00 0. -1.
         21   -1    0    0  506  502 -0.00000000000E+00 -0.00000000000E+00 -0.43482294643E+03  0.43482294643E+03  0.00000000000E+00 0.  1.
         21    1    1    2  503  501 -0.39304367593E+02  0.10814284077E+02  0.15084427351E+02  0.43466331804E+02  0.00000000000E+00 0. -1.
         21    1    1    2  504  502  0.85536492273E+02 -0.58765956349E+02 -0.21932137261E+03  0.24263510385E+03  0.00000000000E+00 0.  1.
         21    1    1    2  505  504  0.53645519093E+02 -0.34285058478E+01 -0.66191864903E+02  0.85269920549E+02  0.00000000000E+00 0.  1.
         21    1    1    2  506  503 -0.99877643774E+02  0.51380178119E+02 -0.86238634486E+02  0.14160709201E+03  0.00000000000E+00 0. -1.
<scales pt_clust_3="40.76496" pt_clust_4="37.83850" pt_clust_5="37.83850" pt_clust_6="134.99864"></scales>
<clustering>
<clus scale="   37.839">  4  5 -1 -1</clus>
<clus scale="   40.765">  1  3  2 -1</clus>
<clus scale="  134.999">  1  6  2 -1</clus>
<clus scale="   40.765">  1  3  2 -1</clus>
</clustering>
</event>
<event>
 6    0  0.3042851E+002  0.5885613E+02  0.7546771E-02  0.1402696E+00
         21   -1    0    0  505  501  0.00000000000E+00  0.00000000000E+00  0.30510835706E+03  0.30510835706E+03  0.00000000000E+00 0. -1.
         21   -1    0    0  504  502 -0.00000000000E+00 -0.00000000000E+00 -0.14378787953E+04  0.14378787953E+04  0.00000000000E+00 0. -1.
         21    1    1    2  503  502 -0.87607451200E+02  0.38556822906E+02 -0.12900585216E+04  0.12936045312E+04  0.00000000000E+00 0. -1.
         21    1    1    2  504  506  0.55480487023E+02  0.84056730833E+01 -0.11388139687E+03  0.12695555259E+03  0.00000000000E+00 0.  1.
         21    1    1    2  505  503 -0.40812481062E+02  0.32053400161E+02  0.34064143253E+02  0.62076122042E+02  0.00000000000E+00 0. -1.
         21    1    1    2  506  501  0.72939445239E+02 -0.79015896150E+02  0.23710533698E+03  0.26035094649E+03  0.00000000000E+00 0. -1.
<scales pt_clust_3="14000.00000" pt_clust_4="55.21787" pt_clust_5="51.89488" pt_clust_6="58.85613"></scales>
<clustering>
<clus scale="   51.895">  1  5  2 -1</clus>
<clus scale="   55.218">  2  4  1 -1</clus>
<clus scale="   58.856">  1  6  2 -1</clus>
<clus scale="   51.895">  1  3  2 -1</clus>
</clustering>
</event>
<event>
 6    0  0.3042851E+002  0.1416739E+03  0.7546771E-02  0.1211094E+00
         21   -1    0    0  502  501  0.00000000000E+00  0.00000000000E+00  0.12720149975E+04  0.12720149975E+04  0.00000000000E+00 0. -1.
         21   -1    0    0  504  502 -0.00000000000E+00 -0.00000000000E+00 -0.88584087848E+02  0.88584087848E+02  0.00000000000E+00 0. -1.
         21    1    1    2  503  505 -0.39284003001E+02 -0.22377667600E+02  0.62894295875E+02  0.77457635857E+02  0.00000000000E+00 0. -1.
         21    1    1    2  504  503  0.12724348528E+03 -0.88792990059E+02  0.18338452707E+02  0.15624147489E+03  0.00000000000E+00 0. -1.
         21    1    1    2  505  506 -0.60758756241E+02  0.26508716413E+02  0.95330003570E+02  0.11611265257E+03  0.00000000000E+00 0. -1.
         21    1    1    2  506  501 -0.27200726034E+02  0.84661941246E+02  0.10068681575E+04  0.10107873220E+04  0.00000000000E+00 0. -1.
<scales pt_clust_3="40.53280" pt_clust_4="132.90061" pt_clust_5="40.53280" pt_clust_6="88.92426"></scales>
<clustering>
<clus scale="   40.533">  3  5 -1 -1</clus>
<clus scale="   88.924">  1  6  2 -1</clus>
<clus scale="  132.901">  2  4  1 -1</clus>
<clus scale="   88.924">  1  3  2 -1</clus>
</clustering>
</event>
<event>
 6    0  0.3042851E+002  0.1572523E+03  0.7546771E-02  0.1191834E+00
         21   -1    0    0  504  501  0.00000000000E+00  0.00000000000E+00  0.20939450797E+03  0.20939450797E+03  0.00000000000E+00 0. -1.
         21   -1    0    0  503  502 -0.00000000000E+00 -0.00000000000E+00 -0.23390478312E+04  0.23390478312E+04  0.00000000000E+00 0.  1.
         21    1    1    2  503  501 -0.69343548558E+02  0.52828757279E+02  0.18020951297E+03  0.20018709721E+03  0.00000000000E+00 0. -1.
         21    1    1    2  504  506 -0.35045929620E+02  0.53211475417E+02 -0.45292825381E+02  0.78173642169E+02  0.00000000000E+00 0. -1.
         21    1    1    2  505  502  0.35791828066E+02 -0.10482913541E+02 -0.37375601338E+03  0.37561217229E+03  0.00000000000E+00 0.  1.
         21    1    1    2  506  505  0.68597650112E+02 -0.95557319155E+02 -0.18908139975E+04  0.18944694275E+04  0.00000000000E+00 0.  1.
<scales pt_clust_3="147.90824" pt_clust_4="63.71560" pt_clust_5="30.06773" pt_clust_6="30.06773"></scales>
<clustering>
<clus scale="   30.068">  5  6 -1 -1</clus>
<clus scale="   63.716">  1  4  2 -1</clus>
<clus scale="  147.908">  1  3  2 -1</clus>
<clus scale="   63.716">  1  3  2 -1</clus>
</clustering>
</event>
<event>
 6    0  0.9051339E+002  0.1153558E+03  0.7546771E-02  0.1250961E+00
         21   -1    0    0  504  501  0.00000000000E+00  0.00000000000E+00  0.14405392184E+04  0.14405392184E+04  0.00000000000E+00 0. -1.
         21   -1    0    0  506  502 -0.00000000000E+00 -0.00000000000E+00 -0.67119492040E+03  0.67119492040E+03  0.00000000000E+00 0. -1.
         21    1    1    2  503  501 -0.42569647560E+02  0.71361537231E+01  0.16611053203E+03  0.17162694554E+03  0.00000000000E+00 0. -1.
         21    1    1    2  504  505 -0.68984159776E+02 -0.40450784452E+02  0.12441196704E+04  0.12466871438E+04  0.00000000000E+00 0. -1.
         21    1    1    2  505  502  0.36526001603E+02 -0.13011548178E+02  0.71367623796E+01  0.39425658604E+02  0.00000000000E+00 0.  1.
         21    1    1    2  506  503  0.75027805734E+02  0.46326178907E+02 -0.64802266684E+03  0.65399439082E+03  0.00000000000E+00 0. -1.
<scales pt_clust_3="43.00291" pt_clust_4="115.35585" pt_clust_5="38.77434" pt_clust_6="14000.00000"></scales>
<clustering>
<clus scale="   38.774">  2  5  1 -1</clus>
<clus scale="   43.003">  1  3  2 -1</clus>
<clus scale="  115.356">  1  4  2 -1</clus>
<clus scale="   43.003">  1  3  2 -1</clus>
</clustering>
</event>
<event>
 6    0  0.3042851E+002  0.1637134E+03  0.7546771E-02  0.1184567E+00
         21   -1    0    0  506  501  0.00000000000E+00  0.00000000000E+00  0.88426181667E+03  0.88426181667E+03  0.00000000000E+00 0. -1.
         21   -1    0    0  505  502 -0.00000000000E+00 -0.00000000000E+00 -0.49973752395E+03  0.49973752395E+03  0.00000000000E+00 0.  1.
         21    1    1    2  503  504  0.49208733686E+02 -0.28272239672E+02  0.41348560305E+03  0.41736214843E+03  0.00000000000E+00 0. -1.
         21    1    1    2  504  502 -0.15025225342E+03  0.55084545524E+02 -0.38936362457E+03  0.42096802605E+03  0.00000000000E+00 0.  1.
         21    1    1    2  505  501  0.15347097797E+01 -0.49318940285E+02 -0.79786864093E+02  0.93811816349E+02  0.00000000000E+00 0. -1.
         21    1    1    2  506  503  0.99508809959E+02  0.22506634432E+02  0.44018917833E+03  0.45185734980E+03  0.00000000000E+00 0. -1.
<scales pt_clust_3="50.84639" pt_clust_4="148.89697" pt_clust_5="49.34281" pt_clust_6="50.84639"></scales>
<clustering>
<clus scale="   49.343">  2  5  1 -1</clus>
<clus scale="   50.846">  3  6 -1 -1</clus>
<clus scale="  148.897">  2  4  1 -1</clus>
<clus scale="  163.713">  1  3  2 -1</clus>
</clustering>
</event>
<event>
 6    0  0.3042851E+002  0.1853982E+03  0.7546771E-02  0.1162679E+00
         21   -1    0    0  503  501  0.00000000000E+00  0.00000000000E+00  0.23683709505E+03  0.23683709505E+03  0.00000000000E+00 0. -1.
         21   -1    0    0  506  502 -0.00000000000E+00 -0.00000000000E+00 -0.71044941395E+03  0.71044941395E+03  0.00000000000E+00 0.  1.
         21    1    1    2  503  504  0.36161037337E+02 -0.51315682536E+02  0.33063598590E+02  0.70951542951E+02  0.00000000000E+00 0.  1.
         21    1    1    2  504  505  0.11196910898E+03 -0.24470662974E+02  0.13517154806E+03  0.17722088510E+03  0.00000000000E+00 0. -1.
         21    1    1    2  505  502  0.49775359880E+02  0.18419521481E+02 -0.25856081429E+03  0.26395181362E+03  0.00000000000E+00 0.  1.
         21    1    1    2  506  501 -0.19790550620E+03  0.57366824029E+02 -0.38328665125E+03  0.43516226734E+03  0.00000000000E+00 0.  1.
<scales pt_clust_3="55.15118" pt_clust_4="55.15118" pt_clust_5="53.07415" pt_clust_6="169.62345"></scales>
<clustering>
<clus scale="   53.074">  2  5  1 -1</clus>
<clus scale="   55.151">  3  4 -1 -1</clus>
<clus scale="  169.623">  2  6  1 -1</clus>
<clus scale="  185.398">  1  3  2 -1</clus>
</clustering>
</event>
<event>
 6    0  0.3042851E+002  0.1411857E+03  0.7546771E-02  0.1211742E+00
         21   -1    0    0  505  501  0.00000000000E+00  0.00000000000E+00  0.20806420256E+03  0.20806420256E+03  0.00000000000E+00 0.  1.
         21   -1    0    0  503  502 -0.00000000000E+00 -0.00000000000E+00 -0.41588035998E+03  0.41588035998E+03  0.00000000000E+00 0.  1.
         21    1    1    2  503  501  0.41051453100E+02 -0.11032679870E+02  0.25242714269E+02  0.49438208406E+02  0.00000000000E+00 0.  1.
         21    1    1    2  504  506 -0.33790403817E+02 -0.87011186407E+02 -0.30239451290E+03  0.31647303105E+03  0.00000000000E+00 0.  1.
         21    1    1    2  505  504 -0.13243620090E+02  0.13765800281E+03  0.12703791365E+03  0.18778644977E+03  0.00000000000E+00 0.  1.
         21    1    1    2  506  502  0.59825708068E+01 -0.39614136537E+02 -0.57702272430E+02  0.70246873316E+02  0.00000000000E+00 0.  1.
<scales pt_clust_3="42.50814" pt_clust_4="36.33135" pt_clust_5="129.83864" pt_clust_6="36.33135"></scales>
<clustering>
<clus scale="   36.331">  4  6 -1 -1</clus>
<clus scale="   42.508">  1  3  2 -1</clus>
<clus scale="  129.839">  1  5  2 -1</clus>
<clus scale="   42.508">  1  3  2 -1</clus>
</clustering>
</event>
<event>
 6    0  0.3042851E+002  0.1444603E+03  0.7546771E-02  0.1207450E+00
         21   -1    0    0  506  501  0.00000000000E+00  0.00000000000E+00  0.89418153310E+03  0.89418153310E+03  0.00000000000E+00 0.  1.
         21   -1    0    0  503  502 -0.00000000000E+00 -0.00000000000E+00 -0.15247776260E+04  0.15247776260E+04  0.00000000000E+00 0. -1.
         21    1    1    2  503  504  0.27478354174E+02 -0.80546928996E+02 -0.27760112227E+03  0.29035366504E+03  0.00000000000E+00 0. -1.
         21    1    1    2  504  505 -0.41964663569E+02  0.32575415160E+02  0.24226664889E+03  0.24802282118E+03  0.00000000000E+00 0. -1.
         21    1    1    2  505  501 -0.87585783534E+02  0.98264829085E+01  0.63722362483E+03  0.64328980816E+03  0.00000000000E+00 0.  1.
         21    1    1    2  506  502  0.10207209293E+03  0.38145030927E+02 -0.12324852443E+04  0.12372928647E+04  0.00000000000E+00 0. -1.
<scales pt_clust_3="85.10504" pt_clust_4="37.66678" pt_clust_5="37.66678" pt_clust_6="136.06963"></scales>
<clustering>
<clus scale="   37.667">  4  5 -1 -1</clus>
<clus scale="   85.105">  2  3  1 -1</clus>
<clus scale="  136.070">  2  6  1 -1</clus>
<clus scale="  144.460">  1  3  2 -1</clus>
</clustering>
</event>
<event>
 6    0  0.3042851E+002  0.1700880E+03  0.7546771E-02  0.1177756E+00
         21   -1    0    0  504  501  0.00000000000E+00  0.00000000000E+00  0.15995829681E+03  0.15995829681E+03  0.00000000000E+00 0.  1.
         21   -1    0    0  503  502 -0.00000000000E+00 -0.00000000000E+00 -0.22148297647E+03  0.22148297647E+03  0.00000000000E+00 0.  1.
         21    1    1    2  503  506  0.73599217432E+02 -0.46839186578E+02  0.93252651139E+01  0.87736621631E+02  0.00000000000E+00 0.  1.
         21    1    1    2  504  505 -0.78207970771E+02  0.82598449125E+02 -0.95955805577E+02  0.14881702562E+03  0.00000000000E+00 0.  1.
         21    1    1    2  505  502 -0.53856223279E+02  0.49488564086E+01 -0.23162624450E+02  0.58834438359E+02  0.00000000000E+00 0.  1.
         21    1    1    2  506  501  0.58464976618E+02 -0.40708118956E+02  0.48268485257E+02  0.86053187674E+02  0.00000000000E+00 0.  1.
<scales pt_clust_3="163.96908" pt_clust_4="42.64225" pt_clust_5="42.64225" pt_clust_6="38.12979"></scales>
<clustering>
<clus scale="   38.130">  3  6 -1 -1</clus>
<clus scale="   42.642">  4  5 -1 -1</clus>
<clus scale="  163.969">  1  3  2 -1</clus>
<clus scale="  163.969">  1  3  2 -1</clus>
</clustering>
</event>
<event>
 6    0  0.3042851E+002  0.7929506E+02  0.7546771E-02  0.1331064E+00
         21   -1    0    0  505  501  0.00000000000E+00  0.00000000000E+00  0.12725010271E+03  0.12725010271E+03  0.00000000000E+00 0. -1.
         21   -1    0    0  504  502 -0.00000000000E+00 -0.00000000000E+00 -0.18437342285E+04  0.18437342285E+04  0.00000000000E+00 0.  1.
         21    1    1    2  503  506  0.22121297539E+02 -0.61179209578E+02 -0.73509348909E+03  0.73796658813E+03  0.00000000000E+00 0.  1.
         21    1    1    2  504  503 -0.44730435963E+02 -0.20809315602E+02 -0.10216338005E+04  0.10228242576E+04  0.00000000000E+00 0.  1.
         21    1    1    2  505  502 -0.55581445941E+02  0.70095242906E+02 -0.39581244519E+02  0.97822876305E+02  0.00000000000E+00 0. -1.
         21    1    1    2  506  501  0.78190584364E+02  0.11893282274E+02  0.79824408340E+02  0.11237060921E+03  0.00000000000E+00 0. -1.
<scales pt_clust_3="79.29506" pt_clust_4="49.33396" pt_clust_5="14000.00000" pt_clust_6="78.15244"></scales>
<clustering>
<clus scale="   49.334">  2  4  1 -1</clus>
<clus scale="   78.152">  1  6  2 -1</clus>
<clus scale="   79.295">  2  3  1 -1</clus>
<clus scale="   78.152">  1  3  2 -1</clus>
</clustering>
</event>
<event>
 6    0  0.3042851E+002  0.2036609E+03  0.7546771E-02  0.1146687E+00
         21   -1    0    0  504  501  0.00000000000E+00  0.00000000000E+00  0.17511250686E+03  0.17511250686E+03  0.00000000000E+00 0.  1.
         21   -1    0    0  505  502 -0.00000000000E+00 -0.00000000000E+00 -0.51343296298E+03  0.51343296298E+03  0.00000000000E+00 0.  1.
         21    1    1    2  503  502 -0.22473877218E+02  0.29463919386E+02 -0.77986654755E+02  0.86343013746E+02  0.00000000000E+00 0.  1.
         21    1    1    2  504  503 -0.16659720322E+03 -0.12470441254E+01 -0.34584695241E+03  0.38388318240E+03  0.00000000000E+00 0.  1.
         21    1    1    2  505  506  0.11982291203E+03 -0.64952735724E+01  0.82612178238E+02  0.14568627533E+03  0.00000000000E+00 0.  1.
         21    1    1    2  506  501  0.69248168409E+02 -0.21721601688E+02  0.29009728119E+01  0.72632998363E+02  0.00000000000E+00 0.  1.
<scales pt_clust_3="33.12676" pt_clust_4="33.12676" pt_clust_5="200.87510" pt_clust_6="47.98238"></scales>
<clustering>
<clus scale="   33.127">  3  4 -1 -1</clus>
<clus scale="   47.982">  5  6 -1 -1</clus>
<clus scale="  200.875">  1  5  2 -1</clus>
<clus scale="  200.875">  1  3  2 -1</clus>
</clustering>
</event>
<event>
 6    0  0.3042851E+002  0.9951485E+02  0.7546771E-02  0.1281319E+00
         21   -1    0    0  503  501  0.00000000000E+00  0.00000000000E+00  0.11050495787E+04  0.11050495787E+04  0.00000000000E+00 0.  1.
         21   -1    0    0  506  502 -0.00000000000E+00 -0.00000000000E+00 -0.15398127964E+03  0.15398127964E+03  0.00000000000E+00 0. -1.
         21    1    1    2  503  505  0.48890614632E+01  0.30538437522E+02  0.39927673458E+03  0.40047273299E+03  0.00000000000E+00 0.  1.
         21    1    1    2  504  502 -0.42448250461E+02 -0.91325942291E+02 -0.12315353993E+03  0.15908826512E+03  0.00000000000E+00 0. -1.
         21    1    1    2  505  504  0.10711658356E+02  0.90942326918E+02  0.17156438116E+03  0.19447257733E+03  0.00000000000E+00 0.  1.
         21    1    1    2  506  501  0.26847530642E+02 -0.30154822149E+02  0.50338072324E+03  0.50499728289E+03  0.00000000000E+00 0.  1.
<scales pt_clust_3="30.92732" pt_clust_4="14000.00000" pt_clust_5="99.51485" pt_clust_6="31.46321"></scales>
<clustering>
<clus scale="   30.927">  1  3  2 -1</clus>
<clus scale="   31.463">  1  6  2 -1</clus>
<clus scale="   99.515">  1  5  2 -1</clus>
<clus scale="   30.927">  1  3  2 -1</clus>
</clustering>
</event>
<event>
 6    0  0.3042851E+002  0.1602389E+03  0.7546771E-02  0.1188427E+00
         21   -1    0    0  505  501  0.00000000000E+00  0.00000000000E+00  0.59264301017E+03  0.59264301017E+03  0.00000000000E+00 0. -1.
         21   -1    0    0  506  502 -0.00000000000E+00 -0.00000000000E+00 -0.31958807082E+03  0.31958807082E+03  0.00000000000E+00 0. -1.
         21    1    1    2  503  502  0.80572597357E+02  0.77768712578E+02  0.38254331455E+03  0.39859666783E+03  0.00000000000E+00 0. -1.
         21    1    1    2  504  501 -0.67543756085E+02 -0.11419218509E+03 -0.13041177738E+03  0.18603560358E+03  0.00000000000E+00 0. -1.
         21    1    1    2  505  503  0.49948116844E+02  0.82859494106E+01  0.16245045238E+03  0.17015763518E+03  0.00000000000E+00 0. -1.
         21    1    1    2  506  504 -0.62976958115E+02  0.28137523101E+02 -0.14152705019E+03  0.15744117439E+03  0.00000000000E+00 0. -1.
<scales pt_clust_3="30.23740" pt_clust_4="153.79964" pt_clust_5="30.23740" pt_clust_6="68.97693"></scales>
<clustering>
<clus scale="   30.237">  3  5 -1 -1</clus>
<clus scale="   68.977">  2  6  1 -1</clus>
<clus scale="  153.800">  2  4  1 -1</clus>
<clus scale="  160.239">  1  3  2 -1</clus>
</clustering>
</event>
<event>
 6    0  0.3042851E+002  0.7495510E+02  0.7546771E-02  0.1344010E+00
         21   -1    0    0  505  501  0.00000000000E+00  0.00000000000E+00  0.42027882752E+03  0.42027882752E+03  0.00000000000E+00 0.  1.
         21   -1    0    0  503  502 -0.00000000000E+00 -0.00000000000E+00 -0.16580356827E+03  0.16580356827E+03  0.00000000000E+00 0.  1.
         21    1    1    2  503  501  0.34999131869E+02 -0.44050990822E+02  0.37280437081E+02  0.67492666364E+02  0.00000000000E+00 0.  1.
         21    1    1    2  504  506 -0.36407440365E+02  0.76114751718E+02  0.36269933029E+01  0.84451833748E+02  0.00000000000E+00 0.  1.
         21    1    1    2  505  504  0.34458747982E+02 -0.65443019927E+02  0.31435679465E+03  0.32294022436E+03  0.00000000000E+00 0.  1.
         21    1    1    2  506  502 -0.33050439485E+02  0.33379259031E+02 -0.10078896577E+03  0.11119767131E+03  0.00000000000E+00 0.  1.
<scales pt_clust_3="44.48742" pt_clust_4="14000.00000" pt_clust_5="74.95510" pt_clust_6="46.97347"></scales>
<clustering>
<clus scale="   46.973">  2  6  1 -1</clus>
<clus scale="   44.487">  2  3  1 -1</clus>
<clus scale="   74.955">  1  5  2 -1</clus>
<clus scale="   74.955">  1  3  2 -1</clus>
</clustering>
</event>
<event>
 6    0  0.3042851E+002  0.1941234E+03  0.7546771E-02  0.1154794E+00
         21   -1    0    0  502  501  0.00000000000E+00  0.00000000000E+00  0.18305628014E+03  0.18305628014E+03  0.00000000000E+00 0. -1.
         21   -1    0    0  503  502 -0.00000000000E+00 -0.00000000000E+00 -0.17942356713E+04  0.17942356713E+04  0.00000000000E+00 0. -1.
         21    1    1    2  503  506 -0.94365534991E+02 -0.17873054340E+02 -0.10534827265E+04  0.10578516698E+04  0.00000000000E+00 0. -1.
         21    1    1    2  504  505  0.15929721381E+03  0.87400268406E+02  0.57192687064E+02  0.19048730325E+03  0.00000000000E+00 0. -1.
         21    1    1    2  505  501  0.24309226277E+02 -0.40267140182E+02  0.43399149933E+02  0.63998963082E+02  0.00000000000E+00 0. -1.
         21    1    1    2  506  504 -0.89240905094E+02 -0.29260073884E+02 -0.65828850163E+03  0.66495401528E+03  0.00000000000E+00 0. -1.
<scales pt_clust_3="43.84382" pt_clust_4="188.99218" pt_clust_5="47.03595" pt_clust_6="43.84382"></scales>
<clustering>
<clus scale="   43.844">  3  6 -1 -1</clus>
<clus scale="   47.036">  1  5  2 -1</clus>
<clus scale="  188.992">  1  4  2 -1</clus>
<clus scale="   47.036">  1  3  2 -1</clus>
</clustering>
</event>
<event>
 6    0  0.3042851E+002  0.9342151E+02  0.7546771E-02  0.1294771E+00
         21   -1    0    0  504  501  0.00000000000E+00  0.00000000000E+00  0.16708143914E+04  0.16708143914E+04  0.00000000000E+00 0.  1.
         21   -1    0    0  506  502 -0.00000000000E+00 -0.00000000000E+00 -0.20597416827E+02  0.20597416827E+02  0.00000000000E+00 0.  1.
         21    1    1    2  503  505  0.10136529700E+02  0.68974621446E+02  0.83544830082E+03  0.83835202092E+03  0.00000000000E+00 0.  1.
         21    1    1    2  504  503 -0.31237133292E+02  0.34457571655E+02  0.28170501451E+03  0.28551847215E+03  0.00000000000E+00 0.  1.
         21    1    1    2  505  502  0.49668378439E+02  0.68704213843E+01  0.48493065851E+02  0.69754770033E+02  0.00000000000E+00 0.  1.
         21    1    1    2  506  501 -0.28567774847E+02 -0.11030261449E+03  0.48457059337E+03  0.49778654510E+03  0.00000000000E+00 0.  1.
<scales pt_clust_3="14000.00000" pt_clust_4="46.50895" pt_clust_5="49.05107" pt_clust_6="93.42151"></scales>
<clustering>
<clus scale="   46.509">  1  4  2 -1</clus>
<clus scale="   49.051">  2  5  1 -1</clus>
<clus scale="   93.422">  2  6  1 -1</clus>
<clus scale="   46.509">  1  3  2 -1</clus>
</clustering>
</event>
<event>
 6    0  0.3042851E+002  0.4347824E+03  0.7546771E-02  0.1032360E+00
         21   -1    0    0  506  501  0.00000000000E+00  0.00000000000E+00  0.13560066324E+04  0.13560066324E+04  0.00000000000E+00 0.  1.
         21   -1    0    0  505  502 -0.00000000000E+00 -0.00000000000E+00 -0.24388054756E+03  0.24388054756E+03  0.00000000000E+00 0.  1.
         21    1    1    2  503  501  0.17280506273E+03  0.10546079151E+03  0.57628323805E+03  0.61080761186E+03  0.00000000000E+00 0.  1.
         21    1    1    2  504  502 -0.35614468195E+03 -0.12969849237E+03 -0.15382475636E+01  0.37902915403E+03  0.00000000000E+00 0.  1.
         21    1    1    2  505  503  0.21140984325E+03  0.63342246338E+02  0.50745818533E+03  0.55337163991E+03  0.00000000000E+00 0.  1.
         21    1    1    2  506  504 -0.28070224038E+02 -0.39104545482E+02  0.29922909000E+02  0.56678774139E+02  0.00000000000E+00 0.  1.
<scales pt_clust_3="65.67666" pt_clust_4="40.50751" pt_clust_5="425.22683" pt_clust_6="40.50751"></scales>
<clustering>
<clus scale="   40.508">  4  6 -1 -1</clus>
<clus scale="   65.677">  3  5 -1 -1</clus>
<clus scale="  425.227">  1  3  2 -1</clus>
<clus scale="  425.227">  1  3  2 -1</clus>
</clustering>
</event>
<event>
 6    0  0.3042851E+002  0.1133973E+03  0.7546771E-02  0.1254405E+00
         21   -1    0    0  503  501  0.00000000000E+00  0.00000000000E+00  0.76462829123E+03  0.76462829123E+03  0.00000000000E+00 0. -1.
         21   -1    0    0  504  502 -0.00000000000E+00 -0.00000000000E+00 -0.79311673533E+02  0.79311673533E+02  0.00000000000E+00 0.  1.
         21    1    1    2  503  502  0.40041788818E+02  0.20278307542E+02  0.23738515935E+02  0.50774715630E+02  0.00000000000E+00 0.  1.
         21    1    1    2  504  505 -0.17586136792E+02 -0.12347627872E+03  0.27144398526E+01  0.12475188093E+03  0.00000000000E+00 0.  1.
         21    1    1    2  505  506 -0.39967966575E+01  0.40812160737E+02  0.15365720898E+03  0.15903504242E+03  0.00000000000E+00 0.  1.
         21    1    1    2  506  501 -0.18458855369E+02  0.62385810438E+02  0.50520645294E+03  0.50937832578E+03  0.00000000000E+00 0. -1.
<scales pt_clust_3="44.88379" pt_clust_4="106.47968" pt_clust_5="30.96313" pt_clust_6="30.96313"></scales>
<clustering>
<clus scale="   30.963">  5  6 -1 -1</clus>
<clus scale="   44.884">  2  3  1 -1</clus>
<clus scale="  106.480">  2  4  1 -1</clus>
<clus scale="  113.397">  1  3  2 -1</clus>
</clustering>
</event>
<event>
 6    0  0.3042851E+002  0.2053541E+03  0.7546771E-02  0.1145299E+00
         21   -1    0    0  505  501  0.00000000000E+00  0.00000000000E+00  0.12337158445E+04  0.12337158445E+04  0.00000000000E+00 0.  1.
         21   -1    0    0  504  502 -0.00000000000E+00 -0.00000000000E+00 -0.11926971741E+03  0.11926971741E+03  0.00000000000E+00 0.  1.
         21    1    1    2  503  501 -0.11309781632E+03 -0.10437746441E+02  0.52925795803E+03  0.54130772094E+03  0.00000000000E+00 0.  1.
         21    1    1    2  504  506  0.16897573942E+03  0.47878236127E+02 -0.23479927746E+02  0.17719038635E+03  0.00000000000E+00 0.  1.
         21    1    1    2  505  502 -0.12109668937E+02  0.41577908693E+02  0.40860024539E+02  0.59539131488E+02  0.00000000000E+00 0.  1.
         21    1    1    2  506  503 -0.43768254160E+02 -0.79018398379E+02  0.56780807221E+03  0.57494832309E+03  0.00000000000E+00 0.  1.
<scales pt_clust_3="87.90519" pt_clust_4="179.73864" pt_clust_5="43.30550" pt_clust_6="87.90519"></scales>
<clustering>
<clus scale="   43.306">  2  5  1 -1</clus>
<clus scale="   87.905">  3  6 -1 -1</clus>
<clus scale="  179.739">  2  4  1 -1</clus>
<clus scale="  205.354">  1  3  2 -1</clus>
</clustering>
</event>
<event>
 6    0  0.3042851E+002  0.1496634E+03  0.7546771E-02  0.1200887E+00
         21   -1    0    0  505  501  0.00000000000E+00  0.00000000000E+00  0.31256163872E+03  0.31256163872E+03  0.00000000000E+00 0. -1.
         21   -1    0    0  503  502 -0.00000000000E+00 -0.00000000000E+00 -0.16601804143E+03  0.16601804143E+03  0.00000000000E+00 0. -1.
         21    1    1    2  503  504 -0.71842237681E+02 -0.10952164197E+02  0.13384329997E+03  0.15229998675E+03  0.00000000000E+00 0. -1.
         21    1    1    2  504  501 -0.66017104617E+02  0.52206290498E+02  0.87836316114E+02  0.12165103081E+03  0.00000000000E+00 0. -1.
         21    1    1    2  505  506  0.84359258434E+02 -0.70898722966E+02 -0.32510257976E+01  0.11024374164E+03  0.00000000000E+00 0. -1.
         21    1    1    2  506  502  0.53500083865E+02  0.29644596664E+02 -0.71884992992E+02  0.94384920948E+02  0.00000000000E+00 0. -1.
<scales pt_clust_3="65.58566" pt_clust_4="65.58566" pt_clust_5="131.14463" pt_clust_6="61.16421"></scales>
<clustering>
<clus scale="   61.164">  2  6  1 -1</clus>
<clus scale="   65.586">  3  4 -1 -1</clus>
<clus scale="  131.145">  2  5  1 -1</clus>
<clus scale="  149.663">  1  3  2 -1</clus>
</clustering>
</event>
<event>
 6    0  0.3042851E+002  0.8692073E+02  0.7546771E-02  0.1310485E+00
         21   -1    0    0  506  501  0.00000000000E+00  0.00000000000E+00  0.10671043318E+03  0.10671043318E+03  0.00000000000E+00 0.  1.
         21   -1    0    0  505  502 -0.00000000000E+00 -0.00000000000E+00 -0.31043945263E+03  0.31043945263E+03  0.00000000000E+00 0.  1.
         21    1    1    2  503  502  0.21318894277E+02  0.37892127637E+02 -0.62752671626E+02  0.76342690457E+02  0.00000000000E+00 0.  1.
         21    1    1    2  504  501 -0.51442989508E+01 -0.63293456342E+02 -0.14335961213E+02  0.65100270439E+02  0.00000000000E+00 0.  1.
         21    1    1    2  505  504  0.32082984006E+02 -0.85587060542E+02 -0.12476918070E+03  0.15466677487E+03  0.00000000000E+00 0.  1.
         21    1    1    2  506  503 -0.48257579332E+02  0.11098838925E+03 -0.18712059098E+01  0.12104015004E+03  0.00000000000E+00 0.  1.
<scales pt_clust_3="43.47768" pt_clust_4="57.06908" pt_clust_5="86.92073" pt_clust_6="14000.00000"></scales>
<clustering>
<clus scale="   43.478">  2  3  1 -1</clus>
<clus scale="   57.069">  1  4  2 -1</clus>
<clus scale="   86.921">  2  5  1 -1</clus>
<clus scale="   57.069">  1  3  2 -1</clus>
</clustering>
</event>
<event>
 6    0  0.3042851E+002  0.9599083E+02  0.7546771E-02  0.1288960E+00
         21   -1    0    0  505  501  0.00000000000E+00  0.00000000000E+00  0.26354566486E+03  0.26354566486E+03  0.00000000000E+00 0.  1.
         21   -1    0    0  506  502 -0.00000000000E+00 -0.00000000000E+00 -0.68687718853E+03  0.68687718853E+03  0.00000000000E+00 0. -1.
         21    1    1    2  503  502  0.95590307319E+02 -0.73820266607E+02 -0.59150530600E+03  0.60370975282E+03  0.00000000000E+00 0. -1.
         21    1    1    2  504  501 -0.23419388370E+02  0.56562488842E+02  0.10388547293E+03  0.12058181613E+03  0.00000000000E+00 0.  1.
         21    1    1    2  505  503 -0.73197948735E+02 -0.34764530931E+02  0.12324431598E+03  0.14749804653E+03  0.00000000000E+00 0.  1.
         21    1    1    2  506  504  0.10270297855E+01  0.52022308696E+02 -0.58956006583E+02  0.78633237911E+02  0.00000000000E+00 0.  1.
<scales pt_clust_3="95.99083" pt_clust_4="61.86367" pt_clust_5="14000.00000" pt_clust_6="52.03245"></scales>
<clustering>
<clus scale="   52.032">  2  6  1 -1</clus>
<clus scale="   61.864">  1  4  2 -1</clus>
<clus scale="   95.991">  2  3  1 -1</clus>
<clus scale="   61.864">  1  3  2 -1</clus>
</clustering>
</event>
<event>
 6    0  0.3042851E+002  0.5961478E+02  0.7546771E-02  0.1399455E+00
         21   -1    0    0  503  501  0.00000000000E+00  0.00000000000E+00  0.10456143497E+04  0.10456143497E+04  0.00000000000E+00 0. -1.
         21   -1    0    0  506  502 -0.00000000000E+00 -0.00000000000E+00 -0.10598806183E+04  0.10598806183E+04  0.00000000000E+00 0.  1.
         21    1    1    2  503  505 -0.11397874079E+02 -0.52883308192E+02  0.47811506473E+03  0.48116584556E+03  0.00000000000E+00 0. -1.
         21    1    1    2  504  502 -0.55075859580E+02 -0.22593030890E+02 -0.10252007578E+04  0.10269276456E+04  0.00000000000E+00 0.  1.
         21    1    1    2  505  504 -0.40037460316E+02  0.39187868204E+02  0.33682203954E+01  0.56125147230E+02  0.00000000000E+00 0. -1.
         21    1    1    2  506  501  0.10651119398E+03  0.36288470878E+02  0.52945120404E+03  0.54127632963E+03  0.00000000000E+00 0. -1.
<scales pt_clust_3="54.09765" pt_clust_4="14000.00000" pt_clust_5="54.56096" pt_clust_6="59.61478"></scales>
<clustering>
<clus scale="   54.098">  1  3  2 -1</clus>
<clus scale="   54.561">  1  5  2 -1</clus>
<clus scale="   59.615">  1  6  2 -1</clus>
<clus scale="   54.098">  1  3  2 -1</clus>
</clustering>
</event>
<event>
 6    0  0.4553382E+002  0.1020678E+03  0.7546771E-02  0.1276007E+00
         21   -1    0    0  506  501  0.00000000000E+00  0.00000000000E+00  0.29106837293E+03  0.29106837293E+03  0.00000000000E+00 0. -1.
         21   -1    0    0  505  502 -0.00000000000E+00 -0.00000000000E+00 -0.14229116541E+04  0.14229116541E+04  0.00000000000E+00 0. -1.
         21    1    1    2  503  502  0.67546820776E+02 -0.33924465221E+02  0.32699937311E+02  0.82357320486E+02  0.00000000000E+00 0. -1.
         21    1    1    2  504  501 -0.19230547442E+02  0.36662807107E+02 -0.34917682773E+02  0.54159209283E+02  0.00000000000E+00 0. -1.
         21    1    1    2  505  504 -0.80588994064E+02  0.64189341657E+02 -0.13453563164E+04  0.13492955479E+04  0.00000000000E+00 0. -1.
         21    1    1    2  506  503  0.32272720730E+02 -0.66927683543E+02  0.21573078074E+03  0.22816794930E+03  0.00000000000E+00 0. -1.
<scales pt_clust_3="102.06782" pt_clust_4="41.40019" pt_clust_5="14000.00000" pt_clust_6="41.68741"></scales>
<clustering>
<clus scale="   41.400">  1  4  2 -1</clus>
<clus scale="   41.687">  1  6  2 -1</clus>
<clus scale="  102.068">  1  3  2 -1</clus>
<clus scale="   41.400">  1  3  2 -1</clus>
</clustering>
</event>
<event>
 6    0  0.3042851E+002  0.1391255E+03  0.7546771E-02  0.1214511E+00
         21   -1    0    0  506  501  0.00000000000E+00  0.00000000000E+00  0.65871451528E+02  0.65871451528E+02  0.00000000000E+00 0.  1.
         21   -1    0    0  504  502 -0.00000000000E+00 -0.00000000000E+00 -0.44725900481E+03  0.44725900481E+03  0.00000000000E+00 0.  1.
         21    1    1    2  503  502  0.22910464058E+02  0.11201714195E+03 -0.19254502637E+03  0.22393373269E+03  0.00000000000E+00 0.  1.
         21    1    1    2  504  505 -0.19785428643E+01 -0.40824628485E+02 -0.10024646725E+02  0.42083945452E+02  0.00000000000E+00 0.  1.
         21    1    1    2  505  501  0.98414440755E+01 -0.11306277369E+03 -0.14867266922E+03  0.18703905311E+03  0.00000000000E+00 0.  1.
         21    1    1    2  506  503 -0.30773365269E+02  0.41870260225E+02 -0.30145210964E+02  0.60073725083E+02  0.00000000000E+00 0.  1.
<scales pt_clust_3="125.64456" pt_clust_4="35.85347" pt_clust_5="35.85347" pt_clust_6="51.96267"></scales>
<clustering>
<clus scale="   35.853">  4  5 -1 -1</clus>
<clus scale="   51.963">  1  6  2 -1</clus>
<clus scale="  125.645">  2  3  1 -1</clus>
<clus scale="   51.963">  1  3  2 -1</clus>
</clustering>
</event>
<event>
 6    0  0.3042851E+002  0.1165751E+03  0.7546771E-02  0.1248856E+00
         21   -1    0    0  505  501  0.00000000000E+00  0.00000000000E+00  0.83850983818E+03  0.83850983818E+03  0.00000000000E+00 0.  1.
         21   -1    0    0  503  502 -0.00000000000E+00 -0.00000000000E+00 -0.13382576643E+03  0.13382576643E+03  0.00000000000E+00 0. -1.
         21    1    1    2  503  506  0.12304314244E+03  0.59947122706E+01  0.11406133651E+03  0.16788549658E+03  0.00000000000E+00 0.  1.
         21    1    1    2  504  501 -0.43785942700E+02  0.44679904080E+01  0.24594263270E+03  0.24984985551E+03  0.00000000000E+00 0.  1.
         21    1    1    2  505  502 -0.95214287828E+02 -0.71679682592E+02 -0.67922587440E+02  0.13717585570E+03  0.00000000000E+00 0. -1.
         21    1    1    2  506  504  0.15957088089E+02  0.61216979913E+02  0.41260268998E+03  0.41742439683E+03  0.00000000000E+00 0.  1.
<scales pt_clust_3="14000.00000" pt_clust_4="44.01331" pt_clust_5="116.57511" pt_clust_6="66.03876"></scales>
<clustering>
<clus scale="   44.013">  1  4  2 -1</clus>
<clus scale="   66.039">  1  6  2 -1</clus>
<clus scale="  116.575">  2  5  1 -1</clus>
<clus scale="   44.013">  1  3  2 -1</clus>
</clustering>
</event>
<event>
 6    0  0.3042851E+002  0.1500293E+03  0.7546771E-02  0.1200437E+00
         21   -1    0    0  506  501  0.00000000000E+00  0.00000000000E+00  0.62725758666E+03  0.62725758666E+03  0.00000000000E+00 0.  1.
         21   -1    0    0  505  502 -0.00000000000E+00 -0.00000000000E+00 -0.17547527017E+04  0.17547527017E+04  0.00000000000E+00 0. -1.
         21    1    1    2  503  501  0.89146839965E+02  0.59106811238E+02  0.54163218618E+03  0.55209256408E+03  0.00000000000E+00 0.  1.
         21    1    1    2  504  503  0.82123258455E+02  0.58993077956E+02 -0.33778294363E+03  0.35259286697E+03  0.00000000000E+00 0.  1.
         21    1    1    2  505  504 -0.17652904574E+03 -0.86175141467E+02 -0.13934863713E+04  0.14072643412E+04  0.00000000000E+00 0. -1.
         21    1    1    2  506  502  0.52589473245E+01 -0.31924747726E+02  0.62142013739E+02  0.70060516098E+02  0.00000000000E+00 0. -1.
<scales pt_clust_3="98.34080" pt_clust_4="150.02930" pt_clust_5="14000.00000" pt_clust_6="32.35500"></scales>
<clustering>
<clus scale="   32.355">  1  6  2 -1</clus>
<clus scale="   98.341">  1  3  2 -1</clus>
<clus scale="  150.029">  1  4  2 -1</clus>
<clus scale="   32.355">  1  3  2 -1</clus>
</clustering>
</event>
<event>
 6    0  0.3042851E+002  0.1473719E+03  0.7546771E-02  0.1203740E+00
         21   -1    0    0  503  501  0.00000000000E+00  0.00000000000E+00  0.19366038035E+03  0.19366038035E+03  0.00000000000E+00 0. -1.
         21   -1    0    0  504  502 -0.00000000000E+00 -0.00000000000E+00 -0.12375638805E+04  0.12375638805E+04  0.00000000000E+00 0.  1.
         21    1    1    2  503  506 -0.12511258283E+02 -0.80683994493E+02  0.77466810157E+02  0.11255018981E+03  0.00000000000E+00 0. -1.
         21    1    1    2  504  501 -0.57277845997E+02  0.11525012548E+03 -0.11218119901E+04  0.11291702636E+04  0.00000000000E+00 0.  1.
         21    1    1    2  505  502  0.29211042366E+02  0.16630987056E+02 -0.79470620984E+02  0.86287046109E+02  0.00000000000E+00 0. -1.
         21    1    1    2  506  505  0.40578061914E+02 -0.51197118044E+02  0.79912300769E+02  0.10321676133E+03  0.00000000000E+00 0. -1.
<scales pt_clust_3="53.84630" pt_clust_4="134.57951" pt_clust_5="33.61361" pt_clust_6="53.84630"></scales>
<clustering>
<clus scale="   33.614">  2  5  1 -1</clus>
<clus scale="   53.846">  3  6 -1 -1</clus>
<clus scale="  134.580">  2  4  1 -1</clus>
<clus scale="  147.372">  1  3  2 -1</clus>
</clustering>
</event>
<event>
 6    0  0.3042851E+002  0.8725296E+02  0.7546771E-02  0.1309644E+00
         21   -1    0    0  506  501  0.00000000000E+00  0.00000000000E+00  0.88300890146E+02  0.88300890146E+02  0.00000000000E+00 0.  1.
         21   -1    0    0  504  502 -0.00000000000E+00 -0.00000000000E+00 -0.15886215898E+04  0.15886215898E+04  0.00000000000E+00 0.  1.
         21    1    1    2  503  502 -0.52541054647E+01 -0.64313827266E+02 -0.11766446113E+04  0.11784126676E+04  0.00000000000E+00 0.  1.
         21    1    1    2  504  501 -0.14046156419E+02 -0.31449968481E+02 -0.18672987790E+03  0.18988007355E+03  0.00000000000E+00 0.  1.
         21    1    1    2  505  503  0.81383729525E+02  0.54460152874E+02 -0.19227630534E+03  0.21577626672E+03  0.00000000000E+00 0.  1.
         21    1    1    2  506  505 -0.62083467641E+02  0.41303642873E+02  0.55330094881E+02  0.92853472033E+02  0.00000000000E+00 0.  1.
<scales pt_clust_3="87.25296" pt_clust_4="34.44409" pt_clust_5="14000.00000" pt_clust_6="74.49241"></scales>
<clustering>
<clus scale="   34.444">  2  4  1 -1</clus>
<clus scale="   74.492">  1  6  2 -1</clus>
<clus scale="   87.253">  2  3  1 -1</clus>
<clus scale="   74.492">  1  3  2 -1</clus>
</clustering>
</event>
<event>
 6    0  0.3042851E+002  0.8651389E+02  0.7546771E-02  0.1311520E+00
         21   -1    0    0  503  501  0.00000000000E+00  0.00000000000E+00  0.14948293233E+03  0.14948293233E+03  0.00000000000E+00 0.  1.
         21   -1    0    0  504  502 -0.00000000000E+00 -0.00000000000E+00 -0.87918583190E+03  0.87918583190E+03  0.00000000000E+00 0. -1.
         21    1    1    2  503  506 -0.96812459933E+02 -0.68857697828E+02  0.10064872434E+03  0.15570549335E+03  0.00000000000E+00 0.  1.
         21    1    1    2  504  505  0.34634862453E+02  0.69412995685E+02 -0.16621132223E+03  0.18342284837E+03  0.00000000000E+00 0. -1.
         21    1    1    2  505  501  0.27853200627E+02  0.15625374441E+02 -0.88335058277E+01  0.33135840669E+02  0.00000000000E+00 0. -1.
         21    1    1    2  506  502  0.34324396853E+02 -0.16180672298E+02 -0.65530679585E+03  0.65640458184E+03  0.00000000000E+00 0. -1.
<scales pt_clust_3="14000.00000" pt_clust_4="86.51389" pt_clust_5="31.93670" pt_clust_6="38.02126"></scales>
<clustering>
<clus scale="   31.937">  1  5  2 -1</clus>
<clus scale="   38.021">  2  6  1 -1</clus>
<clus scale="   86.514">  2  4  1 -1</clus>
<clus scale="   31.937">  1  3  2 -1</clus>
</clustering>
</event>
<event>
 6    0  0.3042851E+002  0.9032912E+02  0.7546771E-02  0.1302057E+00
         21   -1    0    0  506  501  0.00000000000E+00  0.00000000000E+00  0.10263891720E+03  0.10263891720E+03  0.00000000000E+00 0. -1.
         21   -1    0    0  501  502 -0.00000000000E+00 -0.00000000000E+00 -0.46862757441E+03  0.46862757441E+03  0.00000000000E+00 0. -1.
         21    1    1    2  503  505 -0.64721300939E+02  0.19021506359E+02 -0.30424755146E+03  0.31163638598E+03  0.00000000000E+00 0. -1.
         21    1    1    2  504  503  0.18597630587E+02 -0.90051791028E+02  0.29255564899E+01  0.91998672879E+02  0.00000000000E+00 0. -1.
         21    1    1    2  505  502 -0.97835707613E+01  0.54297707537E+02 -0.88748762493E+02  0.10450024950E+03  0.00000000000E+00 0. -1.
         21    1    1    2  506  504  0.55907241114E+02  0.16732577132E+02  0.24082100254E+02  0.63131183254E+02  0.00000000000E+00 0. -1.
<scales pt_clust_3="14000.00000" pt_clust_4="90.32912" pt_clust_5="55.17209" pt_clust_6="58.75319"></scales>
<clustering>
<clus scale="   55.172">  2  5  1 -1</clus>
<clus scale="   58.753">  1  6  2 -1</clus>
<clus scale="   90.329">  1  4  2 -1</clus>
<clus scale="   58.753">  1  3  2 -1</clus>
</clustering>
</event>
<event>
 6    0  0.3042851E+002  0.8961769E+02  0.7546771E-02  0.1303780E+00
         21   -1    0    0  503  501  0.00000000000E+00  0.00000000000E+00  0.23707158209E+03  0.23707158209E+03  0.00000000000E+00 0.  1.
         21   -1    0    0  506  502 -0.00000000000E+00 -0.00000000000E+00 -0.13405835481E+03  0.13405835481E+03  0.00000000000E+00 0.  1.
         21    1    1    2  503  504 -0.12035627165E+02 -0.60748017269E+02  0.97248835183E+02  0.11529316488E+03  0.00000000000E+00 0.  1.
         21    1    1    2  504  502 -0.63075579301E+02  0.58889497464E+02 -0.70367000749E+02  0.11134638032E+03  0.00000000000E+00 0.  1.
         21    1    1    2  505  501  0.66133952389E+02 -0.28683368879E+02  0.84992933567E+02  0.11144610386E+03  0.00000000000E+00 0.  1.
         21    1    1    2  506  505  0.89772540764E+01  0.30541888684E+02 -0.88615407285E+01  0.33044287846E+02  0.00000000000E+00 0.  1.
<scales pt_clust_3="59.40028" pt_clust_4="89.61769" pt_clust_5="14000.00000" pt_clust_6="31.83391"></scales>
<clustering>
<clus scale="   31.834">  2  6  1 -1</clus>
<clus scale="   59.400">  1  3  2 -1</clus>
<clus scale="   89.618">  2  4  1 -1</clus>
<clus scale="   59.400">  1  3  2 -1</clus>
</clustering>
</event>
<event>
 6    0  0.3184033E+002  0.1072611E+03  0.7546771E-02  0.1265728E+00
         21   -1    0    0  506  501  0.00000000000E+00  0.00000000000E+00  0.52297225314E+03  0.52297225314E+03  0.00000000000E+00 0. -1.
         21   -1    0    0  505  502 -0.00000000000E+00 -0.00000000000E+00 -0.43117889060E+03  0.43117889060E+03  0.00000000000E+00 0.  1.
         21    1    1    2  503  502  0.41713250959E+02 -0.52455562127E+02 -0.33460076956E+03  0.34124662092E+03  0.00000000000E+00 0.  1.
         21    1    1    2  504  501 -0.52188668663E+02  0.10187325064E+03  0.47142370460E+03  0.48512073301E+03  0.00000000000E+00 0. -1.
         21    1    1    2  505  504 -0.36155665949E+02  0.41360250018E+01 -0.43556390318E+02  0.56758241873E+02  0.00000000000E+00 0.  1.
         21    1    1    2  506  503  0.46631083653E+02 -0.53553713519E+02 -0.14731821834E+01  0.71025547939E+02  0.00000000000E+00 0.  1.
<scales pt_clust_3="49.73204" pt_clust_4="14000.00000" pt_clust_5="36.39147" pt_clust_6="107.26114"></scales>
<clustering>
<clus scale="   36.391">  2  5  1 -1</clus>
<clus scale="   49.732">  2  3  1 -1</clus>
<clus scale="  107.261">  2  6  1 -1</clus>
<clus scale="  107.261">  1  3  2 -1</clus>
</clustering>
</event>
<event>
 6    0  0.3042851E+002  0.1432754E+03  0.7546771E-02  0.1208988E+00
         21   -1    0    0  505  501  0.00000000000E+00  0.00000000000E+00  0.10597607667E+03  0.10597607667E+03  0.00000000000E+00 0.  1.
         21   -1    0    0  506  502 -0.00000000000E+00 -0.00000000000E+00 -0.47514282257E+03  0.47514282257E+03  0.00000000000E+00 0. -1.
         21    1    1    2  503  502  0.48356773967E+02 -0.45297990280E+02 -0.26948408307E+03  0.27751028187E+03  0.00000000000E+00 0. -1.
         21    1    1    2  504  501 -0.65684613009E+02  0.76681414331E+02  0.36721644252E+02  0.10743829320E+03  0.00000000000E+00 0.  1.
         21    1    1    2  505  503  0.37830470050E+02 -0.77744561707E+02 -0.10700491029E+03  0.13756966296E+03  0.00000000000E+00 0.  1.
         21    1    1    2  506  504 -0.20502631009E+02  0.46361137656E+02 -0.29399396782E+02  0.58600661209E+02  0.00000000000E+00 0.  1.
<scales pt_clust_3="66.25923" pt_clust_4="49.83991" pt_clust_5="124.82082" pt_clust_6="49.83991"></scales>
<clustering>
<clus scale="   49.840">  4  6 -1 -1</clus>
<clus scale="   66.259">  2  3  1 -1</clus>
<clus scale="  124.821">  2  5  1 -1</clus>
<clus scale="  143.275">  1  3  2 -1</clus>
</clustering>
</event>
<event>
 6    0  0.3042851E+002  0.1017697E+03  0.7546771E-02  0.1276618E+00
         21   -1    0    0  504  501  0.00000000000E+00  0.00000000000E+00  0.19137654362E+03  0.19137654362E+03  0.00000000000E+00 0. -1.
         21   -1    0    0  506  502 -0.00000000000E+00 -0.00000000000E+00 -0.42708386174E+03  0.42708386174E+03  0.00000000000E+00 0. -1.
         21    1    1    2  503  505  0.19139260325E+01 -0.51301310436E+02 -0.21077193779E+03  0.21693385472E+03  0.00000000000E+00 0. -1.
         21    1    1    2  504  502  0.44150579309E+02  0.49304938299E+02  0.35474544933E+02  0.75091237387E+02  0.00000000000E+00 0. -1.
         21    1    1    2  505  501 -0.76285810672E+02  0.43680772542E+02  0.11435839127E+03  0.14424068931E+03  0.00000000000E+00 0. -1.
         21    1    1    2  506  503  0.30221305330E+02 -0.41684400406E+02 -0.17476831653E+03  0.18219462395E+03  0.00000000000E+00 0. -1.
<scales pt_clust_3="31.31092" pt_clust_4="66.18346" pt_clust_5="96.81858" pt_clust_6="31.31092"></scales>
<clustering>
<clus scale="   31.311">  3  6 -1 -1</clus>
<clus scale="   66.183">  1  4  2 -1</clus>
<clus scale="   96.819">  1  5  2 -1</clus>
<clus scale="   66.183">  1  3  2 -1</clus>
</clustering>
</event>
<event>
 6    0  0.3042851E+002  0.1178963E+03  0.7546771E-02  0.1246608E+00
         21   -1    0    0  506  501  0.00000000000E+00  0.00000000000E+00  0.47223206718E+02  0.47223206718E+02  0.00000000000E+00 0. -1.
         21   -1    0    0  505  502 -0.00000000000E+00 -0.00000000000E+00 -0.51680138561E+03  0.51680138561E+03  0.00000000000E+00 0. -1.
         21    1    1    2  503  501  0.42997630470E+02 -0.10324230769E+02 -0.65158499532E+02  0.78746530262E+02  0.00000000000E+00 0.  1.
         21    1    1    2  504  502 -0.37204050256E+02 -0.53977736242E+02 -0.16620804990E+03  0.17866967626E+03  0.00000000000E+00 0. -1.
         21    1    1    2  505  503  0.79991860871E+02  0.69455360961E+02 -0.14806888601E+03  0.18206356026E+03  0.00000000000E+00 0. -1.
         21    1    1    2  506  504 -0.85785441085E+02 -0.51533939505E+01 -0.90142743454E+02  0.12454482554E+03  0.00000000000E+00 0. -1.
<scales pt_clust_3="40.51816" pt_clust_4="65.55713" pt_clust_5="40.51816" pt_clust_6="99.83213"></scales>
<clustering>
<clus scale="   40.518">  3  5 -1 -1</clus>
<clus scale="   65.557">  2  4  1 -1</clus>
<clus scale="   99.832">  1  6  2 -1</clus>
<clus scale="   99.832">  1  3  2 -1</clus>
</clustering>
</event>
<event>
 6    0  0.3042851E+002  0.8365649E+02  0.7546771E-02  0.1318984E+00
         21   -1    0    0  503  501  0.00000000000E+00  0.00000000000E+00  0.12171876340E+03  0.12171876340E+03  0.00000000000E+00 0. -1.
         21   -1    0    0  506  502 -0.00000000000E+00 -0.00000000000E+00 -0.40943471089E+03  0.40943471089E+03  0.00000000000E+00 0.  1.
         21    1    1    2  503  505  0.16308212037E+02  0.46925886089E+02  0.72283664233E+02  0.87709319231E+02  0.00000000000E+00 0. -1.
         21    1    1    2  504  501  0.11192650130E+02  0.34412824849E+02  0.69315928277E+01  0.36845147715E+02  0.00000000000E+00 0. -1.
         21    1    1    2  505  502 -0.57120065781E+02 -0.11582169789E+03 -0.28523481354E+03  0.31310743599E+03  0.00000000000E+00 0.  1.
         21    1    1    2  506  504  0.29619203614E+02  0.34482986950E+02 -0.81696391010E+02  0.93491571362E+02  0.00000000000E+00 0. -1.
<scales pt_clust_3="14000.00000" pt_clust_4="36.18726" pt_clust_5="83.65649" pt_clust_6="47.43753"></scales>
<clustering>
<clus scale="   36.187">  1  4  2 -1</clus>
<clus scale="   47.438">  2  6  1 -1</clus>
<clus scale="   83.656">  2  5  1 -1</clus>
<clus scale="   36.187">  1  3  2 -1</clus>
</clustering>
</event>
<event>
 6    0  0.3042851E+002  0.1345174E+03  0.7546771E-02  0.1220903E+00
         21   -1    0    0  504  501  0.00000000000E+00  0.00000000000E+00  0.38895967545E+03  0.38895967545E+03  0.00000000000E+00 0.  1.
         21   -1    0    0  505  502 -0.00000000000E+00 -0.00000000000E+00 -0.36075587543E+03  0.36075587543E+03  0.00000000000E+00 0.  1.
         21    1    1    2  503  502  0.28086241866E+02  0.15368474011E+02 -0.71928637195E+02  0.78732177820E+02  0.00000000000E+00 0.  1.
         21    1    1    2  504  503 -0.61137683977E+02 -0.14677517856E+03  0.29902098908E+03  0.33866550069E+03  0.00000000000E+00 0.  1.
         21    1    1    2  505  506 -0.19518710078E+02  0.54278793919E+02 -0.22749423162E+03  0.23469297589E+03  0.00000000000E+00 0.  1.
         21    1    1    2  506  501  0.52570152190E+02  0.77127910630E+02  0.28605679757E+02  0.97624896485E+02  0.00000000000E+00 0.  1.
<scales pt_clust_3="32.01604" pt_clust_4="134.51736" pt_clust_5="66.79953" pt_clust_6="14000.00000"></scales>
<clustering>
<clus scale="   32.016">  2  3  1 -1</clus>
<clus scale="   66.800">  2  5  1 -1</clus>
<clus scale="  134.517">  1  4  2 -1</clus>
<clus scale="  134.517">  1  3  2 -1</clus>
</clustering>
</event>
<event>
 6    0  0.3042851E+002  0.1149037E+03  0.7546771E-02  0.1251749E+00
         21   -1    0    0  503  501  0.00000000000E+00  0.00000000000E+00  0.46152086084E+02  0.46152086084E+02  0.00000000000E+00 0.  1.
         21   -1    0    0  505  502 -0.00000000000E+00 -0.00000000000E+00 -0.90317744984E+03  0.90317744984E+03  0.00000000000E+00 0.  1.
         21    1    1    2  503  502  0.13502972822E+01 -0.34170903004E+02 -0.10211492596E+03  0.10768905246E+03  0.00000000000E+00 0.  1.
         21    1    1    2  504  501 -0.12038450667E+03  0.27184048382E+02 -0.66871805778E+02  0.14036823124E+03  0.00000000000E+00 0.  1.
         21    1    1    2  505  506  0.43878250221E+02 -0.15373635656E+02 -0.13680614666E+03  0.14449073078E+03  0.00000000000E+00 0.  1.
         21    1    1    2  506  504  0.75155959165E+02  0.22360490278E+02 -0.55123248536E+03  0.55678152146E+03  0.00000000000E+00 0.  1.
<scales pt_clust_3="34.19757" pt_clust_4="14000.00000" pt_clust_5="49.03007" pt_clust_6="114.90371"></scales>
<clustering>
<clus scale="   34.198">  2  3  1 -1</clus>
<clus scale="   49.030">  2  5  1 -1</clus>
<clus scale="  114.904">  2  6  1 -1</clus>
<clus scale="  114.904">  1  3  2 -1</clus>
</clustering>
</event>
<event>
 6    0  0.3042851E+002  0.1878727E+03  0.7546771E-02  0.1160394E+00
         21   -1    0    0  503  501  0.00000000000E+00  0.00000000000E+00  0.47620377116E+03  0.47620377116E+03  0.00000000000E+00 0. -1.
         21   -1    0    0  505  502 -0.00000000000E+00 -0.00000000000E+00 -0.34644769031E+03  0.34644769031E+03  0.00000000000E+00 0.  1.
         21    1    1    2  503  502  0.31535290019E+02  0.68715700713E+00 -0.83116562920E+01  0.32619477796E+02  0.00000000000E+00 0. -1.
         21    1    1    2  504  501 -0.59666137127E+02 -0.13380741872E+03  0.30877378189E+03  0.34176852050E+03  0.00000000000E+00 0. -1.
         21    1    1    2  505  506  0.68042065032E+02  0.14415254469E+03 -0.28508281176E+03  0.32662193484E+03  0.00000000000E+00 0.  1.
         21    1    1    2  506  504 -0.39911217924E+02 -0.11032282979E+02  0.11437676701E+03  0.12164152834E+03  0.00000000000E+00 0. -1.
<scales pt_clust_3="31.54278" pt_clust_4="36.75900" pt_clust_5="174.63639" pt_clust_6="36.75900"></scales>
<clustering>
<clus scale="   31.543">  2  3  1 -1</clus>
<clus scale="   36.759">  4  6 -1 -1</clus>
<clus scale="  174.636">  2  5  1 -1</clus>
<clus scale="  187.873">  1  3  2 -1</clus>
</clustering>
</event>
<event>
 6    0  0.3042851E+002  0.1557850E+03  0.7546771E-02  0.1193539E+00
         21   -1    0    0  506  501  0.00000000000E+00  0.00000000000E+00  0.46882174576E+03  0.46882174576E+03  0.00000000000E+00 0. -1.
         21   -1    0    0  504  502 -0.00000000000E+00 -0.00000000000E+00 -0.51095711405E+03  0.51095711405E+03  0.00000000000E+00 0.  1.
         21    1    1    2  503  502  0.13626822010E+03 -0.71257545261E+02  0.31142187128E+02  0.15689646709E+03  0.00000000000E+00 0.  1.
         21    1    1    2  504  505 -0.15880675477E+03 -0.12772590053E+02 -0.42015137263E+03  0.44934385535E+03  0.00000000000E+00 0.  1.
         21    1    1    2  505  501 -0.17910458216E+02  0.61862854217E+02  0.30338191242E+03  0.31014251890E+03  0.00000000000E+00 0. -1.
         21    1    1    2  506  503  0.40448992887E+02  0.22167281097E+02  0.43491904783E+02  0.63396018475E+02  0.00000000000E+00 0.  1.
<scales pt_clust_3="155.78496" pt_clust_4="14000.00000" pt_clust_5="79.14287" pt_clust_6="46.12493"></scales>
<clustering>
<clus scale="   46.125">  1  6  2 -1</clus>
<clus scale="   79.143">  1  5  2 -1</clus>
<clus scale="  155.785">  1  3  2 -1</clus>
<clus scale="   46.125">  1  3  2 -1</clus>
</clustering>
</event>
<event>
 6    0  0.3042851E+002  0.1674570E+03  0.7546771E-02  0.1180526E+00
         21   -1    0    0  503  501  0.00000000000E+00  0.00000000000E+00  0.78149705531E+03  0.78149705531E+03  0.00000000000E+00 0.  1.
         21   -1    0    0  505  502 -0.00000000000E+00 -0.00000000000E+00 -0.75254268807E+02  0.75254268807E+02  0.00000000000E+00 0.  1.
         21    1    1    2  503  504  0.48347454844E+02  0.38903760227E+02  0.24988923426E+03  0.25747933577E+03  0.00000000000E+00 0.  1.
         21    1    1    2  504  506  0.91185936076E+02 -0.23533659421E+02  0.35356704359E+03  0.36589392230E+03  0.00000000000E+00 0.  1.
         21    1    1    2  505  501  0.67238897471E+01  0.36637921530E+02  0.62906811490E+02  0.73108241117E+02  0.00000000000E+00 0.  1.
         21    1    1    2  506  502 -0.14625728067E+03 -0.52008022336E+02  0.39879697159E+02  0.16026982492E+03  0.00000000000E+00 0.  1.
<scales pt_clust_3="60.20835" pt_clust_4="60.20835" pt_clust_5="37.24981" pt_clust_6="152.68572"></scales>
<clustering>
<clus scale="   37.250">  1  5  2 -1</clus>
<clus scale="   60.208">  3  4 -1 -1</clus>
<clus scale="  152.686">  2  6  1 -1</clus>
<clus scale="   37.250">  1  3  2 -1</clus>
</clustering>
</event>
<event>
 6    0  0.3042851E+002  0.1385711E+03  0.7546771E-02  0.1215265E+00
         21   -1    0    0  506  501  0.00000000000E+00  0.00000000000E+00  0.27707781932E+04  0.27707781932E+04  0.00000000000E+00 0.  1.
         21   -1    0    0  501  502 -0.00000000000E+00 -0.00000000000E+00 -0.70864240926E+01  0.70864240926E+01  0.00000000000E+00 0.  1.
         21    1    1    2  503  502  0.37314583858E+02 -0.50396806730E+02  0.54793636136E+03  0.55151289414E+03  0.00000000000E+00 0.  1.
         21    1    1    2  504  505 -0.35616280316E+02  0.72961289387E+01  0.24032743722E+03  0.24306178227E+03  0.00000000000E+00 0.  1.
         21    1    1    2  505  503  0.75085638703E+02  0.29862645709E+01  0.53403810188E+03  0.53929904985E+03  0.00000000000E+00 0.  1.
         21    1    1    2  506  504 -0.76783942245E+02  0.40114413220E+02  0.14413898686E+04  0.14439908910E+04  0.00000000000E+00 0.  1.
<scales pt_clust_3="60.04415" pt_clust_4="36.02255" pt_clust_5="60.04415" pt_clust_6="134.06575"></scales>
<clustering>
<clus scale="   36.023">  4  6 -1 -1</clus>
<clus scale="   60.044">  3  5 -1 -1</clus>
<clus scale="  134.066">  1  4  2 -1</clus>
<clus scale="  134.066">  1  3  2 -1</clus>
</clustering>
</event>
<event>
 6    0  0.3042851E+002  0.1444094E+03  0.7546771E-02  0.1207516E+00
         21   -1    0    0  505  501  0.00000000000E+00  0.00000000000E+00  0.46751505778E+03  0.46751505778E+03  0.00000000000E+00 0.  1.
         21   -1    0    0  504  502 -0.00000000000E+00 -0.00000000000E+00 -0.75548444090E+02  0.75548444090E+02  0.00000000000E+00 0.  1.
         21    1    1    2  503  506 -0.78965076215E+02  0.49955113478E+02  0.84845444736E+02  0.12621309804E+03  0.00000000000E+00 0.  1.
         21    1    1    2  504  503 -0.43713550431E+02  0.20466652817E+02  0.13475970654E+00  0.48267758691E+02  0.00000000000E+00 0.  1.
         21    1    1    2  505  502 -0.58330163998E+01 -0.71467290134E+02  0.77661493917E+02  0.10570196439E+03  0.00000000000E+00 0.  1.
         21    1    1    2  506  501  0.12851164305E+03  0.10455238385E+01  0.22932491533E+03  0.26288068075E+03  0.00000000000E+00 0.  1.
<scales pt_clust_3="40.73750" pt_clust_4="40.73750" pt_clust_5="71.70493" pt_clust_6="132.82099"></scales>
<clustering>
<clus scale="   40.738">  3  4 -1 -1</clus>
<clus scale="   71.705">  1  5  2 -1</clus>
<clus scale="  132.821">  1  6  2 -1</clus>
<clus scale="   71.705">  1  3  2 -1</clus>
</clustering>
</event>
<event>
 6    0  0.3042851E+002  0.1028519E+03  0.7546771E-02  0.1274411E+00
         21   -1    0    0  504  501  0.00000000000E+00  0.00000000000E+00  0.85375390135E+03  0.85375390135E+03  0.00000000000E+00 0. -1.
         21   -1    0    0  506  502 -0.00000000000E+00 -0.00000000000E+00 -0.49382927711E+02  0.49382927711E+02  0.00000000000E+00 0. -1.
         21    1    1    2  503  502  0.50842513949E+02  0.24774197272E+02  0.62689454623E+02  0.84431568718E+02  0.00000000000E+00 0. -1.
         21    1    1    2  504  503 -0.49655717106E+02  0.26917997294E+02  0.16186379947E+03  0.17143558090E+03  0.00000000000E+00 0. -1.
         21    1    1    2  505  501 -0.42258436608E+02  0.49550532069E+02  0.51731603209E+03  0.52139899094E+03  0.00000000000E+00 0. -1.
         21    1    1    2  506  505  0.41071639765E+02 -0.10124272664E+03  0.62501687451E+02  0.12587068850E+03  0.00000000000E+00 0. -1.
<scales pt_clust_3="53.26829" pt_clust_4="56.48246" pt_clust_5="14000.00000" pt_clust_6="102.85188"></scales>
<clustering>
<clus scale="   56.482">  1  4  2 -1</clus>
<clus scale="   53.268">  2  3  1 -1</clus>
<clus scale="  102.852">  2  6  1 -1</clus>
<clus scale="   56.482">  1  3  2 -1</clus>
</clustering>
</event>
<event>
 6    0  0.3042851E+002  0.1528711E+03  0.7546771E-02  0.1196989E+00
         21   -1    0    0  505  501  0.00000000000E+00  0.00000000000E+00  0.24478100774E+04  0.24478100774E+04  0.00000000000E+00 0. -1.
         21   -1    0    0  503  502 -0.00000000000E+00 -0.00000000000E+00 -0.70465038839E+02  0.70465038839E+02  0.00000000000E+00 0. -1.
         21    1    1    2  503  504  0.12987946663E+03  0.36892081599E+02  0.79467808031E+02  0.15666791008E+03  0.00000000000E+00 0. -1.
         21    1    1    2  504  506 -0.19141343433E+03 -0.13667385915E+03  0.45170791788E+03  0.50927290297E+03  0.00000000000E+00 0. -1.
         21    1    1    2  505  502 -0.17366494606E+02  0.56370188979E+02  0.88122692480E+03  0.88319878076E+03  0.00000000000E+00 0. -1.
         21    1    1    2  506  501  0.78900462310E+02  0.43411588571E+02  0.96494238786E+03  0.96913552245E+03  0.00000000000E+00 0. -1.
<scales pt_clust_3="152.87109" pt_clust_4="14000.00000" pt_clust_5="58.98469" pt_clust_6="103.76713"></scales>
<clustering>
<clus scale="   58.985">  1  5  2 -1</clus>
<clus scale="  103.767">  1  6  2 -1</clus>
<clus scale="  152.871">  2  3  1 -1</clus>
<clus scale="   58.985">  1  3  2 -1</clus>
</clustering>
</event>
<event>
 6    0  0.3042851E+002  0.8248664E+02  0.7546771E-02  0.1322139E+00
         21   -1    0    0  506  501  0.00000000000E+00  0.00000000000E+00  0.99539193980E+02  0.99539193980E+02  0.00000000000E+00 0.  1.
         21   -1    0    0  503  502 -0.00000000000E+00 -0.00000000000E+00 -0.41441813671E+03  0.41441813671E+03  0.00000000000E+00 0.  1.
         21    1    1    2  503  505 -0.33230297610E+02  0.50432301334E+02 -0.13810952701E+03  0.15073788889E+03  0.00000000000E+00 0.  1.
         21    1    1    2  504  502 -0.64096619267E+02 -0.40261068571E+02 -0.21842726607E+03  0.23117050159E+03  0.00000000000E+00 0.  1.
         21    1    1    2  505  501  0.58168350556E+02 -0.44452585044E+02  0.22464895712E+02  0.76578462134E+02  0.00000000000E+00 0.  1.
         21    1    1    2  506  504  0.39158566321E+02  0.34281352281E+02  0.19192954631E+02  0.55470478076E+02  0.00000000000E+00 0. -1.
<scales pt_clust_3="61.33830" pt_clust_4="14000.00000" pt_clust_5="82.48664" pt_clust_6="52.04425"></scales>
<clustering>
<clus scale="   52.044">  1  6  2 -1</clus>
<clus scale="   61.338">  2  3  1 -1</clus>
<clus scale="   82.487">  1  5  2 -1</clus>
<clus scale="   52.044">  1  3  2 -1</clus>
</clustering>
</event>
<event>
 6    0  0.3042851E+002  0.1905996E+03  0.7546771E-02  0.1157922E+00
         21   -1    0    0  504  501  0.00000000000E+00  0.00000000000E+00  0.69969016602E+03  0.69969016602E+03  0.00000000000E+00 0.  1.
         21   -1    0    0  506  502 -0.00000000000E+00 -0.00000000000E+00 -0.40552801173E+03  0.40552801173E+03  0.00000000000E+00 0.  1.
         21    1    1    2  503  501  0.58906233742E+00  0.41723257009E+02  0.88009000026E+02  0.97400006444E+02  0.00000000000E+00 0.  1.
         21    1    1    2  504  505  0.15390963746E+01  0.32658976096E+02  0.10010741881E+02  0.34193456835E+02  0.00000000000E+00 0.  1.
         21    1    1    2  505  502 -0.14509281668E+03 -0.12682214851E+03 -0.35386039348E+03  0.40293046655E+03  0.00000000000E+00 0.  1.
         21    1    1    2  506  503  0.14296465797E+03  0.52439915404E+02  0.55000280586E+03  0.57069424792E+03  0.00000000000E+00 0.  1.
<scales pt_clust_3="46.19843" pt_clust_4="32.69522" pt_clust_5="14000.00000" pt_clust_6="190.59956"></scales>
<clustering>
<clus scale="   32.695">  1  4  2 -1</clus>
<clus scale="   46.198">  1  3  2 -1</clus>
<clus scale="  190.600">  1  6  2 -1</clus>
<clus scale="   32.695">  1  3  2 -1</clus>
</clustering>
</event>
<event>
 6    0  0.3042851E+002  0.7707215E+02  0.7546771E-02  0.1337572E+00
         21   -1    0    0  506  501  0.00000000000E+00  0.00000000000E+00  0.10192520962E+03  0.10192520962E+03  0.00000000000E+00 0.  1.
         21   -1    0    0  503  502 -0.00000000000E+00 -0.00000000000E+00 -0.20619311700E+03  0.20619311700E+03  0.00000000000E+00 0.  1.
         21    1    1    2  503  504 -0.24849637351E+01  0.50554937286E+02 -0.47103486868E+02  0.69142716203E+02  0.00000000000E+00 0.  1.
         21    1    1    2  504  505 -0.85411958868E+02 -0.47191313967E+02  0.60249075833E+01  0.97767695804E+02  0.00000000000E+00 0.  1.
         21    1    1    2  505  501  0.38109625486E+02 -0.29974444478E+02  0.92597017124E+01  0.49361452088E+02  0.00000000000E+00 0.  1.
         21    1    1    2  506  502  0.49787297117E+02  0.26610821158E+02 -0.72449029807E+02  0.91846462518E+02  0.00000000000E+00 0.  1.
<scales pt_clust_3="46.12426" pt_clust_4="14000.00000" pt_clust_5="48.48516" pt_clust_6="77.07215"></scales>
<clustering>
<clus scale="   48.485">  1  5  2 -1</clus>
<clus scale="   46.124">  2  3  1 -1</clus>
<clus scale="   77.072">  2  6  1 -1</clus>
<clus scale="   48.485">  1  3  2 -1</clus>
</clustering>
</event>
<event>
 6    0  0.3042851E+002  0.1540300E+03  0.7546771E-02  0.1195607E+00
         21   -1    0    0  506  501  0.00000000000E+00  0.00000000000E+00  0.12170821026E+04  0.12170821026E+04  0.00000000000E+00 0. -1.
         21   -1    0    0  503  502 -0.00000000000E+00 -0.00000000000E+00 -0.24116658601E+03  0.24116658601E+03  0.00000000000E+00 0.  1.
         21    1    1    2  503  505  0.73896245132E+02 -0.79305450109E+02 -0.16710778937E+03  0.19918589993E+03  0.00000000000E+00 0.  1.
         21    1    1    2  504  502 -0.14871462578E+02 -0.76694484173E+02  0.34834230742E+02  0.85537289723E+02  0.00000000000E+00 0.  1.
         21    1    1    2  505  501  0.91292614141E+02  0.87467220983E+02  0.12947238977E+03  0.18096396286E+03  0.00000000000E+00 0.  1.
         21    1    1    2  506  504 -0.15031739670E+03  0.68532713299E+02  0.97871668547E+03  0.99256153610E+03  0.00000000000E+00 0. -1.
<scales pt_clust_3="154.03002" pt_clust_4="78.12301" pt_clust_5="118.94225" pt_clust_6="14000.00000"></scales>
<clustering>
<clus scale="   78.123">  2  4  1 -1</clus>
<clus scale="  118.942">  1  5  2 -1</clus>
<clus scale="  154.030">  2  3  1 -1</clus>
<clus scale="  118.942">  1  3  2 -1</clus>
</clustering>
</event>
<event>
 6    0  0.3042851E+002  0.1928256E+03  0.7546771E-02  0.1155937E+00
         21   -1    0    0  505  501  0.00000000000E+00  0.00000000000E+00  0.83040832105E+02  0.83040832105E+02  0.00000000000E+00 0.  1.
         21   -1    0    0  504  502 -0.00000000000E+00 -0.00000000000E+00 -0.61119603976E+03  0.61119603976E+03  0.00000000000E+00 0.  1.
         21    1    1    2  503  501 -0.11716049892E+03 -0.62848007716E+02 -0.28627882599E+03  0.31564540356E+03  0.00000000000E+00 0.  1.
         21    1    1    2  504  503 -0.58059842349E+02  0.10431368162E+02 -0.15908229764E+03  0.16966713340E+03  0.00000000000E+00 0.  1.
         21    1    1    2  505  506  0.12817074747E+03  0.15585505951E+02 -0.73159740230E+02  0.14840146931E+03  0.00000000000E+00 0.  1.
         21    1    1    2  506  502  0.47049593792E+02  0.36831133603E+02 -0.96343437983E+01  0.60522865587E+02  0.00000000000E+00 0.  1.
<scales pt_clust_3="40.69233" pt_clust_4="40.69233" pt_clust_5="191.81897" pt_clust_6="39.34349"></scales>
<clustering>
<clus scale="   39.343">  5  6 -1 -1</clus>
<clus scale="   40.692">  3  4 -1 -1</clus>
<clus scale="  191.819">  1  5  2 -1</clus>
<clus scale="  191.819">  1  3  2 -1</clus>
</clustering>
</event>
<event>
 6    0  0.3042851E+002  0.1466575E+03  0.7546771E-02  0.1204641E+00
         21   -1    0    0  506  501  0.00000000000E+00  0.00000000000E+00  0.33856956448E+04  0.33856956448E+04  0.00000000000E+00 0. -1.
         21   -1    0    0  504  502 -0.00000000000E+00 -0.00000000000E+00 -0.31895647056E+03  0.31895647056E+03  0.00000000000E+00 0.  1.
         21    1    1    2  503  502  0.71224656985E+02  0.46106276826E+02 -0.26105345266E+03  0.27449525619E+03  0.00000000000E+00 0.  1.
         21    1    1    2  504  505 -0.96520133791E+01  0.91856533266E+02 -0.55267770395E+01  0.92527451766E+02  0.00000000000E+00 0.  1.
         21    1    1    2  505  501  0.15176950803E+02 -0.31742871192E+02  0.10145110951E+04  0.10151210331E+04  0.00000000000E+00 0.  1.
         21    1    1    2  506  503 -0.76749594409E+02 -0.10621993890E+03  0.23188083088E+04  0.23225083743E+04  0.00000000000E+00 0. -1.
<scales pt_clust_3="84.83267" pt_clust_4="146.65746" pt_clust_5="35.18451" pt_clust_6="14000.00000"></scales>
<clustering>
<clus scale="   35.185">  1  5  2 -1</clus>
<clus scale="   84.833">  2  3  1 -1</clus>
<clus scale="  146.657">  2  4  1 -1</clus>
<clus scale="   35.185">  1  3  2 -1</clus>
</clustering>
</event>
<event>
 6    0  0.3042851E+002  0.1764694E+03  0.7546771E-02  0.1171264E+00
         21   -1    0    0  502  501  0.00000000000E+00  0.00000000000E+00  0.44270594051E+03  0.44270594051E+03  0.00000000000E+00 0. -1.
         21   -1    0    0  505  502 -0.00000000000E+00 -0.00000000000E+00 -0.72837854076E+02  0.72837854076E+02  0.00000000000E+00 0.  1.
         21    1    1    2  503  504  0.67075849816E+02 -0.73106782542E+02  0.18109314125E+03  0.20649091285E+03  0.00000000000E+00 0. -1.
         21    1    1    2  504  501  0.40992575360E+02 -0.54457433004E+02  0.55892408402E+02  0.88147402463E+02  0.00000000000E+00 0.  1.
         21    1    1    2  505  506 -0.66699392536E+02  0.10106709524E+03  0.65974942471E+02  0.13789873001E+03  0.00000000000E+00 0.  1.
         21    1    1    2  506  503 -0.41369032639E+02  0.26497120307E+02  0.66907594309E+02  0.83006749258E+02  0.00000000000E+00 0.  1.
<scales pt_clust_3="175.07023" pt_clust_4="43.05408" pt_clust_5="35.97508" pt_clust_6="35.97508"></scales>
<clustering>
<clus scale="   35.975">  5  6 -1 -1</clus>
<clus scale="   43.054">  3  4 -1 -1</clus>
<clus scale="  175.070">  1  3  2 -1</clus>
<clus scale="  175.070">  1  3  2 -1</clus>
</clustering>
</event>
<event>
 6    0  0.3042851E+002  0.1247726E+03  0.7546771E-02  0.1235425E+00
         21   -1    0    0  504  501  0.00000000000E+00  0.00000000000E+00  0.15956313638E+03  0.15956313638E+03  0.00000000000E+00 0.  1.
         21   -1    0    0  505  502 -0.00000000000E+00 -0.00000000000E+00 -0.14445947163E+04  0.14445947163E+04  0.00000000000E+00 0.  1.
         21    1    1    2  503  502  0.42518591879E+02  0.25210958718E+02 -0.22520791289E+03  0.23056892055E+03  0.00000000000E+00 0. -1.
         21    1    1    2  504  503 -0.16674680124E+02  0.46569948653E+02 -0.83824016931E+02  0.97330729419E+02  0.00000000000E+00 0.  1.
         21    1    1    2  505  506  0.39691548176E+02  0.36479395488E+02 -0.10986811213E+04  0.11000028962E+04  0.00000000000E+00 0.  1.
         21    1    1    2  506  501 -0.65535459931E+02 -0.10826030286E+03  0.12268147124E+03  0.17625530650E+03  0.00000000000E+00 0.  1.
<scales pt_clust_3="49.43099" pt_clust_4="50.29506" pt_clust_5="124.77265" pt_clust_6="14000.00000"></scales>
<clustering>
<clus scale="   49.431">  2  3  1 -1</clus>
<clus scale="   50.295">  2  4  1 -1</clus>
<clus scale="  124.773">  2  5  1 -1</clus>
<clus scale="  124.773">  1  3  2 -1</clus>
</clustering>
</event>
<event>
 6    0  0.3042851E+002  0.1086518E+03  0.7546771E-02  0.1263087E+00
         21   -1    0    0  503  501  0.00000000000E+00  0.00000000000E+00  0.49174336758E+03  0.49174336758E+03  0.00000000000E+00 0.  1.
         21   -1    0    0  504  502 -0.00000000000E+00 -0.00000000000E+00 -0.89985768712E+02  0.89985768712E+02  0.00000000000E+00 0. -1.
         21    1    1    2  503  505  0.85903460376E+02  0.44559876401E+02  0.19827895201E+03  0.22063438059E+03  0.00000000000E+00 0.  1.
         21    1    1    2  504  501 -0.17346545100E+02  0.68561447347E+02  0.20028019163E+03  0.21239992902E+03  0.00000000000E+00 0.  1.
         21    1    1    2  505  506 -0.62597083095E+02 -0.80991249619E+02  0.29741305040E+02  0.10659513381E+03  0.00000000000E+00 0. -1.
         21    1    1    2  506  502 -0.59598321810E+01 -0.32130074128E+02 -0.26542849813E+02  0.42099692865E+02  0.00000000000E+00 0. -1.
<scales pt_clust_3="108.65184" pt_clust_4="67.50637" pt_clust_5="14000.00000" pt_clust_6="32.67815"></scales>
<clustering>
<clus scale="   32.678">  2  6  1 -1</clus>
<clus scale="   67.506">  1  4  2 -1</clus>
<clus scale="  108.652">  1  3  2 -1</clus>
<clus scale="   67.506">  1  3  2 -1</clus>
</clustering>
</event>
<event>
 6    0  0.3042851E+002  0.7144337E+02  0.7546771E-02  0.1355252E+00
         21   -1    0    0  503  501  0.00000000000E+00  0.00000000000E+00  0.76947239553E+03  0.76947239553E+03  0.00000000000E+00 0.  1.
         21   -1    0    0  504  502 -0.00000000000E+00 -0.00000000000E+00 -0.13792032604E+03  0.13792032604E+03  0.00000000000E+00 0. -1.
         21    1    1    2  503  505  0.27913063774E+02 -0.59068001818E+02  0.55834860002E+03  0.56215774220E+03  0.00000000000E+00 0.  1.
         21    1    1    2  504  506  0.15156819541E+02 -0.30726217211E+02 -0.57163362364E+02  0.66644426619E+02  0.00000000000E+00 0. -1.
         21    1    1    2  505  502 -0.88156869383E+02  0.26920145441E+02 -0.32939058343E+02  0.97884163246E+02  0.00000000000E+00 0. -1.
         21    1    1    2  506  501  0.45086986067E+02  0.62874073588E+02  0.16330589017E+03  0.18070638950E+03  0.00000000000E+00 0.  1.
<scales pt_clust_3="66.18950" pt_clust_4="34.26120" pt_clust_5="14000.00000" pt_clust_6="71.44337"></scales>
<clustering>
<clus scale="   34.261">  2  4  1 -1</clus>
<clus scale="   66.190">  1  3  2 -1</clus>
<clus scale="   71.443">  1  6  2 -1</clus>
<clus scale="   66.190">  1  3  2 -1</clus>
</clustering>
</event>
<event>
 6    0  0.3042851E+002  0.1174437E+03  0.7546771E-02  0.1247375E+00
         21   -1    0    0  506  501  0.00000000000E+00  0.00000000000E+00  0.47504207243E+03  0.47504207243E+03  0.00000000000E+00 0.  1.
         21   -1    0    0  505  502 -0.00000000000E+00 -0.00000000000E+00 -0.24357570606E+03  0.24357570606E+03  0.00000000000E+00 0.  1.
         21    1    1    2  503  504  0.18146015616E+02  0.29818425322E+02  0.82724511486E+02  0.89787310752E+02  0.00000000000E+00 0.  1.
         21    1    1    2  504  501 -0.28970253807E+02  0.10779503228E+02  0.29183533854E+03  0.29346778037E+03  0.00000000000E+00 0.  1.
         21    1    1    2  505  503  0.34203329137E+02  0.10530695696E+03 -0.15116376902E+03  0.18737638051E+03  0.00000000000E+00 0.  1.
         21    1    1    2  506  502 -0.23379090946E+02 -0.14590488551E+03  0.80702853679E+01  0.14798630685E+03  0.00000000000E+00 0.  1.
<scales pt_clust_3="35.19811" pt_clust_4="30.91073" pt_clust_5="117.44366" pt_clust_6="14000.00000"></scales>
<clustering>
<clus scale="   30.911">  1  4  2 -1</clus>
<clus scale="   35.198">  1  3  2 -1</clus>
<clus scale="  117.444">  2  5  1 -1</clus>
<clus scale="   30.911">  1  3  2 -1</clus>
</clustering>
</event>
<event>
 6    0  0.3042851E+002  0.2094095E+03  0.7546771E-02  0.1142034E+00
         21   -1    0    0  503  501  0.00000000000E+00  0.00000000000E+00  0.11513169823E+03  0.11513169823E+03  0.00000000000E+00 0.  1.
         21   -1    0    0  506  502 -0.00000000000E+00 -0.00000000000E+00 -0.47359679037E+03  0.47359679037E+03  0.00000000000E+00 0.  1.
         21    1    1    2  503  505  0.72701102619E+02  0.42527309017E+02 -0.27015034679E+02  0.88452441645E+02  0.00000000000E+00 0.  1.
         21    1    1    2  504  501 -0.89630394798E+02 -0.12481454801E+02 -0.18767858925E+03  0.20835701872E+03  0.00000000000E+00 0.  1.
         21    1    1    2  505  502  0.11528083615E+03  0.25547273275E+02 -0.12517540211E+02  0.11873930760E+03  0.00000000000E+00 0.  1.
         21    1    1    2  506  504 -0.98351543976E+02 -0.55593127491E+02 -0.13125392799E+03  0.17317972064E+03  0.00000000000E+00 0.  1.
<scales pt_clust_3="31.53609" pt_clust_4="55.75578" pt_clust_5="203.38534" pt_clust_6="55.75578"></scales>
<clustering>
<clus scale="   31.536">  3  5 -1 -1</clus>
<clus scale="   55.756">  4  6 -1 -1</clus>
<clus scale="  203.385">  1  3  2 -1</clus>
<clus scale="  203.385">  1  3  2 -1</clus>
</clustering>
</event>
<event>
 6    0  0.3042851E+002  0.1481245E+03  0.7546771E-02  0.1202797E+00
         21   -1    0    0  506  501  0.00000000000E+00  0.00000000000E+00  0.18387914873E+03  0.18387914873E+03  0.00000000000E+00 0. -1.
         21   -1    0    0  505  502 -0.00000000000E+00 -0.00000000000E+00 -0.18348833672E+03  0.18348833672E+03  0.00000000000E+00 0. -1.
         21    1    1    2  503  504  0.46076085419E+02 -0.35248205492E+02  0.22674973029E+02  0.62286403330E+02  0.00000000000E+00 0. -1.
         21    1    1    2  504  501 -0.94550273777E+02  0.80147720825E+02  0.38835111906E+02  0.12989063608E+03  0.00000000000E+00 0. -1.
         21    1    1    2  505  503  0.10195521685E+03 -0.36980748394E+02 -0.28842602081E+02  0.11222449683E+03  0.00000000000E+00 0. -1.
         21    1    1    2  506  502 -0.53481028489E+02 -0.79187669389E+01 -0.32276670848E+02  0.62965949204E+02  0.00000000000E+00 0. -1.
<scales pt_clust_3="41.92295" pt_clust_4="136.58382" pt_clust_5="41.92295" pt_clust_6="54.06410"></scales>
<clustering>
<clus scale="   41.923">  3  5 -1 -1</clus>
<clus scale="   54.064">  2  6  1 -1</clus>
<clus scale="  136.584">  1  4  2 -1</clus>
<clus scale="  136.584">  1  3  2 -1</clus>
</clustering>
</event>
<event>
 6    0  0.3042851E+002  0.1390158E+03  0.7546771E-02  0.1214659E+00
         21   -1    0    0  503  501  0.00000000000E+00  0.00000000000E+00  0.75697882942E+02  0.75697882942E+02  0.00000000000E+00 0.  1.
         21   -1    0    0  504  502 -0.00000000000E+00 -0.00000000000E+00 -0.76331247863E+03  0.76331247863E+03  0.00000000000E+00 0.  1.
         21    1    1    2  503  505  0.10804185962E+03  0.20303884089E+02  0.94265186896E+01  0.11033653246E+03  0.00000000000E+00 0.  1.
         21    1    1    2  504  501  0.19315257067E+02 -0.26488341345E+02 -0.23011207183E+02  0.40052803133E+02  0.00000000000E+00 0.  1.
         21    1    1    2  505  506 -0.72920946118E+02 -0.22844614172E+02 -0.30242004606E+03  0.31192503112E+03  0.00000000000E+00 0. -1.
         21    1    1    2  506  502 -0.54436170571E+02  0.29029071428E+02 -0.37160986114E+03  0.37669599487E+03  0.00000000000E+00 0.  1.
<scales pt_clust_3="125.30311" pt_clust_4="32.78279" pt_clust_5="53.85478" pt_clust_6="53.85478"></scales>
<clustering>
<clus scale="   32.783">  1  4  2 -1</clus>
<clus scale="   53.855">  5  6 -1 -1</clus>
<clus scale="  125.303">  1  3  2 -1</clus>
<clus scale="   32.783">  1  3  2 -1</clus>
</clustering>
</event>
<event>
 6    0  0.3042851E+002  0.1384872E+03  0.7546771E-02  0.1215379E+00
         21   -1    0    0  503  501  0.00000000000E+00  0.00000000000E+00  0.30377744285E+03  0.30377744285E+03  0.00000000000E+00 0.  1.
         21   -1    0    0  506  502 -0.00000000000E+00 -0.00000000000E+00 -0.93002187136E+02  0.93002187136E+02  0.00000000000E+00 0.  1.
         21    1    1    2  503  505  0.11526797498E+03 -0.39127767705E+02  0.34479322986E+02  0.12651684463E+03  0.00000000000E+00 0.  1.
         21    1    1    2  504  501 -0.55422868524E+02 -0.29368012262E+02  0.93827168487E+02  0.11286147281E+03  0.00000000000E+00 0.  1.
         21    1    1    2  505  502  0.10829241479E+02  0.36583669749E+02 -0.72282552099E+01  0.38831495422E+02  0.00000000000E+00 0. -1.
         21    1    1    2  506  504 -0.70674347932E+02  0.31912110217E+02  0.89697019452E+02  0.11856981712E+03  0.00000000000E+00 0.  1.
<scales pt_clust_3="123.31408" pt_clust_4="54.56282" pt_clust_5="38.15282" pt_clust_6="54.56282"></scales>
<clustering>
<clus scale="   38.153">  2  5  1 -1</clus>
<clus scale="   54.563">  4  6 -1 -1</clus>
<clus scale="  123.314">  2  3  1 -1</clus>
<clus scale="  138.487">  1  3  2 -1</clus>
</clustering>
</event>
<event>
 6    0  0.3042851E+002  0.1119058E+03  0.7546771E-02  0.1257081E+00
         21   -1    0    0  505  501  0.00000000000E+00  0.00000000000E+00  0.61941395199E+03  0.61941395199E+03  0.00000000000E+00 0. -1.
         21   -1    0    0  506  502 -0.00000000000E+00 -0.00000000000E+00 -0.72311631772E+03  0.72311631772E+03  0.00000000000E+00 0. -1.
         21    1    1    2  503  501  0.74780125685E+02  0.37819077617E+02  0.13216619466E+03  0.15649361917E+03  0.00000000000E+00 0.  1.
         21    1    1    2  504  502  0.45448294030E+02  0.12337360753E+02 -0.70050858954E+02  0.84409008647E+02  0.00000000000E+00 0. -1.
         21    1    1    2  505  504  0.34326846872E+02 -0.66376179924E+01  0.45705605316E+03  0.45839134603E+03  0.00000000000E+00 0. -1.
         21    1    1    2  506  503 -0.15455526659E+03 -0.43518820378E+02 -0.62287375459E+03  0.64323629586E+03  0.00000000000E+00 0. -1.
<scales pt_clust_3="111.90581" pt_clust_4="48.49158" pt_clust_5="34.96270" pt_clust_6="14000.00000"></scales>
<clustering>
<clus scale="   34.963">  1  5  2 -1</clus>
<clus scale="   48.492">  2  4  1 -1</clus>
<clus scale="  111.906">  1  3  2 -1</clus>
<clus scale="   34.963">  1  3  2 -1</clus>
</clustering>
</event>
<event>
 6    0  0.3042851E+002  0.2024047E+03  0.7546771E-02  0.1147726E+00
         21   -1    0    0  502  501  0.00000000000E+00  0.00000000000E+00  0.35982324271E+03  0.35982324271E+03  0.00000000000E+00 0.  1.
         21   -1    0    0  504  502 -0.00000000000E+00 -0.00000000000E+00 -0.25972593391E+03  0.25972593391E+03  0.00000000000E+00 0.  1.
         21    1    1    2  503  505 -0.45208794165E+02  0.68756632699E+02 -0.43267675698E+02  0.92969894967E+02  0.00000000000E+00 0.  1.
         21    1    1    2  504  503 -0.35314835539E+02  0.10764336724E+03 -0.13983176689E+03  0.17996431633E+03  0.00000000000E+00 0.  1.
         21    1    1    2  505  506  0.74696447419E+02 -0.11337510061E+03  0.20709314349E+03  0.24763085990E+03  0.00000000000E+00 0.  1.
         21    1    1    2  506  501  0.58271822844E+01 -0.63024899335E+02  0.76103607907E+02  0.98984105421E+02  0.00000000000E+00 0.  1.
<scales pt_clust_3="49.45105" pt_clust_4="49.45105" pt_clust_5="199.85378" pt_clust_6="33.03198"></scales>
<clustering>
<clus scale="   33.032">  5  6 -1 -1</clus>
<clus scale="   49.451">  3  4 -1 -1</clus>
<clus scale="  199.854">  1  5  2 -1</clus>
<clus scale="  199.854">  1  3  2 -1</clus>
</clustering>
</event>
<event>
 6    0  0.3042851E+002  0.1438351E+03  0.7546771E-02  0.1208260E+00
         21   -1    0    0  506  501  0.00000000000E+00  0.00000000000E+00  0.92873330676E+03  0.92873330676E+03  0.00000000000E+00 0.  1.
         21   -1    0    0  503  502 -0.00000000000E+00 -0.00000000000E+00 -0.71377907654E+02  0.71377907654E+02  0.00000000000E+00 0.  1.
         21    1    1    2  503  505  0.50025955881E+01  0.44420244401E+02  0.55616830118E+02  0.71354158026E+02  0.00000000000E+00 0. -1.
         21    1    1    2  504  501 -0.97669082915E+02 -0.26828657231E+02  0.64857364971E+03  0.65643492115E+03  0.00000000000E+00 0.  1.
         21    1    1    2  505  504 -0.36549339335E+02  0.11673776754E+02  0.13285695208E+03  0.13828630079E+03  0.00000000000E+00 0. -1.
         21    1    1    2  506  502  0.12921582666E+03 -0.29265363925E+02  0.20307967199E+02  0.13403583445E+03  0.00000000000E+00 0.  1.
<scales pt_clust_3="44.70105" pt_clust_4="32.00337" pt_clust_5="32.00337" pt_clust_6="134.10720"></scales>
<clustering>
<clus scale="   32.003">  4  5 -1 -1</clus>
<clus scale="   44.701">  2  3  1 -1</clus>
<clus scale="  134.107">  2  6  1 -1</clus>
<clus scale="  143.835">  1  3  2 -1</clus>
</clustering>
</event>
<event>
 6    0  0.3042851E+002  0.1032387E+03  0.7546771E-02  0.1273629E+00
         21   -1    0    0  504  501  0.00000000000E+00  0.00000000000E+00  0.44012310749E+02  0.44012310749E+02  0.00000000000E+00 0. -1.
         21   -1    0    0  506  502 -0.00000000000E+00 -0.00000000000E+00 -0.81731168618E+03  0.81731168618E+03  0.00000000000E+00 0. -1.
         21    1    1    2  503  501 -0.42105073971E+02  0.29898435355E+01 -0.55954777284E+02  0.70090752025E+02  0.00000000000E+00 0. -1.
         21    1    1    2  504  505 -0.30114264332E+02 -0.89345565942E+02 -0.46861235918E+02  0.10528758000E+03  0.00000000000E+00 0. -1.
         21    1    1    2  505  502  0.31842350448E+02  0.86109921976E+02 -0.57488734067E+03  0.58217206082E+03  0.00000000000E+00 0. -1.
         21    1    1    2  506  503  0.40376987855E+02  0.24580042989E+00 -0.95596021559E+02  0.10377360408E+03  0.00000000000E+00 0.  1.
<scales pt_clust_3="38.67654" pt_clust_4="103.23865" pt_clust_5="14000.00000" pt_clust_6="40.37774"></scales>
<clustering>
<clus scale="   40.378">  2  6  1 -1</clus>
<clus scale="   38.677">  1  3  2 -1</clus>
<clus scale="  103.239">  1  4  2 -1</clus>
<clus scale="   38.677">  1  3  2 -1</clus>
</clustering>
</event>
<event>
 6    0  0.4761667E+002  0.1347800E+03  0.7546771E-02  0.1220531E+00
         21   -1    0    0  503  501  0.00000000000E+00  0.00000000000E+00  0.22533984363E+04  0.22533984363E+04  0.00000000000E+00 0.  1.
         21   -1    0    0  504  502 -0.00000000000E+00 -0.00000000000E+00 -0.50118416166E+03  0.50118416166E+03  0.00000000000E+00 0. -1.
         21    1    1    2  503  502  0.48352551527E+02  0.21172986508E+03 -0.41943560467E+03  0.47232799141E+03  0.00000000000E+00 0. -1.
         21    1    1    2  504  505 -0.36008385621E+02 -0.25043950948E+02 -0.28630596618E+02  0.52378567915E+02  0.00000000000E+00 0.  1.
         21    1    1    2  505  506 -0.16805270897E+02 -0.52333787342E+02  0.46761653576E+02  0.72165744454E+02  0.00000000000E+00 0.  1.
         21    1    1    2  506  501  0.44611049904E+01 -0.13435212679E+03  0.21535188224E+04  0.21577102942E+04  0.00000000000E+00 0.  1.
<scales pt_clust_3="134.78001" pt_clust_4="43.86118" pt_clust_5="55.93166" pt_clust_6="14000.00000"></scales>
<clustering>
<clus scale="   43.861">  2  4  1 -1</clus>
<clus scale="   55.932">  2  5  1 -1</clus>
<clus scale="  134.780">  2  3  1 -1</clus>
<clus scale="  134.780">  1  3  2 -1</clus>
</clustering>
</event>
<event>
 6    0  0.3042851E+002  0.1111973E+03  0.7546771E-02  0.1258369E+00
         21   -1    0    0  505  501  0.00000000000E+00  0.00000000000E+00  0.14125168585E+03  0.14125168585E+03  0.00000000000E+00 0. -1.
         21   -1    0    0  504  502 -0.00000000000E+00 -0.00000000000E+00 -0.32277222021E+03  0.32277222021E+03  0.00000000000E+00 0.  1.
         21    1    1    2  503  502 -0.59909001496E+02  0.18980452377E+02 -0.61383602233E+02  0.87848122665E+02  0.00000000000E+00 0.  1.
         21    1    1    2  504  506 -0.31203063825E+02  0.65991799046E+02 -0.19584615389E+03  0.20900781020E+03  0.00000000000E+00 0.  1.
         21    1    1    2  505  503  0.58184898769E+02 -0.92774761693E+02  0.76049470189E+02  0.13332726941E+03  0.00000000000E+00 0. -1.
         21    1    1    2  506  501  0.32927166553E+02  0.78025102702E+01 -0.34024842903E+00  0.33840703786E+02  0.00000000000E+00 0. -1.
<scales pt_clust_3="59.78670" pt_clust_4="111.19731" pt_clust_5="14000.00000" pt_clust_6="33.83899"></scales>
<clustering>
<clus scale="   33.839">  1  6  2 -1</clus>
<clus scale="   59.787">  2  3  1 -1</clus>
<clus scale="  111.197">  2  4  1 -1</clus>
<clus scale="   33.839">  1  3  2 -1</clus>
</clustering>
</event>
<event>
 6    0  0.3042851E+002  0.6683759E+02  0.7546771E-02  0.1371190E+00
         21   -1    0    0  504  501  0.00000000000E+00  0.00000000000E+00  0.12842822369E+04  0.12842822369E+04  0.00000000000E+00 0.  1.
         21   -1    0    0  505  502 -0.00000000000E+00 -0.00000000000E+00 -0.62462202272E+02  0.62462202272E+02  0.00000000000E+00 0.  1.
         21    1    1    2  503  506  0.25784606733E+02 -0.58499729959E+02  0.79928515134E+03  0.80183777505E+03  0.00000000000E+00 0.  1.
         21    1    1    2  504  502 -0.53395300830E+02 -0.48271662002E+02  0.34103771512E+02  0.79650980751E+02  0.00000000000E+00 0.  1.
         21    1    1    2  505  503 -0.50640106419E+01  0.74964400133E+02  0.99140036526E+00  0.75141788412E+02  0.00000000000E+00 0.  1.
         21    1    1    2  506  501  0.32674704739E+02  0.31806991829E+02  0.38743971143E+03  0.39011389497E+03  0.00000000000E+00 0.  1.
<scales pt_clust_3="62.67663" pt_clust_4="66.83759" pt_clust_5="14000.00000" pt_clust_6="45.59957"></scales>
<clustering>
<clus scale="   45.600">  1  6  2 -1</clus>
<clus scale="   62.677">  1  3  2 -1</clus>
<clus scale="   66.838">  1  4  2 -1</clus>
<clus scale="   45.600">  1  3  2 -1</clus>
</clustering>
</event>
<event>
 6    0  0.3042851E+002  0.7919784E+02  0.7546771E-02  0.1331343E+00
         21   -1    0    0  505  501  0.00000000000E+00  0.00000000000E+00  0.44464173843E+03  0.44464173843E+03  0.00000000000E+00 0. -1.
         21   -1    0    0  503  502 -0.00000000000E+00 -0.00000000000E+00 -0.41903861356E+03  0.41903861356E+03  0.00000000000E+00 0. -1.
         21    1    1    2  503  504  0.69851406099E+02 -0.78587240059E+01 -0.36238494030E+03  0.36913930085E+03  0.00000000000E+00 0. -1.
         21    1    1    2  504  501  0.32914878285E+02  0.66525079656E+02  0.20557177471E+03  0.21856058655E+03  0.00000000000E+00 0. -1.
         21    1    1    2  505  506 -0.10467077074E+03 -0.92779015172E+02  0.19464814732E+03  0.23969108694E+03  0.00000000000E+00 0. -1.
         21    1    1    2  506  502  0.19044863514E+01  0.34112659522E+02 -0.12231856865E+02  0.36289377651E+02  0.00000000000E+00 0. -1.
<scales pt_clust_3="79.19784" pt_clust_4="74.73967" pt_clust_5="14000.00000" pt_clust_6="34.16578"></scales>
<clustering>
<clus scale="   34.166">  2  6  1 -1</clus>
<clus scale="   74.740">  1  4  2 -1</clus>
<clus scale="   79.198">  2  3  1 -1</clus>
<clus scale="   74.740">  1  3  2 -1</clus>
</clustering>
</event>
<event>
 6    0  0.3042851E+002  0.7405819E+02  0.7546771E-02  0.1346813E+00
         21   -1    0    0  503  501  0.00000000000E+00  0.00000000000E+00  0.83299735714E+02  0.83299735714E+02  0.00000000000E+00 0. -1.
         21   -1    0    0  506  502 -0.00000000000E+00 -0.00000000000E+00 -0.38552037711E+03  0.38552037711E+03  0.00000000000E+00 0. -1.
         21    1    1    2  503  502 -0.11431732525E+03 -0.18815582769E+02 -0.24559894783E+03  0.27155353097E+03  0.00000000000E+00 0. -1.
         21    1    1    2  504  505  0.50490326245E+02  0.18658171713E+01 -0.57681974685E+01  0.50852988311E+02  0.00000000000E+00 0. -1.
         21    1    1    2  505  501  0.21671860845E+02  0.34312263659E+02  0.32109151235E+02  0.51749382440E+02  0.00000000000E+00 0. -1.
         21    1    1    2  506  504  0.42155138155E+02 -0.17362498062E+02 -0.82962647332E+02  0.94664211105E+02  0.00000000000E+00 0. -1.
<scales pt_clust_3="14000.00000" pt_clust_4="74.05819" pt_clust_5="40.58326" pt_clust_6="46.91857"></scales>
<clustering>
<clus scale="   40.583">  1  5  2 -1</clus>
<clus scale="   46.919">  2  6  1 -1</clus>
<clus scale="   74.058">  1  4  2 -1</clus>
<clus scale="   40.583">  1  3  2 -1</clus>
</clustering>
</event>
<event>
 6    0  0.3042851E+002  0.1176566E+03  0.7546771E-02  0.1247014E+00
         21   -1    0    0  504  501  0.00000000000E+00  0.00000000000E+00  0.12701122112E+03  0.12701122112E+03  0.00000000000E+00 0.  1.
         21   -1    0    0  506  502 -0.00000000000E+00 -0.00000000000E+00 -0.59835974708E+03  0.59835974708E+03  0.00000000000E+00 0.  1.
         21    1    1    2  503  501 -0.92530560240E+02  0.57278472391E+02 -0.15527978545E+02  0.10992654864E+03  0.00000000000E+00 0.  1.
         21    1    1    2  504  505  0.12594639165E+03 -0.26322864362E+02  0.20882644862E+02  0.13035133914E+03  0.00000000000E+00 0.  1.
         21    1    1    2  505  502  0.13671583389E+02 -0.35926866735E+02 -0.28734456945E+03  0.28990438689E+03  0.00000000000E+00 0.  1.
         21    1    1    2  506  503 -0.47087414799E+02  0.49712587053E+01 -0.18935862283E+03  0.19518869354E+03  0.00000000000E+00 0.  1.
<scales pt_clust_3="14000.00000" pt_clust_4="117.65663" pt_clust_5="38.44024" pt_clust_6="42.31270"></scales>
<clustering>
<clus scale="   38.440">  2  5  1 -1</clus>
<clus scale="   42.313">  2  6  1 -1</clus>
<clus scale="  117.657">  1  4  2 -1</clus>
<clus scale="  117.657">  1  3  2 -1</clus>
</clustering>
</event>
<event>
 6    0  0.3042851E+002  0.1460579E+03  0.7546771E-02  0.1205402E+00
         21   -1    0    0  506  501  0.00000000000E+00  0.00000000000E+00  0.54700169052E+03  0.54700169052E+03  0.00000000000E+00 0. -1.
         21   -1    0    0  504  502 -0.00000000000E+00 -0.00000000000E+00 -0.83165480306E+03  0.83165480306E+03  0.00000000000E+00 0. -1.
         21    1    1    2  503  501  0.16551832883E+03 -0.55119156807E+02  0.43133791166E+03  0.46528145532E+03  0.00000000000E+00 0. -1.
         21    1    1    2  504  503 -0.19097421442E+03  0.35345782328E+00 -0.12780123830E+03  0.22979214959E+03  0.00000000000E+00 0. -1.
         21    1    1    2  505  502  0.58325716222E+02  0.37608417037E+02 -0.62646261351E+03  0.63029492171E+03  0.00000000000E+00 0. -1.
         21    1    1    2  506  505 -0.32869830635E+02  0.17157281947E+02  0.38272827606E+02  0.53287966960E+02  0.00000000000E+00 0.  1.
<scales pt_clust_3="14000.00000" pt_clust_4="146.05793" pt_clust_5="69.32948" pt_clust_6="37.07827"></scales>
<clustering>
<clus scale="   37.078">  1  6  2 -1</clus>
<clus scale="   69.329">  2  5  1 -1</clus>
<clus scale="  146.058">  2  4  1 -1</clus>
<clus scale="   37.078">  1  3  2 -1</clus>
</clustering>
</event>
<event>
 6    0  0.3042851E+002  0.7579008E+02  0.7546771E-02  0.1341442E+00
         21   -1    0    0  506  501  0.00000000000E+00  0.00000000000E+00  0.43589133499E+03  0.43589133499E+03  0.00000000000E+00 0. -1.
         21   -1    0    0  504  502 -0.00000000000E+00 -0.00000000000E+00 -0.28330936396E+03  0.28330936396E+03  0.00000000000E+00 0. -1.
         21    1    1    2  503  502 -0.38271052139E+02 -0.54273593373E+02 -0.88218308980E+01  0.66993440499E+02  0.00000000000E+00 0. -1.
         21    1    1    2  504  505  0.12255475448E+02  0.35267767075E+02 -0.21471163175E+03  0.21793369836E+03  0.00000000000E+00 0. -1.
         21    1    1    2  505  501 -0.45300974853E+02  0.60510728072E+02  0.33241509215E+03  0.34090104139E+03  0.00000000000E+00 0. -1.
         21    1    1    2  506  503  0.71316551545E+02 -0.41504901773E+02  0.43700341534E+02  0.93372518685E+02  0.00000000000E+00 0. -1.
<scales pt_clust_3="46.47030" pt_clust_4="37.33647" pt_clust_5="14000.00000" pt_clust_6="75.79008"></scales>
<clustering>
<clus scale="   37.336">  2  4  1 -1</clus>
<clus scale="   46.470">  2  3  1 -1</clus>
<clus scale="   75.790">  2  6  1 -1</clus>
<clus scale="   75.790">  1  3  2 -1</clus>
</clustering>
</event>
<event>
 6    0  0.3042851E+002  0.2888563E+03  0.7546771E-02  0.1090948E+00
         21   -1    0    0  505  501  0.00000000000E+00  0.00000000000E+00  0.56095818617E+02  0.56095818617E+02  0.00000000000E+00 0. -1.
         21   -1    0    0  504  502 -0.00000000000E+00 -0.00000000000E+00 -0.19875983602E+04  0.19875983602E+04  0.00000000000E+00 0. -1.
         21    1    1    2  503  501 -0.19627481774E+03 -0.19047901565E+03 -0.66527502658E+03  0.71930307970E+03  0.00000000000E+00 0. -1.
         21    1    1    2  504  503 -0.64987210168E+01 -0.41522631980E+02 -0.16278838176E+03  0.16812620135E+03  0.00000000000E+00 0. -1.
         21    1    1    2  505  506  0.20555446887E+03  0.14797602106E+03 -0.70670092004E+03  0.75071681269E+03  0.00000000000E+00 0. -1.
         21    1    1    2  506  502 -0.27809301103E+01  0.84025626569E+02 -0.39673821325E+03  0.40554808512E+03  0.00000000000E+00 0. -1.
<scales pt_clust_3="32.56158" pt_clust_4="32.56158" pt_clust_5="276.65522" pt_clust_6="84.07163"></scales>
<clustering>
<clus scale="   32.562">  3  4 -1 -1</clus>
<clus scale="   84.072">  2  6  1 -1</clus>
<clus scale="  276.655">  1  5  2 -1</clus>
<clus scale="  276.655">  1  3  2 -1</clus>
</clustering>
</event>
<event>
 6    0  0.3054361E+002  0.1508063E+03  0.7546771E-02  0.1199486E+00
         21   -1    0    0  504  501  0.00000000000E+00  0.00000000000E+00  0.73508457255E+03  0.73508457255E+03  0.00000000000E+00 0. -1.
         21   -1    0    0  505  502 -0.00000000000E+00 -0.00000000000E+00 -0.59664078302E+03  0.59664078302E+03  0.00000000000E+00 0.  1.
         21    1    1    2  503  506  0.10135195936E+01 -0.51585437791E+02 -0.10738193640E+03  0.11913423051E+03  0.00000000000E+00 0.  1.
         21    1    1    2  504  502  0.13870790654E+02  0.96815785309E+02  0.65799424524E+03  0.66522336241E+03  0.00000000000E+00 0. -1.
         21    1    1    2  505  503 -0.22694278450E+01 -0.85798503594E+02 -0.46878878267E+03  0.47658100705E+03  0.00000000000E+00 0.  1.
         21    1    1    2  506  501 -0.12614882402E+02  0.40568156076E+02  0.56620263367E+02  0.70786755606E+02  0.00000000000E+00 0.  1.
<scales pt_clust_3="49.10422" pt_clust_4="136.80103" pt_clust_5="49.10422" pt_clust_6="42.48424"></scales>
<clustering>
<clus scale="   42.484">  1  6  2 -1</clus>
<clus scale="   49.104">  3  5 -1 -1</clus>
<clus scale="  136.801">  1  4  2 -1</clus>
<clus scale="   42.484">  1  3  2 -1</clus>
</clustering>
</event>
<event>
 6    0  0.3042851E+002  0.1192099E+03  0.7546771E-02  0.1244406E+00
         21   -1    0    0  505  501  0.00000000000E+00  0.00000000000E+00  0.33340958844E+03  0.33340958844E+03  0.00000000000E+00 0. -1.
         21   -1    0    0  506  502 -0.00000000000E+00 -0.00000000000E+00 -0.32469745702E+03  0.32469745702E+03  0.00000000000E+00 0.  1.
         21    1    1    2  503  501 -0.48142563082E+02 -0.76412072932E+01  0.19618820520E+03  0.20215317531E+03  0.00000000000E+00 0. -1.
         21    1    1    2  504  503 -0.67945337713E+02  0.62807323518E+02  0.98990186468E+02  0.13550050119E+03  0.00000000000E+00 0. -1.
         21    1    1    2  505  502  0.77230517074E+02 -0.56449358327E+02 -0.24778700449E+03  0.26561152539E+03  0.00000000000E+00 0.  1.
         21    1    1    2  506  504  0.38857383721E+02  0.12832421023E+01 -0.38679255758E+02  0.54841843568E+02  0.00000000000E+00 0.  1.
<scales pt_clust_3="48.33125" pt_clust_4="14000.00000" pt_clust_5="119.20995" pt_clust_6="38.87857"></scales>
<clustering>
<clus scale="   38.879">  2  6  1 -1</clus>
<clus scale="   48.331">  1  3  2 -1</clus>
<clus scale="  119.210">  2  5  1 -1</clus>
<clus scale="   48.331">  1  3  2 -1</clus>
</clustering>
</event>
<event>
 6    0  0.3042851E+002  0.1473300E+03  0.7546771E-02  0.1203793E+00
         21   -1    0    0  506  501  0.00000000000E+00  0.00000000000E+00  0.22436366374E+04  0.22436366374E+04  0.00000000000E+00 0.  1.
         21   -1    0    0  505  502 -0.00000000000E+00 -0.00000000000E+00 -0.29347969119E+02  0.29347969119E+02  0.00000000000E+00 0.  1.
         21    1    1    2  503  502 -0.91064621355E+01 -0.91614158658E+02  0.83150677604E+02  0.12405690995E+03  0.00000000000E+00 0.  1.
         21    1    1    2  504  501 -0.95587040822E+01  0.80274364185E+02  0.14764138378E+04  0.14786254302E+04  0.00000000000E+00 0.  1.
         21    1    1    2  505  504 -0.61995462157E+01  0.55030354355E+02  0.56290409206E+03  0.56562159712E+03  0.00000000000E+00 0.  1.
         21    1    1    2  506  503  0.24864712433E+02 -0.43690559882E+02  0.91820060800E+02  0.10468066924E+03  0.00000000000E+00 0.  1.
<scales pt_clust_3="41.47560" pt_clust_4="141.87420" pt_clust_5="32.82181" pt_clust_6="41.47560"></scales>
<clustering>
<clus scale="   32.822">  4  5 -1 -1</clus>
<clus scale="   41.476">  3  6 -1 -1</clus>
<clus scale="  141.874">  1  4  2 -1</clus>
<clus scale="  141.874">  1  3  2 -1</clus>
</clustering>
</event>
<event>
 6    0  0.3042851E+002  0.1502249E+03  0.7546771E-02  0.1200197E+00
         21   -1    0    0  503  501  0.00000000000E+00  0.00000000000E+00  0.33411383975E+03  0.33411383975E+03  0.00000000000E+00 0.  1.
         21   -1    0    0  506  502 -0.00000000000E+00 -0.00000000000E+00 -0.33662852100E+03  0.33662852100E+03  0.00000000000E+00 0. -1.
         21    1    1    2  503  504  0.75905403456E+02  0.20313702184E+02  0.10805245230E+03  0.13360242969E+03  0.00000000000E+00 0.  1.
         21    1    1    2  504  505  0.60094692857E+02  0.27000331801E+02  0.18788223162E+03  0.19909827469E+03  0.00000000000E+00 0.  1.
         21    1    1    2  505  502 -0.11022247465E+03 -0.25614522279E+02 -0.27389099853E+03  0.29634671712E+03  0.00000000000E+00 0. -1.
         21    1    1    2  506  501 -0.25777621663E+02 -0.21699511706E+02 -0.24558366639E+02  0.41694939247E+02  0.00000000000E+00 0. -1.
<scales pt_clust_3="44.81374" pt_clust_4="44.81374" pt_clust_5="142.09064" pt_clust_6="33.69502"></scales>
<clustering>
<clus scale="   33.695">  2  6  1 -1</clus>
<clus scale="   44.814">  3  4 -1 -1</clus>
<clus scale="  142.091">  2  5  1 -1</clus>
<clus scale="  150.225">  1  3  2 -1</clus>
</clustering>
</event>
<event>
 6    0  0.3042851E+002  0.1371683E+03  0.7546771E-02  0.1217191E+00
         21   -1    0    0  505  501  0.00000000000E+00  0.00000000000E+00  0.41705863835E+03  0.41705863835E+03  0.00000000000E+00 0.  1.
         21   -1    0    0  503  502 -0.00000000000E+00 -0.00000000000E+00 -0.14507424140E+04  0.14507424140E+04  0.00000000000E+00 0.  1.
         21    1    1    2  503  506 -0.32864127236E+02  0.11134186326E+03 -0.90538105010E+03  0.91279346364E+03  0.00000000000E+00 0.  1.
         21    1    1    2  504  502 -0.66406036847E+02 -0.14277582026E+02 -0.52375076143E+03  0.52813679211E+03  0.00000000000E+00 0.  1.
         21    1    1    2  505  504  0.73680417407E+02 -0.60100974717E+02  0.35100043063E+03  0.36365125240E+03  0.00000000000E+00 0.  1.
         21    1    1    2  506  501  0.25589746676E+02 -0.36963306515E+02  0.44447605219E+02  0.63219544234E+02  0.00000000000E+00 0. -1.
<scales pt_clust_3="14000.00000" pt_clust_4="67.81989" pt_clust_5="137.16832" pt_clust_6="44.95688"></scales>
<clustering>
<clus scale="   44.957">  1  6  2 -1</clus>
<clus scale="   67.820">  2  4  1 -1</clus>
<clus scale="  137.168">  1  5  2 -1</clus>
<clus scale="   44.957">  1  3  2 -1</clus>
</clustering>
</event>
<event>
 6    0  0.3042851E+002  0.1612978E+03  0.7546771E-02  0.1187239E+00
         21   -1    0    0  504  501  0.00000000000E+00  0.00000000000E+00  0.40304819333E+03  0.40304819333E+03  0.00000000000E+00 0. -1.
         21   -1    0    0  503  502 -0.00000000000E+00 -0.00000000000E+00 -0.14231723260E+03  0.14231723260E+03  0.00000000000E+00 0. -1.
         21    1    1    2  503  505  0.65411350195E+02  0.38082017507E+02 -0.43000674975E+02  0.87051380460E+02  0.00000000000E+00 0. -1.
         21    1    1    2  504  506 -0.74507759007E+02 -0.55819327124E+02  0.23129227855E+03  0.24932573383E+03  0.00000000000E+00 0. -1.
         21    1    1    2  505  501  0.47311464877E+02  0.70135044550E+02 -0.28274148054E+02  0.89200485599E+02  0.00000000000E+00 0. -1.
         21    1    1    2  506  502 -0.38215056065E+02 -0.52397734933E+02  0.10071350520E+03  0.11978782604E+03  0.00000000000E+00 0. -1.
<scales pt_clust_3="37.44553" pt_clust_4="33.38128" pt_clust_5="161.19746" pt_clust_6="33.38128"></scales>
<clustering>
<clus scale="   33.381">  4  6 -1 -1</clus>
<clus scale="   37.446">  3  5 -1 -1</clus>
<clus scale="  161.197">  2  3  1 -1</clus>
<clus scale="  161.298">  1  3  2 -1</clus>
</clustering>
</event>
<event>
 6    0  0.3042851E+002  0.1101766E+03  0.7546771E-02  0.1260243E+00
         21   -1    0    0  503  501  0.00000000000E+00  0.00000000000E+00  0.11521969311E+03  0.11521969311E+03  0.00000000000E+00 0.  1.
         21   -1    0    0  506  502 -0.00000000000E+00 -0.00000000000E+00 -0.16759060829E+04  0.16759060829E+04  0.00000000000E+00 0. -1.
         21    1    1    2  503  504  0.81169639376E+02  0.76904769627E+02  0.64595857177E+02  0.12913356927E+03  0.00000000000E+00 0.  1.
         21    1    1    2  504  505  0.17425160617E+02 -0.11330728410E+03 -0.85087691246E+03  0.85856490553E+03  0.00000000000E+00 0. -1.
         21    1    1    2  505  502 -0.47129998077E+02 -0.36122474338E+02 -0.63695487390E+03  0.63971679769E+03  0.00000000000E+00 0. -1.
         21    1    1    2  506  501 -0.51464801916E+02  0.72524988814E+02 -0.13745046057E+03  0.16371050348E+03  0.00000000000E+00 0. -1.
<scales pt_clust_3="14000.00000" pt_clust_4="110.17656" pt_clust_5="59.38072" pt_clust_6="89.03025"></scales>
<clustering>
<clus scale="   59.381">  2  5  1 -1</clus>
<clus scale="   89.030">  2  6  1 -1</clus>
<clus scale="  110.177">  2  4  1 -1</clus>
<clus scale="  110.177">  1  3  2 -1</clus>
</clustering>
</event>
<event>
 6    0  0.3042851E+002  0.2160188E+03  0.7546771E-02  0.1136886E+00
         21   -1    0    0  506  501  0.00000000000E+00  0.00000000000E+00  0.18327810853E+03  0.18327810853E+03  0.00000000000E+00 0. -1.
         21   -1    0    0  503  502 -0.00000000000E+00 -0.00000000000E+00 -0.16505495385E+04  0.16505495385E+04  0.00000000000E+00 0.  1.
         21    1    1    2  503  504 -0.26342726166E+02  0.14388956536E+02 -0.83807397795E+02  0.89020566260E+02  0.00000000000E+00 0.  1.
         21    1    1    2  504  505  0.76161831972E+01 -0.70639071446E+02  0.64834977028E+01  0.71343678092E+02  0.00000000000E+00 0. -1.
         21    1    1    2  505  501 -0.29067006445E+01 -0.13740541704E+03  0.10054456293E+03  0.17028771734E+03  0.00000000000E+00 0. -1.
         21    1    1    2  506  502  0.21633243613E+02  0.19365553195E+03 -0.14904920928E+04  0.15031756853E+04  0.00000000000E+00 0.  1.
<scales pt_clust_3="30.01635" pt_clust_4="43.23605" pt_clust_5="43.23605" pt_clust_6="207.45618"></scales>
<clustering>
<clus scale="   30.016">  2  3  1 -1</clus>
<clus scale="   43.236">  4  5 -1 -1</clus>
<clus scale="  207.456">  2  6  1 -1</clus>
<clus scale="  216.019">  1  3  2 -1</clus>
</clustering>
</event>
<event>
 6    0  0.3042851E+002  0.1963792E+03  0.7546771E-02  0.1152830E+00
         21   -1    0    0  506  501  0.00000000000E+00  0.00000000000E+00  0.84253160690E+03  0.84253160690E+03  0.00000000000E+00 0. -1.
         21   -1    0    0  503  502 -0.00000000000E+00 -0.00000000000E+00 -0.11476763763E+03  0.11476763763E+03  0.00000000000E+00 0. -1.
         21    1    1    2  503  501  0.68650453984E+02  0.13772698057E+03  0.35089383929E+03  0.38315544165E+03  0.00000000000E+00 0. -1.
         21    1    1    2  504  505  0.63595779104E+01 -0.99082027053E+02  0.55006379447E+02  0.11350503996E+03  0.00000000000E+00 0. -1.
         21    1    1    2  505  502 -0.14415905891E+02  0.13835612277E+03  0.10536781193E+03  0.17450676446E+03  0.00000000000E+00 0. -1.
         21    1    1    2  506  504 -0.60594126004E+02 -0.17700107629E+03  0.21649593860E+03  0.28613199847E+03  0.00000000000E+00 0. -1.
<scales pt_clust_3="178.13421" pt_clust_4="60.21836" pt_clust_5="139.10512" pt_clust_6="60.21836"></scales>
<clustering>
<clus scale="   60.218">  4  6 -1 -1</clus>
<clus scale="  139.105">  2  5  1 -1</clus>
<clus scale="  178.134">  1  3  2 -1</clus>
<clus scale="  178.134">  1  3  2 -1</clus>
</clustering>
</event>
<event>
 6    0  0.3042851E+002  0.1410860E+03  0.7546771E-02  0.1211875E+00
         21   -1    0    0  506  501  0.00000000000E+00  0.00000000000E+00  0.12302289882E+03  0.12302289882E+03  0.00000000000E+00 0. -1.
         21   -1    0    0  505  502 -0.00000000000E+00 -0.00000000000E+00 -0.11037707262E+04  0.11037707262E+04  0.00000000000E+00 0. -1.
         21    1    1    2  503  501 -0.54968695925E+02 -0.34981547347E+01 -0.11385498174E+02  0.56244325820E+02  0.00000000000E+00 0. -1.
         21    1    1    2  504  502  0.34590697091E+02 -0.11456904977E+02 -0.47957357795E+03  0.48095591655E+03  0.00000000000E+00 0. -1.
         21    1    1    2  505  503 -0.90355844494E+02  0.39718570552E+02  0.68337896519E+02  0.12004920484E+03  0.00000000000E+00 0. -1.
         21    1    1    2  506  504  0.11073384333E+03 -0.24763510841E+02 -0.55812664776E+03  0.56954417780E+03  0.00000000000E+00 0. -1.
<scales pt_clust_3="53.25230" pt_clust_4="36.43867" pt_clust_5="141.08601" pt_clust_6="14000.00000"></scales>
<clustering>
<clus scale="   36.439">  2  4  1 -1</clus>
<clus scale="   53.252">  1  3  2 -1</clus>
<clus scale="  141.086">  1  5  2 -1</clus>
<clus scale="   53.252">  1  3  2 -1</clus>
</clustering>
</event>
<event>
 6    0  0.3042851E+002  0.2100920E+03  0.7546771E-02  0.1141493E+00
         21   -1    0    0  506  501  0.00000000000E+00  0.00000000000E+00  0.20424785799E+03  0.20424785799E+03  0.00000000000E+00 0. -1.
         21   -1    0    0  503  502 -0.00000000000E+00 -0.00000000000E+00 -0.35131073811E+03  0.35131073811E+03  0.00000000000E+00 0. -1.
         21    1    1    2  503  504 -0.52582392035E+02 -0.59362247937E+02 -0.76483730732E+02  0.11017506750E+03  0.00000000000E+00 0. -1.
         21    1    1    2  504  501 -0.16961359227E+03 -0.23709706769E+02  0.26215496256E+02  0.17325753410E+03  0.00000000000E+00 0. -1.
         21    1    1    2  505  502  0.76247703083E+02  0.67125704012E+02 -0.68728409111E+02  0.12265058738E+03  0.00000000000E+00 0. -1.
         21    1    1    2  506  505  0.14594828122E+03  0.15946250694E+02 -0.28066236531E+02  0.14947540713E+03  0.00000000000E+00 0. -1.
<scales pt_clust_3="79.30186" pt_clust_4="189.01664" pt_clust_5="76.28872" pt_clust_6="76.28872"></scales>
<clustering>
<clus scale="   76.289">  5  6 -1 -1</clus>
<clus scale="   79.302">  2  3  1 -1</clus>
<clus scale="  189.017">  1  4  2 -1</clus>
<clus scale="  189.017">  1  3  2 -1</clus>
</clustering>
</event>
<event>
 6    0  0.3042851E+002  0.1723107E+03  0.7546771E-02  0.1175459E+00
         21   -1    0    0  505  501  0.00000000000E+00  0.00000000000E+00  0.72646149470E+03  0.72646149470E+03  0.00000000000E+00 0.  1.
         21   -1    0    0  503  502 -0.00000000000E+00 -0.00000000000E+00 -0.94010754858E+03  0.94010754858E+03  0.00000000000E+00 0.  1.
         21    1    1    2  503  501 -0.39646945861E+02  0.17615951919E+01 -0.18930633031E+03  0.19342148337E+03  0.00000000000E+00 0.  1.
         21    1    1    2  504  506  0.76290755728E+02  0.56074567882E+02  0.18637352804E+03  0.20904480029E+03  0.00000000000E+00 0.  1.
         21    1    1    2  505  504  0.38302283297E+02  0.80423474867E+02  0.51443834202E+03  0.52209367738E+03  0.00000000000E+00 0.  1.
         21    1    1    2  506  502 -0.74946093164E+02 -0.13825963794E+03 -0.72515159364E+03  0.74200908224E+03  0.00000000000E+00 0.  1.
<scales pt_clust_3="39.68606" pt_clust_4="172.31066" pt_clust_5="88.99980" pt_clust_6="14000.00000"></scales>
<clustering>
<clus scale="   39.686">  2  3  1 -1</clus>
<clus scale="   89.000">  1  5  2 -1</clus>
<clus scale="  172.311">  1  4  2 -1</clus>
<clus scale="   89.000">  1  3  2 -1</clus>
</clustering>
</event>
<event>
 6    0  0.3042851E+002  0.1543113E+03  0.7546771E-02  0.1195273E+00
         21   -1    0    0  506  501  0.00000000000E+00  0.00000000000E+00  0.10303729520E+03  0.10303729520E+03  0.00000000000E+00 0. -1.
         21   -1    0    0  501  502 -0.00000000000E+00 -0.00000000000E+00 -0.65647625229E+03  0.65647625229E+03  0.00000000000E+00 0.  1.
         21    1    1    2  503  504 -0.69247793604E+02  0.29144481754E+01  0.16882532739E+02  0.71335621108E+02  0.00000000000E+00 0. -1.
         21    1    1    2  504  505 -0.11347213687E+03 -0.49968973417E+02 -0.13507327976E+03  0.18335107050E+03  0.00000000000E+00 0. -1.
         21    1    1    2  505  502  0.15645922749E+03  0.81873927534E+02 -0.42471226538E+03  0.45996014853E+03  0.00000000000E+00 0.  1.
         21    1    1    2  506  503  0.26260702991E+02 -0.34819402292E+02 -0.10535944689E+02  0.44866707346E+02  0.00000000000E+00 0. -1.
<scales pt_clust_3="57.73353" pt_clust_4="154.31131" pt_clust_5="14000.00000" pt_clust_6="43.61210"></scales>
<clustering>
<clus scale="   43.612">  1  6  2 -1</clus>
<clus scale="   57.734">  1  3  2 -1</clus>
<clus scale="  154.311">  1  4  2 -1</clus>
<clus scale="   43.612">  1  3  2 -1</clus>
</clustering>
</event>
<event>
 6    0  0.3042851E+002  0.1481886E+03  0.7546771E-02  0.1202717E+00
         21   -1    0    0  502  501  0.00000000000E+00  0.00000000000E+00  0.15495668680E+03  0.15495668680E+03  0.00000000000E+00 0. -1.
         21   -1    0    0  506  502 -0.00000000000E+00 -0.00000000000E+00 -0.12530397332E+04  0.12530397332E+04  0.00000000000E+00 0. -1.
         21    1    1    2  503  505  0.18015144836E+02  0.28815385380E+02 -0.32845770274E+03  0.33021104519E+03  0.00000000000E+00 0. -1.
         21    1    1    2  504  501  0.14485241536E+03  0.13215034149E+02  0.77025103060E+02  0.16458956791E+03  0.00000000000E+00 0. -1.
         21    1    1    2  505  504 -0.15420106728E+03 -0.71456370599E+02 -0.18645632256E+03  0.25228940183E+03  0.00000000000E+00 0. -1.
         21    1    1    2  506  503 -0.86664929106E+01  0.29425951070E+02 -0.66019412412E+03  0.66090640503E+03  0.00000000000E+00 0. -1.
<scales pt_clust_3="47.06030" pt_clust_4="148.18865" pt_clust_5="14000.00000" pt_clust_6="30.67564"></scales>
<clustering>
<clus scale="   30.676">  2  6  1 -1</clus>
<clus scale="   47.060">  2  3  1 -1</clus>
<clus scale="  148.189">  1  4  2 -1</clus>
<clus scale="  148.189">  1  3  2 -1</clus>
</clustering>
</event>
<event>
 6    0  0.3042851E+002  0.1427152E+03  0.7546771E-02  0.1209721E+00
         21   -1    0    0  504  501  0.00000000000E+00  0.00000000000E+00  0.27777261109E+03  0.27777261109E+03  0.00000000000E+00 0.  1.
         21   -1    0    0  503  502 -0.00000000000E+00 -0.00000000000E+00 -0.93642376419E+03  0.93642376419E+03  0.00000000000E+00 0. -1.
         21    1    1    2  503  505 -0.95448455137E+02  0.11021768222E+03 -0.70032275292E+03  0.71533929244E+03  0.00000000000E+00 0. -1.
         21    1    1    2  504  506  0.12851514731E+03 -0.36234707260E+02  0.17189229877E+03  0.21766042239E+03  0.00000000000E+00 0.  1.
         21    1    1    2  505  501 -0.70204728774E+01 -0.40393401696E+02  0.67490784103E+02  0.78967840788E+02  0.00000000000E+00 0.  1.
         21    1    1    2  506  502 -0.26046219297E+02 -0.33589573260E+02 -0.19771148305E+03  0.20222881966E+03  0.00000000000E+00 0.  1.
<scales pt_clust_3="142.71521" pt_clust_4="14000.00000" pt_clust_5="40.99895" pt_clust_6="42.90540"></scales>
<clustering>
<clus scale="   40.999">  1  5  2 -1</clus>
<clus scale="   42.905">  2  6  1 -1</clus>
<clus scale="  142.715">  2  3  1 -1</clus>
<clus scale="   40.999">  1  3  2 -1</clus>
</clustering>
</event>
<event>
 6    0  0.3042851E+002  0.1602397E+03  0.7546771E-02  0.1188426E+00
         21   -1    0    0  505  501  0.00000000000E+00  0.00000000000E+00  0.11940418189E+03  0.11940418189E+03  0.00000000000E+00 0. -1.
         21   -1    0    0  503  502 -0.00000000000E+00 -0.00000000000E+00 -0.51454738939E+03  0.51454738939E+03  0.00000000000E+00 0. -1.
         21    1    1    2  503  506 -0.52351487235E+02 -0.50838506842E+02 -0.21914972834E+03  0.23098016241E+03  0.00000000000E+00 0. -1.
         21    1    1    2  504  501 -0.13188314770E+02  0.43405641946E+02  0.15514098663E+02  0.47944433009E+02  0.00000000000E+00 0. -1.
         21    1    1    2  505  502  0.14441029730E+03  0.44739461339E+02 -0.74829128745E+01  0.15136692952E+03  0.00000000000E+00 0. -1.
         21    1    1    2  506  504 -0.78870495296E+02 -0.37306596444E+02 -0.18402466495E+03  0.20366004634E+03  0.00000000000E+00 0. -1.
<scales pt_clust_3="33.89684" pt_clust_4="45.36498" pt_clust_5="155.89424" pt_clust_6="33.89684"></scales>
<clustering>
<clus scale="   33.897">  3  6 -1 -1</clus>
<clus scale="   45.365">  1  4  2 -1</clus>
<clus scale="  155.894">  1  5  2 -1</clus>
<clus scale="   45.365">  1  3  2 -1</clus>
</clustering>
</event>
<event>
 6    0  0.3042851E+002  0.2895490E+03  0.7546771E-02  0.1090585E+00
         21   -1    0    0  502  501  0.00000000000E+00  0.00000000000E+00  0.99935973459E+03  0.99935973459E+03  0.00000000000E+00 0. -1.
         21   -1    0    0  506  502 -0.00000000000E+00 -0.00000000000E+00 -0.13410728271E+03  0.13410728271E+03  0.00000000000E+00 0.  1.
         21    1    1    2  503  501 -0.16895988107E+03 -0.16555707892E+03  0.63379466449E+03  0.67650001074E+03  0.00000000000E+00 0. -1.
         21    1    1    2  504  505  0.61588197832E+02  0.54058863220E+02  0.60298045020E+02  0.10174144209E+03  0.00000000000E+00 0. -1.
         21    1    1    2  505  503 -0.51998271797E+02  0.91620127888E+01  0.15660884080E+03  0.16526975454E+03  0.00000000000E+00 0. -1.
         21    1    1    2  506  504  0.15936995503E+03  0.10233620291E+03  0.14550901560E+02  0.18995580994E+03  0.00000000000E+00 0.  1.
<scales pt_clust_3="48.54176" pt_clust_4="51.80630" pt_clust_5="48.54176" pt_clust_6="281.93070"></scales>
<clustering>
<clus scale="   48.542">  3  5 -1 -1</clus>
<clus scale="   51.806">  4  6 -1 -1</clus>
<clus scale="  281.931">  2  4  1 -1</clus>
<clus scale="  289.549">  1  3  2 -1</clus>
</clustering>
</event>
<event>
 6    0  0.3042851E+002  0.1721376E+03  0.7546771E-02  0.1175637E+00
         21   -1    0    0  504  501  0.00000000000E+00  0.00000000000E+00  0.17398876560E+03  0.17398876560E+03  0.00000000000E+00 0. -1.
         21   -1    0    0  503  502 -0.00000000000E+00 -0.00000000000E+00 -0.56226719714E+03  0.56226719714E+03  0.00000000000E+00 0. -1.
         21    1    1    2  503  505 -0.97576637689E+02 -0.11694509579E+03 -0.37809027142E+03  0.40761453481E+03  0.00000000000E+00 0. -1.
         21    1    1    2  504  506  0.42513162480E+02  0.55154112661E+02  0.70643683884E+01  0.69994645710E+02  0.00000000000E+00 0. -1.
         21    1    1    2  505  501 -0.96483356048E+02  0.26472307287E+02 -0.24018558517E+02  0.10289174992E+03  0.00000000000E+00 0. -1.
         21    1    1    2  506  502  0.15154683126E+03  0.35318675839E+02  0.67660300069E+01  0.15575503231E+03  0.00000000000E+00 0. -1.
<scales pt_clust_3="157.17613" pt_clust_4="46.95669" pt_clust_5="100.04909" pt_clust_6="46.95669"></scales>
<clustering>
<clus scale="   46.957">  4  6 -1 -1</clus>
<clus scale="  100.049">  1  5  2 -1</clus>
<clus scale="  157.176">  2  3  1 -1</clus>
<clus scale="  100.049">  1  3  2 -1</clus>
</clustering>
</event>
<event>
 6    0  0.3042851E+002  0.1795150E+03  0.7546771E-02  0.1168273E+00
         21   -1    0    0  506  501  0.00000000000E+00  0.00000000000E+00  0.41194189815E+03  0.41194189815E+03  0.00000000000E+00 0.  1.
         21   -1    0    0  505  502 -0.00000000000E+00 -0.00000000000E+00 -0.53428381042E+03  0.53428381042E+03  0.00000000000E+00 0.  1.
         21    1    1    2  503  504  0.13099251432E+03  0.17022890902E+02 -0.51187616384E+02  0.14166506165E+03  0.00000000000E+00 0.  1.
         21    1    1    2  504  502  0.63465280986E+02  0.64731053194E+02 -0.31629354769E+03  0.32902820464E+03  0.00000000000E+00 0.  1.
         21    1    1    2  505  501 -0.11471664641E+01 -0.83723517848E+02 -0.67770470053E+02  0.10772084312E+03  0.00000000000E+00 0.  1.
         21    1    1    2  506  503 -0.19331062884E+03  0.19695737520E+01  0.31290972185E+03  0.36781159915E+03  0.00000000000E+00 0.  1.
<scales pt_clust_3="179.51503" pt_clust_4="62.77929" pt_clust_5="83.73138" pt_clust_6="14000.00000"></scales>
<clustering>
<clus scale="   83.731">  2  5  1 -1</clus>
<clus scale="   62.779">  2  4  1 -1</clus>
<clus scale="  179.515">  2  3  1 -1</clus>
<clus scale="  179.515">  1  3  2 -1</clus>
</clustering>
</event>
<event>
 6    0  0.3042851E+002  0.7402090E+02  0.7546771E-02  0.1346930E+00
         21   -1    0    0  506  501  0.00000000000E+00  0.00000000000E+00  0.54753153399E+02  0.54753153399E+02  0.00000000000E+00 0.  1.
         21   -1    0    0  503  502 -0.00000000000E+00 -0.00000000000E+00 -0.13693464815E+04  0.13693464815E+04  0.00000000000E+00 0.  1.
         21    1    1    2  503  505 -0.42639848829E+02 -0.43755077826E+02 -0.10590686353E+04  0.10608294103E+04  0.00000000000E+00 0.  1.
         21    1    1    2  504  502  0.58470671341E+02  0.69934577750E+01 -0.18143163572E+03  0.19074896146E+03  0.00000000000E+00 0.  1.
         21    1    1    2  505  501 -0.71005170904E+02 -0.21228704632E+02 -0.23155500854E+02  0.77643862702E+02  0.00000000000E+00 0.  1.
         21    1    1    2  506  504  0.55174348391E+02  0.57990324683E+02 -0.50937556269E+02  0.94877400449E+02  0.00000000000E+00 0.  1.
<scales pt_clust_3="38.73437" pt_clust_4="58.88742" pt_clust_5="74.02090" pt_clust_6="14000.00000"></scales>
<clustering>
<clus scale="   58.887">  2  4  1 -1</clus>
<clus scale="   38.734">  2  3  1 -1</clus>
<clus scale="   74.021">  1  5  2 -1</clus>
<clus scale="   74.021">  1  3  2 -1</clus>
</clustering>
</event>
<event>
 6    0  0.3042851E+002  0.2858466E+03  0.7546771E-02  0.1092538E+00
         21   -1    0    0  504  501  0.00000000000E+00  0.00000000000E+00  0.10960904021E+03  0.10960904021E+03  0.00000000000E+00 0.  1.
         21   -1    0    0  505  502 -0.00000000000E+00 -0.00000000000E+00 -0.11848322194E+04  0.11848322194E+04  0.00000000000E+00 0.  1.
         21    1    1    2  503  501 -0.31377444743E+02 -0.29652726925E+02 -0.39165605611E+02  0.58290418729E+02  0.00000000000E+00 0.  1.
         21    1    1    2  504  506  0.35745066028E+02  0.20010620932E+02 -0.58337677682E+01  0.41378346292E+02  0.00000000000E+00 0.  1.
         21    1    1    2  505  503 -0.69925230094E+02 -0.27428466868E+03 -0.69599589810E+03  0.75135338387E+03  0.00000000000E+00 0.  1.
         21    1    1    2  506  502  0.65557608809E+02  0.28392677467E+03 -0.33422790768E+03  0.44341911069E+03  0.00000000000E+00 0.  1.
<scales pt_clust_3="39.04979" pt_clust_4="40.96504" pt_clust_5="285.84656" pt_clust_6="14000.00000"></scales>
<clustering>
<clus scale="   40.965">  1  4  2 -1</clus>
<clus scale="   39.050">  1  3  2 -1</clus>
<clus scale="  285.847">  2  5  1 -1</clus>
<clus scale="   40.965">  1  3  2 -1</clus>
</clustering>
</event>
<event>
 6    0  0.3042851E+002  0.1029174E+03  0.7546771E-02  0.1274278E+00
         21   -1    0    0  506  501  0.00000000000E+00  0.00000000000E+00  0.79900933511E+03  0.79900933511E+03  0.00000000000E+00 0. -1.
         21   -1    0    0  504  502 -0.00000000000E+00 -0.00000000000E+00 -0.57993751314E+02  0.57993751314E+02  0.00000000000E+00 0. -1.
         21    1    1    2  503  505  0.54672831774E+02  0.80168829262E+02  0.32160411814E+02  0.10222745134E+03  0.00000000000E+00 0. -1.
         21    1    1    2  504  503 -0.11881748525E+02 -0.42266043700E+02  0.62421784718E+02  0.76315618359E+02  0.00000000000E+00 0.  1.
         21    1    1    2  505  501 -0.94080269224E+01  0.41456877496E+02  0.21527095858E+02  0.47650808161E+02  0.00000000000E+00 0. -1.
         21    1    1    2  506  502 -0.33383056326E+02 -0.79359663058E+02  0.62490629140E+03  0.63080920856E+03  0.00000000000E+00 0. -1.
<scales pt_clust_3="34.64273" pt_clust_4="43.90438" pt_clust_5="34.64273" pt_clust_6="88.61472"></scales>
<clustering>
<clus scale="   34.643">  3  5 -1 -1</clus>
<clus scale="   43.904">  2  4  1 -1</clus>
<clus scale="   88.615">  1  6  2 -1</clus>
<clus scale="   88.615">  1  3  2 -1</clus>
</clustering>
</event>
<event>
 6    0  0.3042851E+002  0.9217538E+02  0.7546771E-02  0.1297668E+00
         21   -1    0    0  504  501  0.00000000000E+00  0.00000000000E+00  0.57933023357E+03  0.57933023357E+03  0.00000000000E+00 0.  1.
         21   -1    0    0  506  502 -0.00000000000E+00 -0.00000000000E+00 -0.96158268341E+02  0.96158268341E+02  0.00000000000E+00 0.  1.
         21    1    1    2  503  502 -0.19245589239E+02 -0.54128885299E+02 -0.47588509325E+02  0.74598895090E+02  0.00000000000E+00 0.  1.
         21    1    1    2  504  505 -0.24492241280E+02  0.97654229130E+02  0.26383314612E+03  0.28239006239E+03  0.00000000000E+00 0.  1.
         21    1    1    2  505  503  0.27251377197E+01 -0.60107860480E+02  0.14058377239E+02  0.61790122493E+02  0.00000000000E+00 0.  1.
         21    1    1    2  506  501  0.41012692800E+02  0.16582516649E+02  0.25286895120E+03  0.25670942193E+03  0.00000000000E+00 0.  1.
<scales pt_clust_3="56.24342" pt_clust_4="14000.00000" pt_clust_5="92.17538" pt_clust_6="44.23823"></scales>
<clustering>
<clus scale="   44.238">  1  6  2 -1</clus>
<clus scale="   56.243">  2  3  1 -1</clus>
<clus scale="   92.175">  2  5  1 -1</clus>
<clus scale="   44.238">  1  3  2 -1</clus>
</clustering>
</event>
<event>
 6    0  0.3042851E+002  0.8901664E+02  0.7546771E-02  0.1305251E+00
         21   -1    0    0  506  501  0.00000000000E+00  0.00000000000E+00  0.12885419712E+03  0.12885419712E+03  0.00000000000E+00 0.  1.
         21   -1    0    0  503  502 -0.00000000000E+00 -0.00000000000E+00 -0.24423339224E+04  0.24423339224E+04  0.00000000000E+00 0.  1.
         21    1    1    2  503  504  0.32546009575E+02 -0.70717032532E+02 -0.15199673424E+04  0.15219595473E+04  0.00000000000E+00 0.  1.
         21    1    1    2  504  501  0.19212766933E+01  0.91697053053E+02  0.10068709737E+03  0.13619813663E+03  0.00000000000E+00 0.  1.
         21    1    1    2  505  502 -0.73463265992E+02 -0.10576340352E+02 -0.84977438563E+03  0.85300950575E+03  0.00000000000E+00 0.  1.
         21    1    1    2  506  505  0.38995979724E+02 -0.10403680168E+02 -0.44425094609E+02  0.60020929905E+02  0.00000000000E+00 0. -1.
<scales pt_clust_3="89.01664" pt_clust_4="14000.00000" pt_clust_5="73.72505" pt_clust_6="40.35992"></scales>
<clustering>
<clus scale="   40.360">  1  6  2 -1</clus>
<clus scale="   73.725">  2  5  1 -1</clus>
<clus scale="   89.017">  2  3  1 -1</clus>
<clus scale="   40.360">  1  3  2 -1</clus>
</clustering>
</event>
<event>
 6    0  0.3042851E+002  0.3326146E+03  0.7546771E-02  0.1069986E+00
         21   -1    0    0  506  501  0.00000000000E+00  0.00000000000E+00  0.15031680096E+04  0.15031680096E+04  0.00000000000E+00 0. -1.
         21   -1    0    0  503  502 -0.00000000000E+00 -0.00000000000E+00 -0.33766166938E+03  0.33766166938E+03  0.00000000000E+00 0.  1.
         21    1    1    2  503  501  0.11288913188E+03  0.37774263985E+03  0.11886245893E+04  0.12523026281E+04  0.00000000000E+00 0. -1.
         21    1    1    2  504  505 -0.85301105256E+02 -0.17911782605E+03 -0.10340778840E+03  0.22372448428E+03  0.00000000000E+00 0.  1.
         21    1    1    2  505  502  0.30504776673E+02 -0.12306580418E+03 -0.99594470797E+02  0.16122900537E+03  0.00000000000E+00 0.  1.
         21    1    1    2  506  504 -0.58092803298E+02 -0.75559009622E+02  0.17988401006E+03  0.20357356116E+03  0.00000000000E+00 0. -1.
<scales pt_clust_3="313.00287" pt_clust_4="89.95518" pt_clust_5="89.95518" pt_clust_6="95.30969"></scales>
<clustering>
<clus scale="   89.955">  4  5 -1 -1</clus>
<clus scale="   95.310">  1  6  2 -1</clus>
<clus scale="  313.003">  1  3  2 -1</clus>
<clus scale="   95.310">  1  3  2 -1</clus>
</clustering>
</event>
<event>
 6    0  0.3042851E+002  0.1438341E+03  0.7546771E-02  0.1208261E+00
         21   -1    0    0  506  501  0.00000000000E+00  0.00000000000E+00  0.39705040012E+03  0.39705040012E+03  0.00000000000E+00 0. -1.
         21   -1    0    0  504  502 -0.00000000000E+00 -0.00000000000E+00 -0.23467211747E+03  0.23467211747E+03  0.00000000000E+00 0. -1.
         21    1    1    2  503  501 -0.21089142930E+02 -0.52321765016E+02  0.47081275659E+02  0.73477653484E+02  0.00000000000E+00 0.  1.
         21    1    1    2  504  503 -0.13303013902E+03  0.58888391930E+02 -0.13124095974E+03  0.19593123820E+03  0.00000000000E+00 0. -1.
         21    1    1    2  505  502 -0.82928810925E+01 -0.40527894992E+02 -0.21845215810E+02  0.46781359568E+02  0.00000000000E+00 0.  1.
         21    1    1    2  506  505  0.16241216304E+03  0.33961268078E+02  0.26838318254E+03  0.31553226634E+03  0.00000000000E+00 0. -1.
<scales pt_clust_3="59.09442" pt_clust_4="143.83414" pt_clust_5="41.36765" pt_clust_6="14000.00000"></scales>
<clustering>
<clus scale="   41.368">  2  5  1 -1</clus>
<clus scale="   59.094">  1  3  2 -1</clus>
<clus scale="  143.834">  2  4  1 -1</clus>
<clus scale="   59.094">  1  3  2 -1</clus>
</clustering>
</event>
<event>
 6    0  0.3042851E+002  0.1269665E+03  0.7546771E-02  0.1232028E+00
         21   -1    0    0  505  501  0.00000000000E+00  0.00000000000E+00  0.73382449664E+03  0.73382449664E+03  0.00000000000E+00 0.  1.
         21   -1    0    0  504  502 -0.00000000000E+00 -0.00000000000E+00 -0.56238332844E+03  0.56238332844E+03  0.00000000000E+00 0.  1.
         21    1    1    2  503  502  0.45063369562E+02  0.25345334398E+02  0.34017317232E+03  0.34407975880E+03  0.00000000000E+00 0.  1.
         21    1    1    2  504  506  0.23017681426E+02 -0.27643169144E+02 -0.10734557571E+02  0.37539168674E+02  0.00000000000E+00 0.  1.
         21    1    1    2  505  503  0.71380293768E+02 -0.18951361098E+02  0.36525846006E+03  0.37265002761E+03  0.00000000000E+00 0.  1.
         21    1    1    2  506  501 -0.13946134475E+03  0.21249195843E+02 -0.52325590662E+03  0.54193887000E+03  0.00000000000E+00 0.  1.
<scales pt_clust_3="41.51746" pt_clust_4="35.97163" pt_clust_5="41.51746" pt_clust_6="116.84478"></scales>
<clustering>
<clus scale="   35.972">  2  4  1 -1</clus>
<clus scale="   41.517">  3  5 -1 -1</clus>
<clus scale="  116.845">  2  6  1 -1</clus>
<clus scale="  126.966">  1  3  2 -1</clus>
</clustering>
</event>
<event>
 6    0  0.3042851E+002  0.1304462E+03  0.7546771E-02  0.1226795E+00
         21   -1    0    0  506  501  0.00000000000E+00  0.00000000000E+00  0.38837972667E+02  0.38837972667E+02  0.00000000000E+00 0. -1.
         21   -1    0    0  505  502 -0.00000000000E+00 -0.00000000000E+00 -0.21993744272E+04  0.21993744272E+04  0.00000000000E+00 0. -1.
         21    1    1    2  503  501 -0.67380300084E+02  0.15647831644E+03 -0.20762091009E+03  0.26857403199E+03  0.00000000000E+00 0. -1.
         21    1    1    2  504  502  0.75629121838E+02 -0.88933978381E+02 -0.16483508958E+04  0.16524798614E+04  0.00000000000E+00 0. -1.
         21    1    1    2  505  503 -0.31335713044E+02 -0.30459635619E+02 -0.17726533363E+03  0.18257249196E+03  0.00000000000E+00 0.  1.
         21    1    1    2  506  504  0.23086891290E+02 -0.37084702442E+02 -0.12729931503E+03  0.13458601455E+03  0.00000000000E+00 0.  1.
<scales pt_clust_3="130.44622" pt_clust_4="14000.00000" pt_clust_5="44.51751" pt_clust_6="43.68386"></scales>
<clustering>
<clus scale="   43.684">  1  6  2 -1</clus>
<clus scale="   44.518">  2  5  1 -1</clus>
<clus scale="  130.446">  1  3  2 -1</clus>
<clus scale="   43.684">  1  3  2 -1</clus>
</clustering>
</event>
<event>
 6    0  0.3042851E+002  0.1688136E+03  0.7546771E-02  0.1179091E+00
         21   -1    0    0  502  501  0.00000000000E+00  0.00000000000E+00  0.11979668024E+03  0.11979668024E+03  0.00000000000E+00 0. -1.
         21   -1    0    0  505  502 -0.00000000000E+00 -0.00000000000E+00 -0.14268668723E+04  0.14268668723E+04  0.00000000000E+00 0. -1.
         21    1    1    2  503  504  0.72869677315E+01  0.16586852155E+03 -0.40347586340E+01  0.16607752893E+03  0.00000000000E+00 0. -1.
         21    1    1    2  504  501 -0.57420790287E+02 -0.48796581766E+00  0.66547260277E+01  0.57807185076E+02  0.00000000000E+00 0. -1.
         21    1    1    2  505  506  0.12410650869E+02 -0.28895248589E+02 -0.99978005771E+02  0.10480725778E+03  0.00000000000E+00 0. -1.
         21    1    1    2  506  503  0.37723171687E+02 -0.13648530714E+03 -0.12097121537E+04  0.12179715808E+04  0.00000000000E+00 0. -1.
<scales pt_clust_3="168.81355" pt_clust_4="57.19070" pt_clust_5="31.44773" pt_clust_6="14000.00000"></scales>
<clustering>
<clus scale="   31.448">  2  5  1 -1</clus>
<clus scale="   57.191">  1  4  2 -1</clus>
<clus scale="  168.814">  1  3  2 -1</clus>
<clus scale="   57.191">  1  3  2 -1</clus>
</clustering>
</event>
<event>
 6    0  0.3042851E+002  0.2008579E+03  0.7546771E-02  0.1149017E+00
         21   -1    0    0  504  501  0.00000000000E+00  0.00000000000E+00  0.45169690700E+03  0.45169690700E+03  0.00000000000E+00 0.  1.
         21   -1    0    0  503  502 -0.00000000000E+00 -0.00000000000E+00 -0.97004249303E+02  0.97004249303E+02  0.00000000000E+00 0.  1.
         21    1    1    2  503  505 -0.13296460485E+03 -0.52732461928E+02  0.70019666286E+02  0.15925781723E+03  0.00000000000E+00 0.  1.
         21    1    1    2  504  506  0.21088608045E+02  0.44268096621E+02  0.45798827116E+02  0.67096395827E+02  0.00000000000E+00 0.  1.
         21    1    1    2  505  501 -0.25822972183E+02 -0.51358920225E+02  0.29231581993E+02  0.64490696731E+02  0.00000000000E+00 0.  1.
         21    1    1    2  506  502  0.13769896898E+03  0.59823285532E+02  0.20964258230E+03  0.25785624651E+03  0.00000000000E+00 0.  1.
<scales pt_clust_3="200.53076" pt_clust_4="37.45548" pt_clust_5="40.90816" pt_clust_6="37.45548"></scales>
<clustering>
<clus scale="   37.455">  4  6 -1 -1</clus>
<clus scale="   40.908">  3  5 -1 -1</clus>
<clus scale="  200.531">  2  3  1 -1</clus>
<clus scale="  200.858">  1  3  2 -1</clus>
</clustering>
</event>
<event>
 6    0  0.3042851E+002  0.1641732E+03  0.7546771E-02  0.1184064E+00
         21   -1    0    0  503  501  0.00000000000E+00  0.00000000000E+00  0.40728364460E+02  0.40728364460E+02  0.00000000000E+00 0.  1.
         21   -1    0    0  505  502 -0.00000000000E+00 -0.00000000000E+00 -0.17331124293E+04  0.17331124293E+04  0.00000000000E+00 0.  1.
         21    1    1    2  503  506 -0.97458674942E+02  0.91952938595E+01 -0.76542641091E+02  0.12426392339E+03  0.00000000000E+00 0.  1.
         21    1    1    2  504  501  0.89612547690E+02 -0.82793714241E+01 -0.59795930409E+03  0.60469354722E+03  0.00000000000E+00 0.  1.
         21    1    1    2  505  504  0.92366938591E+02 -0.71918294163E+02 -0.66213497113E+03  0.67240360824E+03  0.00000000000E+00 0.  1.
         21    1    1    2  506  502 -0.84520811340E+02  0.71002371727E+02 -0.35574714855E+03  0.37247971494E+03  0.00000000000E+00 0. -1.
<scales pt_clust_3="97.89150" pt_clust_4="52.54434" pt_clust_5="52.54434" pt_clust_6="152.84467"></scales>
<clustering>
<clus scale="   52.544">  4  5 -1 -1</clus>
<clus scale="   97.892">  1  3  2 -1</clus>
<clus scale="  152.845">  1  6  2 -1</clus>
<clus scale="   97.892">  1  3  2 -1</clus>
</clustering>
</event>
<event>
 6    0  0.3042851E+002  0.1382518E+03  0.7546771E-02  0.1215701E+00
         21   -1    0    0  504  501  0.00000000000E+00  0.00000000000E+00  0.86971235862E+03  0.86971235862E+03  0.00000000000E+00 0. -1.
         21   -1    0    0  503  502 -0.00000000000E+00 -0.00000000000E+00 -0.84084101472E+02  0.84084101472E+02  0.00000000000E+00 0. -1.
         21    1    1    2  503  501 -0.14699113495E+03  0.25325421259E+02  0.30581368895E+02  0.15225961658E+03  0.00000000000E+00 0. -1.
         21    1    1    2  504  506  0.80722339829E+02 -0.27593365287E+01  0.45695409513E+03  0.46403745014E+03  0.00000000000E+00 0. -1.
         21    1    1    2  505  502 -0.70557213815E+01  0.45734091473E+02  0.41975235380E+02  0.62476481274E+02  0.00000000000E+00 0. -1.
         21    1    1    2  506  505  0.73324516507E+02 -0.68300176204E+02  0.25611755775E+03  0.27502291210E+03  0.00000000000E+00 0. -1.
<scales pt_clust_3="14000.00000" pt_clust_4="80.38588" pt_clust_5="46.27516" pt_clust_6="138.25180"></scales>
<clustering>
<clus scale="   46.275">  2  5  1 -1</clus>
<clus scale="   80.386">  1  4  2 -1</clus>
<clus scale="  138.252">  1  6  2 -1</clus>
<clus scale="   80.386">  1  3  2 -1</clus>
</clustering>
</event>
<event>
 6    0  0.3042851E+002  0.1718808E+03  0.7546771E-02  0.1175901E+00
         21   -1    0    0  506  501  0.00000000000E+00  0.00000000000E+00  0.47466612334E+03  0.47466612334E+03  0.00000000000E+00 0. -1.
         21   -1    0    0  505  502 -0.00000000000E+00 -0.00000000000E+00 -0.10934147673E+03  0.10934147673E+03  0.00000000000E+00 0. -1.
         21    1    1    2  503  502 -0.60804551252E+02  0.33456167179E+02  0.15324940023E+02  0.71072936917E+02  0.00000000000E+00 0. -1.
         21    1    1    2  504  501  0.81385339603E+02 -0.25134432757E+02  0.17117233619E+03  0.19119435632E+03  0.00000000000E+00 0. -1.
         21    1    1    2  505  504  0.59285886870E+02 -0.62601064707E+02  0.20440485697E+03  0.22184466466E+03  0.00000000000E+00 0. -1.
         21    1    1    2  506  503 -0.79866675221E+02  0.54279330285E+02 -0.25577486571E+02  0.99895642179E+02  0.00000000000E+00 0. -1.
<scales pt_clust_3="34.32349" pt_clust_4="45.08060" pt_clust_5="45.08060" pt_clust_6="170.66089"></scales>
<clustering>
<clus scale="   34.323">  3  6 -1 -1</clus>
<clus scale="   45.081">  4  5 -1 -1</clus>
<clus scale="  170.661">  2  3  1 -1</clus>
<clus scale="  171.881">  1  3  2 -1</clus>
</clustering>
</event>
<event>
 6    0  0.3042851E+002  0.1431760E+03  0.7546771E-02  0.1209118E+00
         21   -1    0    0  504  501  0.00000000000E+00  0.00000000000E+00  0.16464164292E+04  0.16464164292E+04  0.00000000000E+00 0. -1.
         21   -1    0    0  505  502 -0.00000000000E+00 -0.00000000000E+00 -0.56503427970E+02  0.56503427970E+02  0.00000000000E+00 0.  1.
         21    1    1    2  503  506 -0.71119330539E+02  0.54792890671E+02  0.27274141636E+02  0.93830159578E+02  0.00000000000E+00 0.  1.
         21    1    1    2  504  502 -0.12279740196E+02 -0.31812811108E+02  0.87115803124E+03  0.87182519025E+03  0.00000000000E+00 0. -1.
         21    1    1    2  505  503 -0.52667696737E+02 -0.24194039469E+01  0.28066713333E+02  0.59728386822E+02  0.00000000000E+00 0.  1.
         21    1    1    2  506  501  0.13606676747E+03 -0.20560675616E+02  0.66341411503E+03  0.67753612052E+03  0.00000000000E+00 0. -1.
<scales pt_clust_3="38.38567" pt_clust_4="34.10054" pt_clust_5="38.38567" pt_clust_6="134.34269"></scales>
<clustering>
<clus scale="   34.101">  1  4  2 -1</clus>
<clus scale="   38.386">  3  5 -1 -1</clus>
<clus scale="  134.343">  1  6  2 -1</clus>
<clus scale="   34.101">  1  3  2 -1</clus>
</clustering>
</event>
<event>
 6    0  0.4068310E+002  0.1167522E+03  0.7546771E-02  0.1248553E+00
         21   -1    0    0  503  501  0.00000000000E+00  0.00000000000E+00  0.51158793164E+03  0.51158793164E+03  0.00000000000E+00 0.  1.
         21   -1    0    0  506  502 -0.00000000000E+00 -0.00000000000E+00 -0.17962546960E+04  0.17962546960E+04  0.00000000000E+00 0. -1.
         21    1    1    2  503  502 -0.53964899737E+01  0.39711037461E+02 -0.48592922936E+02  0.62986988813E+02  0.00000000000E+00 0. -1.
         21    1    1    2  504  505 -0.51522419390E+01  0.64523557712E+02 -0.12587558580E+04  0.12604190356E+04  0.00000000000E+00 0. -1.
         21    1    1    2  505  501 -0.51835791972E+02 -0.10498427623E+03  0.49467281675E+03  0.50834028290E+03  0.00000000000E+00 0.  1.
         21    1    1    2  506  504  0.62384523885E+02  0.74968105447E+00 -0.47199080013E+03  0.47609632035E+03  0.00000000000E+00 0. -1.
<scales pt_clust_3="40.07604" pt_clust_4="116.75216" pt_clust_5="14000.00000" pt_clust_6="62.00294"></scales>
<clustering>
<clus scale="   40.076">  2  3  1 -1</clus>
<clus scale="   62.003">  2  6  1 -1</clus>
<clus scale="  116.752">  2  4  1 -1</clus>
<clus scale="  116.752">  1  3  2 -1</clus>
</clustering>
</event>
<event>
 6    0  0.3042851E+002  0.1139895E+03  0.7546771E-02  0.1253355E+00
         21   -1    0    0  506  501  0.00000000000E+00  0.00000000000E+00  0.23368783670E+03  0.23368783670E+03  0.00000000000E+00 0.  1.
         21   -1    0    0  505  502 -0.00000000000E+00 -0.00000000000E+00 -0.18566322230E+03  0.18566322230E+03  0.00000000000E+00 0.  1.
         21    1    1    2  503  502  0.86203852825E+01 -0.90216010009E+02 -0.20922036231E+02  0.93010596732E+02  0.00000000000E+00 0. -1.
         21    1    1    2  504  501  0.67685359048E+01  0.47135854680E+02  0.10999756728E+02  0.48873270024E+02  0.00000000000E+00 0.  1.
         21    1    1    2  505  504  0.37368604632E+02 -0.53604722452E+02 -0.78483998452E+02  0.10212549581E+03  0.00000000000E+00 0.  1.
         21    1    1    2  506  503 -0.52757525819E+02  0.96684877781E+02  0.13643089235E+03  0.17534169644E+03  0.00000000000E+00 0.  1.
<scales pt_clust_3="14000.00000" pt_clust_4="47.61934" pt_clust_5="63.35363" pt_clust_6="113.98950"></scales>
<clustering>
<clus scale="   47.619">  1  4  2 -1</clus>
<clus scale="   63.354">  2  5  1 -1</clus>
<clus scale="  113.990">  1  6  2 -1</clus>
<clus scale="   47.619">  1  3  2 -1</clus>
</clustering>
</event>
<event>
 6    0  0.3042851E+002  0.1730679E+03  0.7546771E-02  0.1174686E+00
         21   -1    0    0  504  501  0.00000000000E+00  0.00000000000E+00  0.80046826966E+03  0.80046826966E+03  0.00000000000E+00 0.  1.
         21   -1    0    0  506  502 -0.00000000000E+00 -0.00000000000E+00 -0.12095059938E+03  0.12095059938E+03  0.00000000000E+00 0.  1.
         21    1    1    2  503  502 -0.20014255688E+01 -0.18681623352E+03  0.41296171286E+03  0.45325675626E+03  0.00000000000E+00 0.  1.
         21    1    1    2  504  503  0.41008842589E+02  0.46350291556E+01  0.25641176823E+03  0.25971177015E+03  0.00000000000E+00 0.  1.
         21    1    1    2  505  501 -0.57734976313E+02  0.13272481775E+03  0.36635150554E+02  0.14930284322E+03  0.00000000000E+00 0.  1.
         21    1    1    2  506  505  0.18727559293E+02  0.49456386609E+02 -0.26490961354E+02  0.59147499414E+02  0.00000000000E+00 0.  1.
<scales pt_clust_3="14000.00000" pt_clust_4="41.26995" pt_clust_5="173.06792" pt_clust_6="53.46250"></scales>
<clustering>
<clus scale="   41.270">  1  4  2 -1</clus>
<clus scale="   53.463">  2  6  1 -1</clus>
<clus scale="  173.068">  2  5  1 -1</clus>
<clus scale="   41.270">  1  3  2 -1</clus>
</clustering>
</event>
<event>
 6    0  0.3042851E+002  0.1143090E+03  0.7546771E-02  0.1252792E+00
         21   -1    0    0  503  501  0.00000000000E+00  0.00000000000E+00  0.83072290244E+02  0.83072290244E+02  0.00000000000E+00 0. -1.
         21   -1    0    0  504  502 -0.00000000000E+00 -0.00000000000E+00 -0.23642704954E+03  0.23642704954E+03  0.00000000000E+00 0. -1.
         21    1    1    2  503  505 -0.62885622829E+02 -0.22248561258E+02 -0.29092987427E+02  0.72773635020E+02  0.00000000000E+00 0. -1.
         21    1    1    2  504  501  0.10540839771E+03 -0.34965750871E+02 -0.47222960380E+02  0.12067950127E+03  0.00000000000E+00 0. -1.
         21    1    1    2  505  506 -0.47430578582E+02  0.13818865434E+02 -0.17933740375E+02  0.52557015425E+02  0.00000000000E+00 0. -1.
         21    1    1    2  506  502  0.49078037053E+01  0.43395446695E+02 -0.59105071114E+02  0.73489188065E+02  0.00000000000E+00 0. -1.
<scales pt_clust_3="30.49364" pt_clust_4="108.67845" pt_clust_5="30.49364" pt_clust_6="43.67209"></scales>
<clustering>
<clus scale="   30.494">  3  5 -1 -1</clus>
<clus scale="   43.672">  2  6  1 -1</clus>
<clus scale="  108.678">  2  4  1 -1</clus>
<clus scale="  114.309">  1  3  2 -1</clus>
</clustering>
</event>
<event>
 6    0  0.3042851E+002  0.4677580E+03  0.7546771E-02  0.1022555E+00
         21   -1    0    0  505  501  0.00000000000E+00  0.00000000000E+00  0.42674803431E+03  0.42674803431E+03  0.00000000000E+00 0.  1.
         21   -1    0    0  504  502 -0.00000000000E+00 -0.00000000000E+00 -0.49445107792E+03  0.49445107792E+03  0.00000000000E+00 0.  1.
         21    1    1    2  503  501 -0.38769695282E+02  0.70344990842E+01  0.14344088234E+02  0.41932401755E+02  0.00000000000E+00 0. -1.
         21    1    1    2  504  503 -0.24002197512E+03  0.32617109137E+03 -0.36423922528E+01  0.40498320509E+03  0.00000000000E+00 0.  1.
         21    1    1    2  505  506  0.17964322354E+03 -0.20748189102E+03  0.36978345090E+02  0.27692565946E+03  0.00000000000E+00 0.  1.
         21    1    1    2  506  502  0.99148446863E+02 -0.12572369944E+03 -0.11538308468E+03  0.19735784592E+03  0.00000000000E+00 0.  1.
<scales pt_clust_3="32.51873" pt_clust_4="446.78746" pt_clust_5="132.39970" pt_clust_6="132.39970"></scales>
<clustering>
<clus scale="   32.519">  3  4 -1 -1</clus>
<clus scale="  132.400">  5  6 -1 -1</clus>
<clus scale="  446.787">  1  3  2 -1</clus>
<clus scale="  446.787">  1  3  2 -1</clus>
</clustering>
</event>
<event>
 6    0  0.3042851E+002  0.1039971E+03  0.7546771E-02  0.1272108E+00
         21   -1    0    0  504  501  0.00000000000E+00  0.00000000000E+00  0.14451599116E+04  0.14451599116E+04  0.00000000000E+00 0.  1.
         21   -1    0    0  503  502 -0.00000000000E+00 -0.00000000000E+00 -0.82345278664E+02  0.82345278664E+02  0.00000000000E+00 0. -1.
         21    1    1    2  503  505  0.40566007634E+02 -0.15221284440E+02  0.80499390276E+02  0.91419036914E+02  0.00000000000E+00 0. -1.
         21    1    1    2  504  506 -0.59601835746E+02 -0.54730238374E+02  0.57437407238E+03  0.58004599200E+03  0.00000000000E+00 0.  1.
         21    1    1    2  505  501  0.11721962806E+02 -0.36786679474E+02  0.74258075442E+03  0.74358378212E+03  0.00000000000E+00 0.  1.
         21    1    1    2  506  502  0.73138653056E+01  0.10673820229E+03 -0.34639584092E+02  0.11245637927E+03  0.00000000000E+00 0. -1.
<scales pt_clust_3="46.40244" pt_clust_4="103.99710" pt_clust_5="38.60912" pt_clust_6="14000.00000"></scales>
<clustering>
<clus scale="   38.609">  1  5  2 -1</clus>
<clus scale="   46.402">  1  3  2 -1</clus>
<clus scale="  103.997">  1  4  2 -1</clus>
<clus scale="   38.609">  1  3  2 -1</clus>
</clustering>
</event>
<event>
 6    0  0.3042851E+002  0.1190526E+03  0.7546771E-02  0.1244668E+00
         21   -1    0    0  502  501  0.00000000000E+00  0.00000000000E+00  0.21675105496E+03  0.21675105496E+03  0.00000000000E+00 0.  1.
         21   -1    0    0  506  502 -0.00000000000E+00 -0.00000000000E+00 -0.48309341392E+03  0.48309341392E+03  0.00000000000E+00 0. -1.
         21    1    1    2  503  504 -0.39664281787E+02 -0.78986329254E+02 -0.51089625946E+02  0.10208939875E+03  0.00000000000E+00 0. -1.
         21    1    1    2  504  505  0.47090346600E+02 -0.21701296775E+02  0.12239578892E+03  0.13292545343E+03  0.00000000000E+00 0.  1.
         21    1    1    2  505  501  0.31762665293E+02 -0.38602225662E+02  0.37663487165E+02  0.62590230851E+02  0.00000000000E+00 0.  1.
         21    1    1    2  506  503 -0.39188730106E+02  0.13928985169E+03 -0.37531200910E+03  0.40223938585E+03  0.00000000000E+00 0. -1.
<scales pt_clust_3="119.05264" pt_clust_4="87.92565" pt_clust_5="49.98999" pt_clust_6="14000.00000"></scales>
<clustering>
<clus scale="   49.990">  1  5  2 -1</clus>
<clus scale="   87.926">  1  4  2 -1</clus>
<clus scale="  119.053">  1  3  2 -1</clus>
<clus scale="   49.990">  1  3  2 -1</clus>
</clustering>
</event>
<event>
 6    0  0.3042851E+002  0.6886502E+02  0.7546771E-02  0.1363996E+00
         21   -1    0    0  505  501  0.00000000000E+00  0.00000000000E+00  0.82031966563E+02  0.82031966563E+02  0.00000000000E+00 0.  1.
         21   -1    0    0  506  502 -0.00000000000E+00 -0.00000000000E+00 -0.27237967053E+03  0.27237967053E+03  0.00000000000E+00 0.  1.
         21    1    1    2  503  502  0.79417608607E+02  0.24312520646E+01 -0.12892919282E+03  0.15144571405E+03  0.00000000000E+00 0.  1.
         21    1    1    2  504  501  0.38958844217E+02  0.38748063357E+02 -0.21082278818E+02  0.58852922076E+02  0.00000000000E+00 0.  1.
         21    1    1    2  505  503 -0.86669506804E+02 -0.49249201753E+02 -0.11217721798E+02  0.10031412944E+03  0.00000000000E+00 0.  1.
         21    1    1    2  506  504 -0.31706946020E+02  0.80698863319E+01 -0.29118510527E+02  0.43798871523E+02  0.00000000000E+00 0.  1.
<scales pt_clust_3="68.86502" pt_clust_4="52.31957" pt_clust_5="14000.00000" pt_clust_6="32.71779"></scales>
<clustering>
<clus scale="   32.718">  2  6  1 -1</clus>
<clus scale="   52.320">  1  4  2 -1</clus>
<clus scale="   68.865">  2  3  1 -1</clus>
<clus scale="   52.320">  1  3  2 -1</clus>
</clustering>
</event>
<event>
 6    0  0.3042851E+002  0.5878750E+03  0.7546771E-02  0.9930886E-01
         21   -1    0    0  505  501  0.00000000000E+00  0.00000000000E+00  0.29677335309E+03  0.29677335309E+03  0.00000000000E+00 0. -1.
         21   -1    0    0  506  502 -0.00000000000E+00 -0.00000000000E+00 -0.11767102495E+04  0.11767102495E+04  0.00000000000E+00 0. -1.
         21    1    1    2  503  501 -0.12609378906E+03  0.18264239630E+03 -0.62515365982E+02  0.23057766490E+03  0.00000000000E+00 0. -1.
         21    1    1    2  504  502  0.48657792766E+02 -0.21358322353E+03 -0.26328447749E+03  0.34249684708E+03  0.00000000000E+00 0. -1.
         21    1    1    2  505  504  0.12140231810E+03 -0.32483509516E+03 -0.32276770975E+03  0.47374608847E+03  0.00000000000E+00 0. -1.
         21    1    1    2  506  503 -0.43966321801E+02  0.35577592239E+03 -0.23136934314E+03  0.42666300209E+03  0.00000000000E+00 0. -1.
<scales pt_clust_3="128.76843" pt_clust_4="50.14486" pt_clust_5="568.15083" pt_clust_6="128.76843"></scales>
<clustering>
<clus scale="   50.145">  4  5 -1 -1</clus>
<clus scale="  128.768">  3  6 -1 -1</clus>
<clus scale="  568.151">  2  4  1 -1</clus>
<clus scale="  587.875">  1  3  2 -1</clus>
</clustering>
</event>
<event>
 6    0  0.3042851E+002  0.3219769E+03  0.7546771E-02  0.1074743E+00
         21   -1    0    0  506  501  0.00000000000E+00  0.00000000000E+00  0.70416148990E+03  0.70416148990E+03  0.00000000000E+00 0. -1.
         21   -1    0    0  503  502 -0.00000000000E+00 -0.00000000000E+00 -0.68638239206E+03  0.68638239206E+03  0.00000000000E+00 0.  1.
         21    1    1    2  503  501 -0.24020686329E+03 -0.90503315330E+02  0.56913546451E+03  0.62434394705E+03  0.00000000000E+00 0. -1.
         21    1    1    2  504  505  0.18817707926E+03  0.13015710480E+03 -0.36514646647E+03  0.43090999880E+03  0.00000000000E+00 0.  1.
         21    1    1    2  505  502  0.89096169598E+02  0.17513080844E+02 -0.23470783169E+03  0.25165969422E+03  0.00000000000E+00 0.  1.
         21    1    1    2  506  504 -0.37066385568E+02 -0.57166870310E+02  0.48497931483E+02  0.83630241888E+02  0.00000000000E+00 0.  1.
<scales pt_clust_3="310.29000" pt_clust_4="54.15193" pt_clust_5="54.15193" pt_clust_6="68.13199"></scales>
<clustering>
<clus scale="   54.152">  4  5 -1 -1</clus>
<clus scale="   68.132">  1  6  2 -1</clus>
<clus scale="  310.290">  1  3  2 -1</clus>
<clus scale="   68.132">  1  3  2 -1</clus>
</clustering>
</event>
<event>
 6    0  0.3042851E+002  0.2971015E+03  0.7546771E-02  0.1086699E+00
         21   -1    0    0  503  501  0.00000000000E+00  0.00000000000E+00  0.29223069626E+04  0.29223069626E+04  0.00000000000E+00 0.  1.
         21   -1    0    0  506  502 -0.00000000000E+00 -0.00000000000E+00 -0.22460208933E+03  0.22460208933E+03  0.00000000000E+00 0. -1.
         21    1    1    2  503  505 -0.19942481262E+03 -0.96904742924E+02  0.11648564012E+04  0.11857703068E+04  0.00000000000E+00 0.  1.
         21    1    1    2  504  501 -0.11950559960E+03  0.18524124329E+03  0.14854464332E+04  0.15017146908E+04  0.00000000000E+00 0.  1.
         21    1    1    2  505  502  0.29022925372E+03  0.39269657603E+02 -0.48996410177E+02  0.29694405859E+03  0.00000000000E+00 0. -1.
         21    1    1    2  506  504  0.28701158500E+02 -0.12760615797E+03  0.96398449107E+02  0.16247999582E+03  0.00000000000E+00 0.  1.
<scales pt_clust_3="14000.00000" pt_clust_4="215.23946" pt_clust_5="297.10151" pt_clust_6="130.79407"></scales>
<clustering>
<clus scale="  130.794">  2  6  1 -1</clus>
<clus scale="  215.239">  1  4  2 -1</clus>
<clus scale="  297.102">  2  5  1 -1</clus>
<clus scale="  215.239">  1  3  2 -1</clus>
</clustering>
</event>
<event>
 6    0  0.3042851E+002  0.9736077E+02  0.7546771E-02  0.1285946E+00
         21   -1    0    0  506  501  0.00000000000E+00  0.00000000000E+00  0.48665151945E+03  0.48665151945E+03  0.00000000000E+00 0.  1.
         21   -1    0    0  503  502 -0.00000000000E+00 -0.00000000000E+00 -0.12614812970E+03  0.12614812970E+03  0.00000000000E+00 0. -1.
         21    1    1    2  503  504  0.29518760794E+02 -0.24870182192E+02 -0.31008164628E+01  0.38723355534E+02  0.00000000000E+00 0. -1.
         21    1    1    2  504  505  0.28509559921E+02 -0.57359738611E+02 -0.80204957144E+02  0.10264389787E+03  0.00000000000E+00 0. -1.
         21    1    1    2  505  501  0.36458051615E+02  0.12770403688E+02  0.15457064642E+03  0.15932469197E+03  0.00000000000E+00 0. -1.
         21    1    1    2  506  502 -0.94486372330E+02  0.69459517115E+02  0.28923851694E+03  0.31210770378E+03  0.00000000000E+00 0.  1.
<scales pt_clust_3="38.59901" pt_clust_4="14000.00000" pt_clust_5="39.08072" pt_clust_6="97.36077"></scales>
<clustering>
<clus scale="   38.599">  2  3  1 -1</clus>
<clus scale="   39.081">  1  5  2 -1</clus>
<clus scale="   97.361">  1  6  2 -1</clus>
<clus scale="   39.081">  1  3  2 -1</clus>
</clustering>
</event>
<event>
 6    0  0.3042851E+002  0.1247430E+03  0.7546771E-02  0.1235471E+00
         21   -1    0    0  503  501  0.00000000000E+00  0.00000000000E+00  0.67374357777E+03  0.67374357777E+03  0.00000000000E+00 0. -1.
         21   -1    0    0  504  502 -0.00000000000E+00 -0.00000000000E+00 -0.62808332622E+02  0.62808332622E+02  0.00000000000E+00 0. -1.
         21    1    1    2  503  506  0.67822213700E+02 -0.60677381048E+02  0.44485229358E+02  0.10129428845E+03  0.00000000000E+00 0. -1.
         21    1    1    2  504  505 -0.38211905132E+02  0.23230061615E+02  0.61879081149E+02  0.76346618395E+02  0.00000000000E+00 0. -1.
         21    1    1    2  505  501 -0.50906606773E+02  0.10135624639E+03  0.46941877689E+03  0.48292707461E+03  0.00000000000E+00 0. -1.
         21    1    1    2  506  502  0.21296298205E+02 -0.63908926956E+02  0.35152157752E+02  0.75983928936E+02  0.00000000000E+00 0. -1.
<scales pt_clust_3="34.64624" pt_clust_4="44.71896" pt_clust_5="118.06453" pt_clust_6="34.64624"></scales>
<clustering>
<clus scale="   34.646">  3  6 -1 -1</clus>
<clus scale="   44.719">  2  4  1 -1</clus>
<clus scale="  118.065">  1  5  2 -1</clus>
<clus scale="  118.065">  1  3  2 -1</clus>
</clustering>
</event>
<event>
 6    0  0.3042851E+002  0.8208954E+02  0.7546771E-02  0.1323224E+00
         21   -1    0    0  505  501  0.00000000000E+00  0.00000000000E+00  0.55381926023E+02  0.55381926023E+02  0.00000000000E+00 0.  1.
         21   -1    0    0  503  502 -0.00000000000E+00 -0.00000000000E+00 -0.38758608515E+03  0.38758608515E+03  0.00000000000E+00 0. -1.
         21    1    1    2  503  504  0.14799687472E+01  0.36427361205E+02 -0.11275869424E+03  0.11850597487E+03  0.00000000000E+00 0.  1.
         21    1    1    2  504  506  0.56701008587E+02 -0.77281949596E+02 -0.16106007503E+03  0.18742425637E+03  0.00000000000E+00 0. -1.
         21    1    1    2  505  502 -0.87479301938E+02  0.27038321046E+02 -0.44274078398E+02  0.10170493150E+03  0.00000000000E+00 0.  1.
         21    1    1    2  506  501  0.29298324604E+02  0.13816267345E+02 -0.14111311464E+02  0.35332848444E+02  0.00000000000E+00 0. -1.
<scales pt_clust_3="37.46518" pt_clust_4="14000.00000" pt_clust_5="82.08954" pt_clust_6="32.39261"></scales>
<clustering>
<clus scale="   32.393">  1  6  2 -1</clus>
<clus scale="   37.465">  2  3  1 -1</clus>
<clus scale="   82.090">  1  5  2 -1</clus>
<clus scale="   32.393">  1  3  2 -1</clus>
</clustering>
</event>
<event>
 6    0  0.3042851E+002  0.1230970E+03  0.7546771E-02  0.1238074E+00
         21   -1    0    0  503  501  0.00000000000E+00  0.00000000000E+00  0.72596529368E+02  0.72596529368E+02  0.00000000000E+00 0. -1.
         21   -1    0    0  504  502 -0.00000000000E+00 -0.00000000000E+00 -0.11537762334E+04  0.11537762334E+04  0.00000000000E+00 0. -1.
         21    1    1    2  503  505 -0.30972786933E+02 -0.10618452303E+03 -0.26106384586E+03  0.28352918382E+03  0.00000000000E+00 0. -1.
         21    1    1    2  504  506  0.51456779070E+02  0.19046067330E+03 -0.69123511273E+03  0.71883868097E+03  0.00000000000E+00 0. -1.
         21    1    1    2  505  502 -0.34934576166E+02  0.30874784977E+02 -0.90440015793E+02  0.10175005364E+03  0.00000000000E+00 0. -1.
         21    1    1    2  506  501  0.14450584029E+02 -0.11515093525E+03 -0.38440729650E+02  0.12225484434E+03  0.00000000000E+00 0. -1.
<scales pt_clust_3="106.05481" pt_clust_4="123.09697" pt_clust_5="46.62271" pt_clust_6="14000.00000"></scales>
<clustering>
<clus scale="   46.623">  2  5  1 -1</clus>
<clus scale="  106.055">  2  3  1 -1</clus>
<clus scale="  123.097">  2  4  1 -1</clus>
<clus scale="  123.097">  1  3  2 -1</clus>
</clustering>
</event>
<event>
 6    0  0.3042851E+002  0.1220781E+03  0.7546771E-02  0.1239708E+00
         21   -1    0    0  503  501  0.00000000000E+00  0.00000000000E+00  0.45751513314E+03  0.45751513314E+03  0.00000000000E+00 0.  1.
         21   -1    0    0  504  502 -0.00000000000E+00 -0.00000000000E+00 -0.41703478490E+03  0.41703478490E+03  0.00000000000E+00 0.  1.
         21    1    1    2  503  506 -0.43896410917E+02 -0.59324680570E+02  0.23253864602E+03  0.24396830636E+03  0.00000000000E+00 0.  1.
         21    1    1    2  504  505 -0.83501965553E+02  0.62454511726E+02 -0.31303438948E+03  0.32994495493E+03  0.00000000000E+00 0.  1.
         21    1    1    2  505  501  0.84073574888E+02 -0.64739914180E+02  0.17727263663E+03  0.20660399362E+03  0.00000000000E+00 0.  1.
         21    1    1    2  506  502  0.43324801582E+02  0.61610083023E+02 -0.56296544931E+02  0.94032663120E+02  0.00000000000E+00 0.  1.
<scales pt_clust_3="73.79914" pt_clust_4="14000.00000" pt_clust_5="122.07813" pt_clust_6="68.96967"></scales>
<clustering>
<clus scale="   73.799">  1  3  2 -1</clus>
<clus scale="   68.970">  2  6  1 -1</clus>
<clus scale="  122.078">  1  5  2 -1</clus>
<clus scale="   73.799">  1  3  2 -1</clus>
</clustering>
</event>
<event>
 6    0  0.3042851E+002  0.1960541E+03  0.7546771E-02  0.1153112E+00
         21   -1    0    0  503  501  0.00000000000E+00  0.00000000000E+00  0.26898010755E+03  0.26898010755E+03  0.00000000000E+00 0.  1.
         21   -1    0    0  504  502 -0.00000000000E+00 -0.00000000000E+00 -0.23328121895E+03  0.23328121895E+03  0.00000000000E+00 0. -1.
         21    1    1    2  503  506 -0.89319866187E+02 -0.46844001621E+02 -0.56750912421E+02  0.11572841070E+03  0.00000000000E+00 0. -1.
         21    1    1    2  504  505  0.78172354364E+02  0.89955077150E+02  0.79513077113E+02  0.14326605433E+03  0.00000000000E+00 0.  1.
         21    1    1    2  505  501  0.69689279149E+02  0.81534058990E+01  0.10275712917E+03  0.12442709212E+03  0.00000000000E+00 0.  1.
         21    1    1    2  506  502 -0.58541767326E+02 -0.51264481428E+02 -0.89820405261E+02  0.11883976935E+03  0.00000000000E+00 0. -1.
<scales pt_clust_3="183.13678" pt_clust_4="63.96199" pt_clust_5="63.96199" pt_clust_6="39.77696"></scales>
<clustering>
<clus scale="   39.777">  3  6 -1 -1</clus>
<clus scale="   63.962">  4  5 -1 -1</clus>
<clus scale="  183.137">  2  3  1 -1</clus>
<clus scale="  196.054">  1  3  2 -1</clus>
</clustering>
</event>
<event>
 6    0  0.3042851E+002  0.1548732E+03  0.7546771E-02  0.1194610E+00
         21   -1    0    0  502  501  0.00000000000E+00  0.00000000000E+00  0.46112626414E+03  0.46112626414E+03  0.00000000000E+00 0. -1.
         21   -1    0    0  506  502 -0.00000000000E+00 -0.00000000000E+00 -0.99494664525E+02  0.99494664525E+02  0.00000000000E+00 0.  1.
         21    1    1    2  503  501  0.24759371091E+02 -0.32929267814E+02  0.67455465814E+02  0.79041780115E+02  0.00000000000E+00 0.  1.
         21    1    1    2  504  503 -0.13841711492E+02  0.41212841327E+02  0.94772893685E+02  0.10426884791E+03  0.00000000000E+00 0. -1.
         21    1    1    2  505  504 -0.14967951177E+03  0.54650177095E+02  0.14523666162E+03  0.21560214744E+03  0.00000000000E+00 0. -1.
         21    1    1    2  506  505  0.13876185218E+03 -0.62933750608E+02  0.54166578490E+02  0.16170815320E+03  0.00000000000E+00 0.  1.
<scales pt_clust_3="41.19907" pt_clust_4="33.60892" pt_clust_5="14000.00000" pt_clust_6="154.87317"></scales>
<clustering>
<clus scale="   41.199">  1  3  2 -1</clus>
<clus scale="   33.609">  1  4  2 -1</clus>
<clus scale="  154.873">  2  6  1 -1</clus>
<clus scale="   41.199">  1  3  2 -1</clus>
</clustering>
</event>
<event>
 6    0  0.3042851E+002  0.1461409E+03  0.7546771E-02  0.1205297E+00
         21   -1    0    0  506  501  0.00000000000E+00  0.00000000000E+00  0.21521649306E+04  0.21521649306E+04  0.00000000000E+00 0.  1.
         21   -1    0    0  503  502 -0.00000000000E+00 -0.00000000000E+00 -0.16303481191E+03  0.16303481191E+03  0.00000000000E+00 0. -1.
         21    1    1    2  503  505 -0.51423217394E+02 -0.14643728717E+02 -0.85158124531E+02  0.10055193808E+03  0.00000000000E+00 0. -1.
         21    1    1    2  504  502  0.56153578595E+02  0.15953796571E+01  0.65252698237E+03  0.65494063269E+03  0.00000000000E+00 0.  1.
         21    1    1    2  505  501 -0.82156964126E+02  0.58157854639E+02 -0.30116181319E+02  0.10506706043E+03  0.00000000000E+00 0. -1.
         21    1    1    2  506  504  0.77426602925E+02 -0.45109505579E+02  0.14518774422E+04  0.14546401113E+04  0.00000000000E+00 0.  1.
<scales pt_clust_3="53.46762" pt_clust_4="36.07385" pt_clust_5="138.85740" pt_clust_6="36.07385"></scales>
<clustering>
<clus scale="   36.074">  4  6 -1 -1</clus>
<clus scale="   53.468">  2  3  1 -1</clus>
<clus scale="  138.857">  2  5  1 -1</clus>
<clus scale="  146.141">  1  3  2 -1</clus>
</clustering>
</event>
<event>
 6    0  0.3042851E+002  0.1516350E+03  0.7546771E-02  0.1198478E+00
         21   -1    0    0  505  501  0.00000000000E+00  0.00000000000E+00  0.26809877221E+03  0.26809877221E+03  0.00000000000E+00 0.  1.
         21   -1    0    0  506  502 -0.00000000000E+00 -0.00000000000E+00 -0.30831586258E+03  0.30831586258E+03  0.00000000000E+00 0.  1.
         21    1    1    2  503  504  0.21365914615E+02  0.55511595827E+02  0.50376679369E+02  0.77947735072E+02  0.00000000000E+00 0.  1.
         21    1    1    2  504  502 -0.84465356384E+02 -0.17394852309E+03 -0.17244215367E+03  0.25909222581E+03  0.00000000000E+00 0.  1.
         21    1    1    2  505  503  0.28251277460E+02  0.77250580810E+02  0.13853760143E+03  0.16111627454E+03  0.00000000000E+00 0.  1.
         21    1    1    2  506  501  0.34848164309E+02  0.41186346452E+02 -0.56689217492E+02  0.78258399355E+02  0.00000000000E+00 0.  1.
<scales pt_clust_3="31.53662" pt_clust_4="147.03003" pt_clust_5="31.53662" pt_clust_6="53.95099"></scales>
<clustering>
<clus scale="   31.537">  3  5 -1 -1</clus>
<clus scale="   53.951">  2  6  1 -1</clus>
<clus scale="  147.030">  2  4  1 -1</clus>
<clus scale="  151.635">  1  3  2 -1</clus>
</clustering>
</event>
<event>
 6    0  0.3042851E+002  0.1024629E+03  0.7546771E-02  0.1275200E+00
         21   -1    0    0  504  501  0.00000000000E+00  0.00000000000E+00  0.23574763771E+02  0.23574763771E+02  0.00000000000E+00 0. -1.
         21   -1    0    0  505  502 -0.00000000000E+00 -0.00000000000E+00 -0.91973895013E+03  0.91973895013E+03  0.00000000000E+00 0. -1.
         21    1    1    2  503  501  0.41546670394E+02  0.97443831244E+01 -0.13374219965E+03  0.14038537955E+03  0.00000000000E+00 0. -1.
         21    1    1    2  504  506 -0.42431242367E+02  0.55841825708E+02 -0.18462682414E+03  0.19749882030E+03  0.00000000000E+00 0. -1.
         21    1    1    2  505  503  0.61394955180E+02 -0.91540496380E+01 -0.44254823989E+03  0.44688038867E+03  0.00000000000E+00 0. -1.
         21    1    1    2  506  502 -0.60510383207E+02 -0.56432159194E+02 -0.13524692268E+03  0.15854912539E+03  0.00000000000E+00 0. -1.
<scales pt_clust_3="38.65155" pt_clust_4="70.13359" pt_clust_5="38.65155" pt_clust_6="91.24456"></scales>
<clustering>
<clus scale="   38.652">  3  5 -1 -1</clus>
<clus scale="   70.134">  1  4  2 -1</clus>
<clus scale="   91.245">  1  6  2 -1</clus>
<clus scale="   70.134">  1  3  2 -1</clus>
</clustering>
</event>
<event>
 6    0  0.3042851E+002  0.8646401E+02  0.7546771E-02  0.1311648E+00
         21   -1    0    0  503  501  0.00000000000E+00  0.00000000000E+00  0.19510786650E+02  0.19510786650E+02  0.00000000000E+00 0. -1.
         21   -1    0    0  506  502 -0.00000000000E+00 -0.00000000000E+00 -0.87692384414E+03  0.87692384414E+03  0.00000000000E+00 0. -1.
         21    1    1    2  503  504  0.35561393280E+02  0.65679122542E+02 -0.17839829077E+03  0.19340193893E+03  0.00000000000E+00 0. -1.
         21    1    1    2  504  505  0.34335940765E+02  0.10238673744E+02 -0.17963929937E+03  0.18317768736E+03  0.00000000000E+00 0. -1.
         21    1    1    2  505  502 -0.23457847844E+02  0.24284975629E+02 -0.13090367722E+03  0.13518802971E+03  0.00000000000E+00 0. -1.
         21    1    1    2  506  501 -0.46439486201E+02 -0.10020277191E+03 -0.36847179013E+03  0.38466697480E+03  0.00000000000E+00 0. -1.
<scales pt_clust_3="86.46401" pt_clust_4="32.86357" pt_clust_5="33.76434" pt_clust_6="14000.00000"></scales>
<clustering>
<clus scale="   33.764">  2  5  1 -1</clus>
<clus scale="   32.864">  2  4  1 -1</clus>
<clus scale="   86.464">  1  3  2 -1</clus>
<clus scale="   86.464">  1  3  2 -1</clus>
</clustering>
</event>
<event>
 6    0  0.3042851E+002  0.1099762E+03  0.7546771E-02  0.1260614E+00
         21   -1    0    0  504  501  0.00000000000E+00  0.00000000000E+00  0.26233701070E+04  0.26233701070E+04  0.00000000000E+00 0.  1.
         21   -1    0    0  506  502 -0.00000000000E+00 -0.00000000000E+00 -0.58014029595E+02  0.58014029595E+02  0.00000000000E+00 0. -1.
         21    1    1    2  503  502  0.78675206546E+01 -0.80030710820E+02 -0.13896631670E+02  0.81608387604E+02  0.00000000000E+00 0. -1.
         21    1    1    2  504  503  0.61794056529E+02 -0.81197489060E+01  0.14031937822E+04  0.14045772411E+04  0.00000000000E+00 0.  1.
         21    1    1    2  505  501 -0.10044746124E+03  0.11096532253E+03  0.10989228342E+04  0.11090691551E+04  0.00000000000E+00 0.  1.
         21    1    1    2  506  505  0.30785884060E+02 -0.22814862808E+02  0.77136092663E+02  0.86129352799E+02  0.00000000000E+00 0. -1.
<scales pt_clust_3="14000.00000" pt_clust_4="62.75865" pt_clust_5="109.97624" pt_clust_6="38.31825"></scales>
<clustering>
<clus scale="   38.318">  2  6  1 -1</clus>
<clus scale="   62.759">  1  4  2 -1</clus>
<clus scale="  109.976">  1  5  2 -1</clus>
<clus scale="   62.759">  1  3  2 -1</clus>
</clustering>
</event>
<event>
 6    0  0.3042851E+002  0.9516927E+02  0.7546771E-02  0.1290795E+00
         21   -1    0    0  506  501  0.00000000000E+00  0.00000000000E+00  0.26003069025E+03  0.26003069025E+03  0.00000000000E+00 0. -1.
         21   -1    0    0  504  502 -0.00000000000E+00 -0.00000000000E+00 -0.97310691956E+03  0.97310691956E+03  0.00000000000E+00 0. -1.
         21    1    1    2  503  501 -0.98134691037E+02  0.66752175754E+02  0.20169194208E+03  0.23402117437E+03  0.00000000000E+00 0. -1.
         21    1    1    2  504  503 -0.30402554301E+02 -0.87536802193E+02 -0.52416846045E+03  0.53229651697E+03  0.00000000000E+00 0.  1.
         21    1    1    2  505  502  0.10976292120E+03  0.55856405284E+02 -0.40591928894E+03  0.42419135542E+03  0.00000000000E+00 0. -1.
         21    1    1    2  506  505  0.18774324139E+02 -0.35071778845E+02  0.15319577999E+02  0.42628563057E+02  0.00000000000E+00 0. -1.
<scales pt_clust_3="87.20131" pt_clust_4="95.16927" pt_clust_5="14000.00000" pt_clust_6="39.78071"></scales>
<clustering>
<clus scale="   39.781">  1  6  2 -1</clus>
<clus scale="   87.201">  1  3  2 -1</clus>
<clus scale="   95.169">  2  4  1 -1</clus>
<clus scale="   39.781">  1  3  2 -1</clus>
</clustering>
</event>
<event>
 6    0  0.3042851E+002  0.2909988E+03  0.7546771E-02  0.1089829E+00
         21   -1    0    0  506  501  0.00000000000E+00  0.00000000000E+00  0.16590215079E+03  0.16590215079E+03  0.00000000000E+00 0. -1.
         21   -1    0    0  505  502 -0.00000000000E+00 -0.00000000000E+00 -0.76818712067E+03  0.76818712067E+03  0.00000000000E+00 0. -1.
         21    1    1    2  503  501 -0.29686961753E+02 -0.12616342214E+03  0.51713831791E+02  0.13954513672E+03  0.00000000000E+00 0. -1.
         21    1    1    2  504  502  0.60939652112E+02  0.23227965356E+03 -0.53512560604E+03  0.58653805750E+03  0.00000000000E+00 0. -1.
         21    1    1    2  505  503 -0.61546685848E+02 -0.11820096879E+03 -0.73691883827E+02  0.15228249179E+03  0.00000000000E+00 0. -1.
         21    1    1    2  506  504  0.30293995489E+02  0.12084737378E+02 -0.45181311805E+02  0.55723585461E+02  0.00000000000E+00 0. -1.
<scales pt_clust_3="127.22530" pt_clust_4="275.21610" pt_clust_5="127.22530" pt_clust_6="32.35219"></scales>
<clustering>
<clus scale="   32.352">  4  6 -1 -1</clus>
<clus scale="  127.225">  3  5 -1 -1</clus>
<clus scale="  275.216">  2  4  1 -1</clus>
<clus scale="  290.999">  1  3  2 -1</clus>
</clustering>
</event>
<event>
 6    0  0.3042851E+002  0.8389433E+02  0.7546771E-02  0.1318350E+00
         21   -1    0    0  503  501  0.00000000000E+00  0.00000000000E+00  0.30412508725E+03  0.30412508725E+03  0.00000000000E+00 0. -1.
         21   -1    0    0  505  502 -0.00000000000E+00 -0.00000000000E+00 -0.17919168666E+03  0.17919168666E+03  0.00000000000E+00 0. -1.
         21    1    1    2  503  506 -0.37195441415E+02  0.36092073939E+01  0.51278804080E+02  0.63451107067E+02  0.00000000000E+00 0. -1.
         21    1    1    2  504  502 -0.32142310069E+02 -0.46200767322E+02 -0.15513213150E+02  0.58380637030E+02  0.00000000000E+00 0. -1.
         21    1    1    2  505  501  0.59723825095E+02  0.12142997503E+03 -0.92026032083E+02  0.16364890681E+03  0.00000000000E+00 0. -1.
         21    1    1    2  506  504  0.96139263892E+01 -0.78838415106E+02  0.18119384175E+03  0.19783612300E+03  0.00000000000E+00 0. -1.
<scales pt_clust_3="37.37014" pt_clust_4="57.93876" pt_clust_5="83.89433" pt_clust_6="14000.00000"></scales>
<clustering>
<clus scale="   37.370">  1  3  2 -1</clus>
<clus scale="   57.939">  2  4  1 -1</clus>
<clus scale="   83.894">  2  5  1 -1</clus>
<clus scale="   37.370">  1  3  2 -1</clus>
</clustering>
</event>
<event>
 6    0  0.3042851E+002  0.1731410E+03  0.7546771E-02  0.1174611E+00
         21   -1    0    0  502  501  0.00000000000E+00  0.00000000000E+00  0.10787910363E+04  0.10787910363E+04  0.00000000000E+00 0.  1.
         21   -1    0    0  505  502 -0.00000000000E+00 -0.00000000000E+00 -0.94452182726E+02  0.94452182726E+02  0.00000000000E+00 0. -1.
         21    1    1    2  503  506 -0.83610850733E+02 -0.81783548461E+02 -0.20186581184E+02  0.11868791522E+03  0.00000000000E+00 0. -1.
         21    1    1    2  504  501  0.57167901063E+02 -0.12106763187E+02  0.19242896231E+03  0.20110606197E+03  0.00000000000E+00 0.  1.
         21    1    1    2  505  503 -0.44431612600E+02 -0.24087043028E+02  0.28834370577E+02  0.58187410723E+02  0.00000000000E+00 0. -1.
         21    1    1    2  506  504  0.70874562270E+02  0.11797735468E+03  0.78326210192E+03  0.79526183116E+03  0.00000000000E+00 0.  1.
<scales pt_clust_3="39.47804" pt_clust_4="58.43580" pt_clust_5="39.47804" pt_clust_6="162.39202"></scales>
<clustering>
<clus scale="   39.478">  3  5 -1 -1</clus>
<clus scale="   58.436">  1  4  2 -1</clus>
<clus scale="  162.392">  1  6  2 -1</clus>
<clus scale="   58.436">  1  3  2 -1</clus>
</clustering>
</event>
<event>
 6    0  0.3042851E+002  0.1749594E+03  0.7546771E-02  0.1172772E+00
         21   -1    0    0  505  501  0.00000000000E+00  0.00000000000E+00  0.90943513100E+02  0.90943513100E+02  0.00000000000E+00 0.  1.
         21   -1    0    0  504  502 -0.00000000000E+00 -0.00000000000E+00 -0.13489167638E+04  0.13489167638E+04  0.00000000000E+00 0.  1.
         21    1    1    2  503  502 -0.10347167034E+03  0.14476199826E+00  0.11904009234E+02  0.10415427478E+03  0.00000000000E+00 0.  1.
         21    1    1    2  504  506  0.89089279093E+01  0.31397801642E+02 -0.11391758869E+03  0.11850066648E+03  0.00000000000E+00 0.  1.
         21    1    1    2  505  503 -0.66268081167E+02  0.14791170108E+02 -0.22610952338E+02  0.71564603404E+02  0.00000000000E+00 0.  1.
         21    1    1    2  506  501  0.16083082360E+03 -0.46333733748E+02 -0.11333487189E+04  0.11456407322E+04  0.00000000000E+00 0.  1.
<scales pt_clust_3="33.71026" pt_clust_4="32.63726" pt_clust_5="33.71026" pt_clust_6="169.94994"></scales>
<clustering>
<clus scale="   32.637">  2  4  1 -1</clus>
<clus scale="   33.710">  3  5 -1 -1</clus>
<clus scale="  169.950">  2  6  1 -1</clus>
<clus scale="  174.959">  1  3  2 -1</clus>
</clustering>
</event>
<event>
 6    0  0.3042851E+002  0.1469810E+03  0.7546771E-02  0.1204233E+00
         21   -1    0    0  505  501  0.00000000000E+00  0.00000000000E+00  0.10609315497E+04  0.10609315497E+04  0.00000000000E+00 0. -1.
         21   -1    0    0  506  502 -0.00000000000E+00 -0.00000000000E+00 -0.62508446830E+02  0.62508446830E+02  0.00000000000E+00 0. -1.
         21    1    1    2  503  501 -0.28431660051E+02  0.48856826211E+02  0.43918261188E+03  0.44280550509E+03  0.00000000000E+00 0. -1.
         21    1    1    2  504  502  0.38409056105E+02 -0.26833602073E+02  0.28855370977E+02  0.55026631964E+02  0.00000000000E+00 0.  1.
         21    1    1    2  505  504 -0.18337120138E+02 -0.11347282828E+03  0.32677790176E+02  0.11949966822E+03  0.00000000000E+00 0. -1.
         21    1    1    2  506  503  0.83597240848E+01  0.91449604144E+02  0.49770732981E+03  0.50610819124E+03  0.00000000000E+00 0. -1.
<scales pt_clust_3="39.89524" pt_clust_4="46.85401" pt_clust_5="137.90489" pt_clust_6="39.89524"></scales>
<clustering>
<clus scale="   39.895">  3  6 -1 -1</clus>
<clus scale="   46.854">  2  4  1 -1</clus>
<clus scale="  137.905">  2  5  1 -1</clus>
<clus scale="  146.981">  1  3  2 -1</clus>
</clustering>
</event>
<event>
 6    0  0.3042851E+002  0.7788392E+02  0.7546771E-02  0.1335166E+00
         21   -1    0    0  504  501  0.00000000000E+00  0.00000000000E+00  0.11070597123E+04  0.11070597123E+04  0.00000000000E+00 0.  1.
         21   -1    0    0  505  502 -0.00000000000E+00 -0.00000000000E+00 -0.30104298425E+02  0.30104298425E+02  0.00000000000E+00 0.  1.
         21    1    1    2  503  501  0.16166317016E+02 -0.78977935812E+02  0.29905470287E+03  0.30972984916E+03  0.00000000000E+00 0.  1.
         21    1    1    2  504  506  0.11983778444E+01  0.38881772613E+02  0.36192800465E+03  0.36401251201E+03  0.00000000000E+00 0.  1.
         21    1    1    2  505  503 -0.89534892981E+02  0.51989684461E+02  0.34975235456E+03  0.36475489561E+03  0.00000000000E+00 0.  1.
         21    1    1    2  506  502  0.72170198120E+02 -0.11893521262E+02  0.66220351833E+02  0.98666753983E+02  0.00000000000E+00 0.  1.
<scales pt_clust_3="65.23450" pt_clust_4="38.90024" pt_clust_5="77.88392" pt_clust_6="14000.00000"></scales>
<clustering>
<clus scale="   38.900">  1  4  2 -1</clus>
<clus scale="   65.234">  1  3  2 -1</clus>
<clus scale="   77.884">  1  5  2 -1</clus>
<clus scale="   38.900">  1  3  2 -1</clus>
</clustering>
</event>
<event>
 6    0  0.3042851E+002  0.1398462E+03  0.7546771E-02  0.1213536E+00
         21   -1    0    0  503  501  0.00000000000E+00  0.00000000000E+00  0.67416380848E+03  0.67416380848E+03  0.00000000000E+00 0.  1.
         21   -1    0    0  506  502 -0.00000000000E+00 -0.00000000000E+00 -0.33511982944E+03  0.33511982944E+03  0.00000000000E+00 0. -1.
         21    1    1    2  503  504  0.54238140461E+02  0.99801970446E+02  0.38884355935E+03  0.40509446162E+03  0.00000000000E+00 0.  1.
         21    1    1    2  504  505 -0.32826639915E+02 -0.78283639025E+02 -0.23573381060E+03  0.25055208219E+03  0.00000000000E+00 0. -1.
         21    1    1    2  505  502  0.62226948770E+01 -0.64961956388E+02 -0.68168683521E+02  0.94370266092E+02  0.00000000000E+00 0. -1.
         21    1    1    2  506  501 -0.27634195423E+02  0.43443624968E+02  0.25410291381E+03  0.25926682802E+03  0.00000000000E+00 0.  1.
<scales pt_clust_3="139.84618" pt_clust_4="14000.00000" pt_clust_5="63.82375" pt_clust_6="51.48784"></scales>
<clustering>
<clus scale="   51.488">  1  6  2 -1</clus>
<clus scale="   63.824">  2  5  1 -1</clus>
<clus scale="  139.846">  1  3  2 -1</clus>
<clus scale="   51.488">  1  3  2 -1</clus>
</clustering>
</event>
<event>
 6    0  0.3042851E+002  0.1204836E+03  0.7546771E-02  0.1242301E+00
         21   -1    0    0  504  501  0.00000000000E+00  0.00000000000E+00  0.23831687616E+03  0.23831687616E+03  0.00000000000E+00 0.  1.
         21   -1    0    0  505  502 -0.00000000000E+00 -0.00000000000E+00 -0.12002944228E+04  0.12002944228E+04  0.00000000000E+00 0.  1.
         21    1    1    2  503  502 -0.15757303789E+02  0.34606814593E+02 -0.18404558957E+03  0.18793270945E+03  0.00000000000E+00 0.  1.
         21    1    1    2  504  506  0.77907887884E+02 -0.59677887166E+02  0.19166063703E+03  0.21532507749E+03  0.00000000000E+00 0.  1.
         21    1    1    2  505  501  0.38992355714E+02  0.24554021012E+02  0.12755460679E+02  0.47812190173E+02  0.00000000000E+00 0. -1.
         21    1    1    2  506  503 -0.10114293981E+03  0.51705156057E+00 -0.98234805479E+03  0.98754132186E+03  0.00000000000E+00 0.  1.
<scales pt_clust_3="38.02531" pt_clust_4="14000.00000" pt_clust_5="46.17217" pt_clust_6="120.48356"></scales>
<clustering>
<clus scale="   38.025">  2  3  1 -1</clus>
<clus scale="   46.172">  1  5  2 -1</clus>
<clus scale="  120.484">  2  6  1 -1</clus>
<clus scale="   46.172">  1  3  2 -1</clus>
</clustering>
</event>
<event>
 6    0  0.3042851E+002  0.1481681E+03  0.7546771E-02  0.1202742E+00
         21   -1    0    0  505  501  0.00000000000E+00  0.00000000000E+00  0.70037084749E+02  0.70037084749E+02  0.00000000000E+00 0. -1.
         21   -1    0    0  504  502 -0.00000000000E+00 -0.00000000000E+00 -0.68947781285E+03  0.68947781285E+03  0.00000000000E+00 0. -1.
         21    1    1    2  503  506 -0.10253098338E+03  0.62600094788E+02 -0.24273990529E+03  0.27083950236E+03  0.00000000000E+00 0. -1.
         21    1    1    2  504  503 -0.12554365849E+02  0.55438623970E+02 -0.22963832349E+03  0.23656883300E+03  0.00000000000E+00 0. -1.
         21    1    1    2  505  502  0.14063944227E+03 -0.96730578677E+02 -0.11441576240E+03  0.20549263796E+03  0.00000000000E+00 0. -1.
         21    1    1    2  506  501 -0.25554093037E+02 -0.21308140080E+02 -0.32646736920E+02  0.46613924273E+02  0.00000000000E+00 0.  1.
<scales pt_clust_3="14000.00000" pt_clust_4="56.03407" pt_clust_5="148.16809" pt_clust_6="33.27234"></scales>
<clustering>
<clus scale="   33.272">  1  6  2 -1</clus>
<clus scale="   56.034">  2  4  1 -1</clus>
<clus scale="  148.168">  1  5  2 -1</clus>
<clus scale="   33.272">  1  3  2 -1</clus>
</clustering>
</event>
<event>
 6    0  0.3042851E+002  0.7650093E+02  0.7546771E-02  0.1339285E+00
         21   -1    0    0  503  501  0.00000000000E+00  0.00000000000E+00  0.44676627862E+03  0.44676627862E+03  0.00000000000E+00 0.  1.
         21   -1    0    0  506  502 -0.00000000000E+00 -0.00000000000E+00 -0.23159539168E+03  0.23159539168E+03  0.00000000000E+00 0.  1.
         21    1    1    2  503  505  0.99683226296E+02  0.46467795440E+02  0.11305391909E+03  0.15772504633E+03  0.00000000000E+00 0.  1.
         21    1    1    2  504  501 -0.63058905593E+02  0.23798602957E+02  0.29214434921E+03  0.29981847817E+03  0.00000000000E+00 0.  1.
         21    1    1    2  505  502 -0.17877889660E+02 -0.40471857560E+02 -0.17831066686E+03  0.18371794716E+03  0.00000000000E+00 0.  1.
         21    1    1    2  506  504 -0.18746431043E+02 -0.29794540838E+02 -0.11716714496E+02  0.37100198640E+02  0.00000000000E+00 0.  1.
<scales pt_clust_3="14000.00000" pt_clust_4="67.53330" pt_clust_5="76.50093" pt_clust_6="35.20147"></scales>
<clustering>
<clus scale="   35.201">  2  6  1 -1</clus>
<clus scale="   67.533">  1  4  2 -1</clus>
<clus scale="   76.501">  2  5  1 -1</clus>
<clus scale="   67.533">  1  3  2 -1</clus>
</clustering>
</event>
<event>
 6    0  0.3042851E+002  0.1518505E+03  0.7546771E-02  0.1198217E+00
         21   -1    0    0  504  501  0.00000000000E+00  0.00000000000E+00  0.49684182024E+03  0.49684182024E+03  0.00000000000E+00 0.  1.
         21   -1    0    0  503  502 -0.00000000000E+00 -0.00000000000E+00 -0.42366371480E+03  0.42366371480E+03  0.00000000000E+00 0. -1.
         21    1    1    2  503  506 -0.63287329154E+02 -0.96870367476E+02 -0.12332721344E+02  0.11636687734E+03  0.00000000000E+00 0. -1.
         21    1    1    2  504  505  0.32249201102E+02 -0.15551536473E+02  0.50955635201E+02  0.62276303817E+02  0.00000000000E+00 0. -1.
         21    1    1    2  505  502  0.86497684265E+02  0.14098139500E+03 -0.33153052309E+03  0.37049978524E+03  0.00000000000E+00 0. -1.
         21    1    1    2  506  501 -0.55459556213E+02 -0.28559491053E+02  0.36608571468E+03  0.37136256865E+03  0.00000000000E+00 0.  1.
<scales pt_clust_3="151.85050" pt_clust_4="35.80309" pt_clust_5="14000.00000" pt_clust_6="50.38481"></scales>
<clustering>
<clus scale="   35.803">  1  4  2 -1</clus>
<clus scale="   50.385">  1  6  2 -1</clus>
<clus scale="  151.851">  1  3  2 -1</clus>
<clus scale="   35.803">  1  3  2 -1</clus>
</clustering>
</event>
<event>
 6    0  0.3042851E+002  0.1598146E+03  0.7546771E-02  0.1188906E+00
         21   -1    0    0  505  501  0.00000000000E+00  0.00000000000E+00  0.27732978235E+03  0.27732978235E+03  0.00000000000E+00 0.  1.
         21   -1    0    0  506  502 -0.00000000000E+00 -0.00000000000E+00 -0.91343760725E+03  0.91343760725E+03  0.00000000000E+00 0. -1.
         21    1    1    2  503  504  0.83120671087E+02 -0.57773367375E+02 -0.68117784913E+03  0.68865816635E+03  0.00000000000E+00 0. -1.
         21    1    1    2  504  501 -0.17872278231E+02 -0.37777906995E+02  0.21104082393E+01  0.41845458642E+02  0.00000000000E+00 0.  1.
         21    1    1    2  505  502 -0.11682846051E+03  0.98058114464E+02  0.22456106159E+03  0.27146261876E+03  0.00000000000E+00 0.  1.
         21    1    1    2  506  503  0.51580067658E+02 -0.25068400935E+01 -0.18160144560E+03  0.18880114584E+03  0.00000000000E+00 0.  1.
<scales pt_clust_3="43.73092" pt_clust_4="41.79221" pt_clust_5="147.55322" pt_clust_6="43.73092"></scales>
<clustering>
<clus scale="   41.792">  1  4  2 -1</clus>
<clus scale="   43.731">  3  6 -1 -1</clus>
<clus scale="  147.553">  1  5  2 -1</clus>
<clus scale="   41.792">  1  3  2 -1</clus>
</clustering>
</event>
<event>
 6    0  0.3042851E+002  0.1177636E+03  0.7546771E-02  0.1246833E+00
         21   -1    0    0  505  501  0.00000000000E+00  0.00000000000E+00  0.17729149118E+04  0.17729149118E+04  0.00000000000E+00 0. -1.
         21   -1    0    0  501  502 -0.00000000000E+00 -0.00000000000E+00 -0.93267203367E+02  0.93267203367E+02  0.00000000000E+00 0.  1.
         21    1    1    2  503  506 -0.12829439216E+03  0.13971273509E+02  0.11224195377E+04  0.11298142618E+04  0.00000000000E+00 0. -1.
         21    1    1    2  504  502  0.29525493948E+02 -0.35244238866E+02 -0.42936318918E+02  0.62908176323E+02  0.00000000000E+00 0.  1.
         21    1    1    2  505  503  0.39063606005E+02  0.44594655931E+02  0.60618676661E+03  0.60907884930E+03  0.00000000000E+00 0. -1.
         21    1    1    2  506  504  0.59705292205E+02 -0.23321690574E+02 -0.60222769124E+01  0.64380827796E+02  0.00000000000E+00 0.  1.
<scales pt_clust_3="107.02719" pt_clust_4="41.60699" pt_clust_5="59.28447" pt_clust_6="41.60699"></scales>
<clustering>
<clus scale="   41.607">  4  6 -1 -1</clus>
<clus scale="   59.284">  1  5  2 -1</clus>
<clus scale="  107.027">  1  3  2 -1</clus>
<clus scale="   59.284">  1  3  2 -1</clus>
</clustering>
</event>
<event>
 6    0  0.3042851E+002  0.2468496E+03  0.7546771E-02  0.1115312E+00
         21   -1    0    0  505  501  0.00000000000E+00  0.00000000000E+00  0.77015554323E+03  0.77015554323E+03  0.00000000000E+00 0.  1.
         21   -1    0    0  504  502 -0.00000000000E+00 -0.00000000000E+00 -0.44768764801E+03  0.44768764801E+03  0.00000000000E+00 0.  1.
         21    1    1    2  503  501 -0.68513711993E+02  0.38172196139E+02  0.11142094560E+03  0.13625664170E+03  0.00000000000E+00 0.  1.
         21    1    1    2  504  503 -0.16552087085E+03 -0.14334964211E+03  0.57828814495E+03  0.61835544565E+03  0.00000000000E+00 0.  1.
         21    1    1    2  505  506  0.19626029875E+03  0.80027688036E+02 -0.20539645138E+03  0.29514443575E+03  0.00000000000E+00 0.  1.
         21    1    1    2  506  502  0.37774284097E+02  0.25149757931E+02 -0.16184474395E+03  0.16808666814E+03  0.00000000000E+00 0.  1.
<scales pt_clust_3="77.53840" pt_clust_4="246.84960" pt_clust_5="14000.00000" pt_clust_6="45.38069"></scales>
<clustering>
<clus scale="   45.381">  2  6  1 -1</clus>
<clus scale="   77.538">  1  3  2 -1</clus>
<clus scale="  246.850">  1  4  2 -1</clus>
<clus scale="   77.538">  1  3  2 -1</clus>
</clustering>
</event>
<event>
 6    0  0.3042851E+002  0.9269978E+02  0.7546771E-02  0.1296442E+00
         21   -1    0    0  506  501  0.00000000000E+00  0.00000000000E+00  0.96753052402E+03  0.96753052402E+03  0.00000000000E+00 0. -1.
         21   -1    0    0  504  502 -0.00000000000E+00 -0.00000000000E+00 -0.13852166152E+03  0.13852166152E+03  0.00000000000E+00 0. -1.
         21    1    1    2  503  505  0.47969907032E+02  0.93232432889E+02  0.11009456532E+02  0.10542583486E+03  0.00000000000E+00 0. -1.
         21    1    1    2  504  501 -0.34100401724E+02 -0.82765970408E+02  0.76253731765E+03  0.76777353696E+03  0.00000000000E+00 0. -1.
         21    1    1    2  505  502 -0.71242767580E+02  0.16975895560E+00 -0.66622495228E+02  0.97540338429E+02  0.00000000000E+00 0. -1.
         21    1    1    2  506  503  0.57373262272E+02 -0.10636221436E+02  0.12208458355E+03  0.13531247530E+03  0.00000000000E+00 0. -1.
<scales pt_clust_3="14000.00000" pt_clust_4="92.69978" pt_clust_5="70.18543" pt_clust_6="58.35084"></scales>
<clustering>
<clus scale="   58.351">  1  6  2 -1</clus>
<clus scale="   70.185">  2  5  1 -1</clus>
<clus scale="   92.700">  1  4  2 -1</clus>
<clus scale="   58.351">  1  3  2 -1</clus>
</clustering>
</event>
<event>
 6    0  0.3042851E+002  0.8171204E+02  0.7546771E-02  0.1324262E+00
         21   -1    0    0  503  501  0.00000000000E+00  0.00000000000E+00  0.50401928631E+03  0.50401928631E+03  0.00000000000E+00 0. -1.
         21   -1    0    0  505  502 -0.00000000000E+00 -0.00000000000E+00 -0.35742627001E+03  0.35742627001E+03  0.00000000000E+00 0.  1.
         21    1    1    2  503  506  0.74459512146E+02  0.26502836866E+02  0.19706743987E+03  0.21232568183E+03  0.00000000000E+00 0. -1.
         21    1    1    2  504  501 -0.86306640074E+02  0.81784785255E+01 -0.98971890541E+02  0.13157187674E+03  0.00000000000E+00 0. -1.
         21    1    1    2  505  504  0.28412145918E+02  0.54614850769E+02 -0.22295880704E+03  0.23130210029E+03  0.00000000000E+00 0.  1.
         21    1    1    2  506  502 -0.16565017991E+02 -0.89296166160E+02  0.27145627401E+03  0.28624589746E+03  0.00000000000E+00 0. -1.
<scales pt_clust_3="81.71204" pt_clust_4="14000.00000" pt_clust_5="61.56324" pt_clust_6="80.40717"></scales>
<clustering>
<clus scale="   61.563">  2  5  1 -1</clus>
<clus scale="   81.712">  1  3  2 -1</clus>
<clus scale="   80.407">  1  6  2 -1</clus>
<clus scale="   81.712">  1  3  2 -1</clus>
</clustering>
</event>
<event>
 6    0  0.3042851E+002  0.1802956E+03  0.7546771E-02  0.1167517E+00
         21   -1    0    0  504  501  0.00000000000E+00  0.00000000000E+00  0.29369376170E+03  0.29369376170E+03  0.00000000000E+00 0. -1.
         21   -1    0    0  501  502 -0.00000000000E+00 -0.00000000000E+00 -0.19659906431E+03  0.19659906431E+03  0.00000000000E+00 0. -1.
         21    1    1    2  503  502  0.10908040067E+02 -0.35330421948E+02  0.14330146407E+01  0.37003750946E+02  0.00000000000E+00 0. -1.
         21    1    1    2  504  505 -0.23448510210E+02  0.32548025535E+02  0.95531256085E+02  0.10361190803E+03  0.00000000000E+00 0. -1.
         21    1    1    2  505  506 -0.29163783837E+02  0.12687319848E+03  0.11636665386E+03  0.17460965870E+03  0.00000000000E+00 0. -1.
         21    1    1    2  506  503  0.41704253980E+02 -0.12409080206E+03 -0.11623622720E+03  0.17506750832E+03  0.00000000000E+00 0. -1.
<scales pt_clust_3="31.93749" pt_clust_4="36.49951" pt_clust_5="36.49951" pt_clust_6="178.30996"></scales>
<clustering>
<clus scale="   31.937">  3  6 -1 -1</clus>
<clus scale="   36.500">  4  5 -1 -1</clus>
<clus scale="  178.310">  2  3  1 -1</clus>
<clus scale="  180.296">  1  3  2 -1</clus>
</clustering>
</event>
<event>
 6    0  0.3042851E+002  0.9037582E+02  0.7546771E-02  0.1301944E+00
         21   -1    0    0  506  501  0.00000000000E+00  0.00000000000E+00  0.22879535761E+03  0.22879535761E+03  0.00000000000E+00 0. -1.
         21   -1    0    0  503  502 -0.00000000000E+00 -0.00000000000E+00 -0.10113147351E+03  0.10113147351E+03  0.00000000000E+00 0.  1.
         21    1    1    2  503  504 -0.34442180874E+02  0.43458429297E+01 -0.20071930656E+02  0.40100281475E+02  0.00000000000E+00 0.  1.
         21    1    1    2  504  501 -0.61695922576E+02  0.40286024802E+02  0.67823693427E+02  0.10014691232E+03  0.00000000000E+00 0.  1.
         21    1    1    2  505  502  0.25742366062E+01  0.34084353384E+02 -0.12519430860E+02  0.36402005285E+02  0.00000000000E+00 0. -1.
         21    1    1    2  506  505  0.93563866845E+02 -0.78716221115E+02  0.92431552184E+02  0.15327763204E+03  0.00000000000E+00 0. -1.
<scales pt_clust_3="37.83816" pt_clust_4="14000.00000" pt_clust_5="34.18143" pt_clust_6="90.37582"></scales>
<clustering>
<clus scale="   34.181">  2  5  1 -1</clus>
<clus scale="   37.838">  2  3  1 -1</clus>
<clus scale="   90.376">  2  6  1 -1</clus>
<clus scale="   90.376">  1  3  2 -1</clus>
</clustering>
</event>
<event>
 6    0  0.5688758E+002  0.8460053E+02  0.7546771E-02  0.1316481E+00
         21   -1    0    0  503  501  0.00000000000E+00  0.00000000000E+00  0.12364871338E+04  0.12364871338E+04  0.00000000000E+00 0.  1.
         21   -1    0    0  506  502 -0.00000000000E+00 -0.00000000000E+00 -0.10457411213E+04  0.10457411213E+04  0.00000000000E+00 0. -1.
         21    1    1    2  503  505  0.65811181497E+01 -0.84406593535E+02  0.11909005794E+04  0.11939061832E+04  0.00000000000E+00 0.  1.
         21    1    1    2  504  501 -0.81318524242E+02  0.20813673927E+02 -0.82853698270E+01  0.84347843840E+02  0.00000000000E+00 0.  1.
         21    1    1    2  505  502  0.34060529132E+02  0.49840172171E+02 -0.90559924483E+03  0.90760903182E+03  0.00000000000E+00 0. -1.
         21    1    1    2  506  504  0.40676876961E+02  0.13752747436E+02 -0.86269952245E+02  0.96365196216E+02  0.00000000000E+00 0. -1.
<scales pt_clust_3="14000.00000" pt_clust_4="82.20093" pt_clust_5="84.60053" pt_clust_6="42.93887"></scales>
<clustering>
<clus scale="   42.939">  2  6  1 -1</clus>
<clus scale="   82.201">  2  4  1 -1</clus>
<clus scale="   84.601">  2  5  1 -1</clus>
<clus scale="   84.601">  1  3  2 -1</clus>
</clustering>
</event>
<event>
 6    0  0.3042851E+002  0.7923635E+02  0.7546771E-02  0.1331233E+00
         21   -1    0    0  503  501  0.00000000000E+00  0.00000000000E+00  0.10684109248E+03  0.10684109248E+03  0.00000000000E+00 0.  1.
         21   -1    0    0  506  502 -0.00000000000E+00 -0.00000000000E+00 -0.22148395716E+03  0.22148395716E+03  0.00000000000E+00 0.  1.
         21    1    1    2  503  502  0.42246457918E+02 -0.73976182602E+01 -0.99318290780E+02  0.10818322812E+03  0.00000000000E+00 0.  1.
         21    1    1    2  504  501 -0.46738827303E+02  0.30106072623E+02  0.85401748845E+01  0.56247917059E+02  0.00000000000E+00 0.  1.
         21    1    1    2  505  504  0.60956534740E+02  0.43682390253E+02 -0.10973010514E+02  0.75790878775E+02  0.00000000000E+00 0.  1.
         21    1    1    2  506  505 -0.56464165355E+02 -0.66390844616E+02 -0.12891738270E+02  0.88103025679E+02  0.00000000000E+00 0.  1.
<scales pt_clust_3="42.88925" pt_clust_4="47.70778" pt_clust_5="14000.00000" pt_clust_6="79.23635"></scales>
<clustering>
<clus scale="   42.889">  2  3  1 -1</clus>
<clus scale="   47.708">  1  4  2 -1</clus>
<clus scale="   79.236">  2  6  1 -1</clus>
<clus scale="   47.708">  1  3  2 -1</clus>
</clustering>
</event>
<event>
 6    0  0.3042851E+002  0.1387061E+03  0.7546771E-02  0.1215081E+00
         21   -1    0    0  504  501  0.00000000000E+00  0.00000000000E+00  0.74645815929E+03  0.74645815929E+03  0.00000000000E+00 0.  1.
         21   -1    0    0  505  502 -0.00000000000E+00 -0.00000000000E+00 -0.45232165756E+02  0.45232165756E+02  0.00000000000E+00 0.  1.
         21    1    1    2  503  506 -0.30499390408E+02 -0.12929154206E+03  0.15835977503E+03  0.20669865508E+03  0.00000000000E+00 0.  1.
         21    1    1    2  504  503  0.32234385613E+02  0.13769800990E+03  0.43584514538E+03  0.45821478402E+03  0.00000000000E+00 0.  1.
         21    1    1    2  505  501  0.32100394500E+02  0.10417997397E+01  0.60326184624E+02  0.68343026162E+02  0.00000000000E+00 0.  1.
         21    1    1    2  506  502 -0.33835389705E+02 -0.94482675815E+01  0.46694888505E+02  0.58433859784E+02  0.00000000000E+00 0.  1.
<scales pt_clust_3="138.70605" pt_clust_4="14000.00000" pt_clust_5="32.11730" pt_clust_6="30.70705"></scales>
<clustering>
<clus scale="   32.117">  2  5  1 -1</clus>
<clus scale="   30.707">  2  6  1 -1</clus>
<clus scale="  138.706">  2  3  1 -1</clus>
<clus scale="  138.706">  1  3  2 -1</clus>
</clustering>
</event>
<event>
 6    0  0.3042851E+002  0.7695655E+02  0.7546771E-02  0.1337917E+00
         21   -1    0    0  503  501  0.00000000000E+00  0.00000000000E+00  0.40850896818E+02  0.40850896818E+02  0.00000000000E+00 0.  1.
         21   -1    0    0  504  502 -0.00000000000E+00 -0.00000000000E+00 -0.20558987831E+04  0.20558987831E+04  0.00000000000E+00 0.  1.
         21    1    1    2  503  505 -0.34511070366E+02 -0.34986136116E+02 -0.49038301255E+02  0.69424769990E+02  0.00000000000E+00 0.  1.
         21    1    1    2  504  506  0.30902680448E+01 -0.55470225599E+02 -0.38823047462E+03  0.39218541164E+03  0.00000000000E+00 0.  1.
         21    1    1    2  505  502  0.77772687374E+02  0.58374387106E+02 -0.15757331359E+04  0.15787308433E+04  0.00000000000E+00 0.  1.
         21    1    1    2  506  501 -0.46351885053E+02  0.32081974610E+02 -0.20459744714E+01  0.56408654959E+02  0.00000000000E+00 0.  1.
<scales pt_clust_3="49.14309" pt_clust_4="57.73336" pt_clust_5="14000.00000" pt_clust_6="76.95655"></scales>
<clustering>
<clus scale="   49.143">  1  3  2 -1</clus>
<clus scale="   57.733">  2  4  1 -1</clus>
<clus scale="   76.957">  1  6  2 -1</clus>
<clus scale="   49.143">  1  3  2 -1</clus>
</clustering>
</event>
<event>
 6    0  0.3042851E+002  0.6873618E+02  0.7546771E-02  0.1364444E+00
         21   -1    0    0  506  501  0.00000000000E+00  0.00000000000E+00  0.13473413166E+03  0.13473413166E+03  0.00000000000E+00 0. -1.
         21   -1    0    0  503  502 -0.00000000000E+00 -0.00000000000E+00 -0.58795265747E+03  0.58795265747E+03  0.00000000000E+00 0. -1.
         21    1    1    2  503  504 -0.29898492085E+02  0.99665158059E+02 -0.46734962658E+03  0.47879300018E+03  0.00000000000E+00 0. -1.
         21    1    1    2  504  501 -0.42548441152E+02 -0.16529907133E+01  0.43744282860E+02  0.61046412718E+02  0.00000000000E+00 0. -1.
         21    1    1    2  505  502  0.17041108067E+02 -0.35382318122E+02 -0.77214520998E+02  0.86627882652E+02  0.00000000000E+00 0. -1.
         21    1    1    2  506  505  0.55405825170E+02 -0.62629849224E+02  0.47601338907E+02  0.96219493568E+02  0.00000000000E+00 0. -1.
<scales pt_clust_3="14000.00000" pt_clust_4="42.31739" pt_clust_5="39.27223" pt_clust_6="68.73618"></scales>
<clustering>
<clus scale="   39.272">  2  5  1 -1</clus>
<clus scale="   42.317">  1  4  2 -1</clus>
<clus scale="   68.736">  1  6  2 -1</clus>
<clus scale="   42.317">  1  3  2 -1</clus>
</clustering>
</event>
<event>
 6    0  0.3042851E+002  0.9936932E+02  0.7546771E-02  0.1281628E+00
         21   -1    0    0  503  501  0.00000000000E+00  0.00000000000E+00  0.84389456182E+03  0.84389456182E+03  0.00000000000E+00 0.  1.
         21   -1    0    0  504  502 -0.00000000000E+00 -0.00000000000E+00 -0.29741167107E+03  0.29741167107E+03  0.00000000000E+00 0.  1.
         21    1    1    2  503  505 -0.17252979646E+02  0.29768323992E+02  0.58981977826E+02  0.68283908267E+02  0.00000000000E+00 0. -1.
         21    1    1    2  504  506 -0.96129021464E+02  0.30613909602E+02  0.46073313564E+02  0.11090874831E+03  0.00000000000E+00 0.  1.
         21    1    1    2  505  502  0.39926616555E+01 -0.78866679243E+02 -0.24982843573E+03  0.26201172062E+03  0.00000000000E+00 0.  1.
         21    1    1    2  506  501  0.10938933945E+03  0.18484445650E+02  0.69125603509E+03  0.70010185571E+03  0.00000000000E+00 0.  1.
<scales pt_clust_3="34.40666" pt_clust_4="14000.00000" pt_clust_5="78.72886" pt_clust_6="99.36932"></scales>
<clustering>
<clus scale="   34.407">  1  3  2 -1</clus>
<clus scale="   78.729">  2  5  1 -1</clus>
<clus scale="   99.369">  1  6  2 -1</clus>
<clus scale="   34.407">  1  3  2 -1</clus>
</clustering>
</event>
<event>
 6    0  0.3042851E+002  0.1266144E+03  0.7546771E-02  0.1232568E+00
         21   -1    0    0  505  501  0.00000000000E+00  0.00000000000E+00  0.83045683395E+02  0.83045683395E+02  0.00000000000E+00 0. -1.
         21   -1    0    0  503  502 -0.00000000000E+00 -0.00000000000E+00 -0.44614063485E+03  0.44614063485E+03  0.00000000000E+00 0. -1.
         21    1    1    2  503  501 -0.46869935294E+02  0.18988230224E+02 -0.41374713947E+02  0.65339197085E+02  0.00000000000E+00 0.  1.
         21    1    1    2  504  502  0.89623936269E+01  0.11652076830E+03 -0.29143016589E+03  0.31398878250E+03  0.00000000000E+00 0. -1.
         21    1    1    2  505  506  0.38862826606E+01 -0.85653363945E+02 -0.10728690866E+02  0.86410107949E+02  0.00000000000E+00 0. -1.
         21    1    1    2  506  504  0.34021259007E+02 -0.49855634577E+02 -0.19561380750E+02  0.63448230711E+02  0.00000000000E+00 0.  1.
<scales pt_clust_3="50.57019" pt_clust_4="119.54432" pt_clust_5="35.00178" pt_clust_6="35.00178"></scales>
<clustering>
<clus scale="   35.002">  5  6 -1 -1</clus>
<clus scale="   50.570">  1  3  2 -1</clus>
<clus scale="  119.544">  2  4  1 -1</clus>
<clus scale="   50.570">  1  3  2 -1</clus>
</clustering>
</event>
<event>
 6    0  0.3042851E+002  0.9682388E+02  0.7546771E-02  0.1287120E+00
         21   -1    0    0  506  501  0.00000000000E+00  0.00000000000E+00  0.70098629069E+02  0.70098629069E+02  0.00000000000E+00 0.  1.
         21   -1    0    0  503  502 -0.00000000000E+00 -0.00000000000E+00 -0.95785704887E+03  0.95785704887E+03  0.00000000000E+00 0.  1.
         21    1    1    2  503  505  0.13686851018E+02 -0.10651879848E+03 -0.73338829956E+03  0.74120980988E+03  0.00000000000E+00 0.  1.
         21    1    1    2  504  502  0.33324235452E+02  0.20472943995E+02 -0.12429099441E+03  0.13029926092E+03  0.00000000000E+00 0.  1.
         21    1    1    2  505  501 -0.44863733870E+02 -0.44955810848E+01 -0.46088418781E+02  0.64475632698E+02  0.00000000000E+00 0.  1.
         21    1    1    2  506  504 -0.21473525991E+01  0.90541435575E+02  0.16009292956E+02  0.91970974443E+02  0.00000000000E+00 0.  1.
<scales pt_clust_3="14000.00000" pt_clust_4="39.11069" pt_clust_5="42.76060" pt_clust_6="96.82388"></scales>
<clustering>
<clus scale="   39.111">  2  4  1 -1</clus>
<clus scale="   42.761">  1  5  2 -1</clus>
<clus scale="   96.824">  1  6  2 -1</clus>
<clus scale="   42.761">  1  3  2 -1</clus>
</clustering>
</event>
<event>
 6    0  0.3042851E+002  0.1366863E+03  0.7546771E-02  0.1217859E+00
         21   -1    0    0  505  501  0.00000000000E+00  0.00000000000E+00  0.78494447060E+03  0.78494447060E+03  0.00000000000E+00 0.  1.
         21   -1    0    0  506  502 -0.00000000000E+00 -0.00000000000E+00 -0.23892398624E+02  0.23892398624E+02  0.00000000000E+00 0.  1.
         21    1    1    2  503  502  0.55457890742E+02 -0.35621492191E+02  0.15001226849E+03  0.16385404801E+03  0.00000000000E+00 0.  1.
         21    1    1    2  504  501 -0.46577989801E+02 -0.10610037659E+02  0.11592010506E+03  0.12537764071E+03  0.00000000000E+00 0.  1.
         21    1    1    2  505  503  0.66634735544E+02  0.23751741737E+02  0.15348727361E+03  0.16900495962E+03  0.00000000000E+00 0.  1.
         21    1    1    2  506  504 -0.75514636485E+02  0.22479788113E+02  0.34163242482E+03  0.35060022089E+03  0.00000000000E+00 0.  1.
<scales pt_clust_3="58.20207" pt_clust_4="36.13110" pt_clust_5="58.20207" pt_clust_6="131.15109"></scales>
<clustering>
<clus scale="   36.131">  4  6 -1 -1</clus>
<clus scale="   58.202">  3  5 -1 -1</clus>
<clus scale="  131.151">  1  4  2 -1</clus>
<clus scale="  131.151">  1  3  2 -1</clus>
</clustering>
</event>
<event>
 6    0  0.3042851E+002  0.1598257E+03  0.7546771E-02  0.1188894E+00
         21   -1    0    0  505  501  0.00000000000E+00  0.00000000000E+00  0.31079347354E+03  0.31079347354E+03  0.00000000000E+00 0. -1.
         21   -1    0    0  503  502 -0.00000000000E+00 -0.00000000000E+00 -0.12499682344E+03  0.12499682344E+03  0.00000000000E+00 0. -1.
         21    1    1    2  503  504 -0.12298359555E+03 -0.40603742242E+02  0.18986647965E+03  0.22983234923E+03  0.00000000000E+00 0. -1.
         21    1    1    2  504  501 -0.11539810687E+02 -0.31452239930E+02  0.19398986171E+02  0.38713451045E+02  0.00000000000E+00 0.  1.
         21    1    1    2  505  506  0.55541949348E+02  0.16976603216E+02  0.20231936434E+02  0.61501580842E+02  0.00000000000E+00 0. -1.
         21    1    1    2  506  502  0.78981456890E+02  0.55079378956E+02 -0.43700752153E+02  0.10574291587E+03  0.00000000000E+00 0. -1.
<scales pt_clust_3="146.33160" pt_clust_4="33.50240" pt_clust_5="49.47764" pt_clust_6="49.47764"></scales>
<clustering>
<clus scale="   33.502">  1  4  2 -1</clus>
<clus scale="   49.478">  5  6 -1 -1</clus>
<clus scale="  146.332">  1  3  2 -1</clus>
<clus scale="   33.502">  1  3  2 -1</clus>
</clustering>
</event>
<event>
 6    0  0.3042851E+002  0.1315461E+03  0.7546771E-02  0.1225179E+00
         21   -1    0    0  506  501  0.00000000000E+00  0.00000000000E+00  0.16603247675E+03  0.16603247675E+03  0.00000000000E+00 0. -1.
         21   -1    0    0  504  502 -0.00000000000E+00 -0.00000000000E+00 -0.15971865494E+04  0.15971865494E+04  0.00000000000E+00 0. -1.
         21    1    1    2  503  502  0.66665295602E+02 -0.17576412837E+02 -0.10187247494E+04  0.10210549970E+04  0.00000000000E+00 0. -1.
         21    1    1    2  504  505  0.48270991817E+02 -0.62224943501E+02 -0.49427627790E+03  0.50051081022E+03  0.00000000000E+00 0.  1.
         21    1    1    2  505  501 -0.15072744210E+03  0.33556426320E+02  0.95553593884E+02  0.18159098230E+03  0.00000000000E+00 0. -1.
         21    1    1    2  506  503  0.35791154682E+02  0.46244930018E+02 -0.13706639226E+02  0.60062236594E+02  0.00000000000E+00 0. -1.
<scales pt_clust_3="69.13090" pt_clust_4="131.54612" pt_clust_5="14000.00000" pt_clust_6="58.47735"></scales>
<clustering>
<clus scale="   58.477">  1  6  2 -1</clus>
<clus scale="   69.131">  2  3  1 -1</clus>
<clus scale="  131.546">  2  4  1 -1</clus>
<clus scale="   58.477">  1  3  2 -1</clus>
</clustering>
</event>
<event>
 6    0  0.3042851E+002  0.1214344E+03  0.7546771E-02  0.1240749E+00
         21   -1    0    0  505  501  0.00000000000E+00  0.00000000000E+00  0.44616852987E+02  0.44616852987E+02  0.00000000000E+00 0.  1.
         21   -1    0    0  506  502 -0.00000000000E+00 -0.00000000000E+00 -0.11681501676E+04  0.11681501676E+04  0.00000000000E+00 0.  1.
         21    1    1    2  503  501 -0.48967312188E+02  0.28999182695E+01 -0.11631325085E+02  0.50413241436E+02  0.00000000000E+00 0.  1.
         21    1    1    2  504  503 -0.56260080925E+02 -0.47904814946E+02 -0.45853233572E+02  0.86963136039E+02  0.00000000000E+00 0.  1.
         21    1    1    2  505  502  0.82346982969E+02  0.49659272019E+01 -0.87391372460E+03  0.87779888590E+03  0.00000000000E+00 0.  1.
         21    1    1    2  506  504  0.22880410144E+02  0.40038969475E+02 -0.19213503131E+03  0.19759175717E+03  0.00000000000E+00 0.  1.
<scales pt_clust_3="40.48952" pt_clust_4="40.48952" pt_clust_5="110.80052" pt_clust_6="46.11542"></scales>
<clustering>
<clus scale="   40.490">  3  4 -1 -1</clus>
<clus scale="   46.115">  2  6  1 -1</clus>
<clus scale="  110.801">  2  5  1 -1</clus>
<clus scale="  121.434">  1  3  2 -1</clus>
</clustering>
</event>
<event>
 6    0  0.3042851E+002  0.1928397E+03  0.7546771E-02  0.1155925E+00
         21   -1    0    0  506  501  0.00000000000E+00  0.00000000000E+00  0.29848805545E+03  0.29848805545E+03  0.00000000000E+00 0.  1.
         21   -1    0    0  501  502 -0.00000000000E+00 -0.00000000000E+00 -0.19016894576E+04  0.19016894576E+04  0.00000000000E+00 0. -1.
         21    1    1    2  503  504  0.13175168452E+03  0.37984033192E+02  0.24376929143E+03  0.27968689743E+03  0.00000000000E+00 0.  1.
         21    1    1    2  504  505 -0.52294412339E+02  0.13572461535E+02 -0.48870852662E+03  0.49168581560E+03  0.00000000000E+00 0.  1.
         21    1    1    2  505  502 -0.11742355561E+03 -0.69089317773E+02 -0.13764683899E+04  0.13831944381E+04  0.00000000000E+00 0. -1.
         21    1    1    2  506  503  0.37966283433E+02  0.17532823045E+02  0.18206222921E+02  0.45610361923E+02  0.00000000000E+00 0. -1.
<scales pt_clust_3="40.20799" pt_clust_4="41.79371" pt_clust_5="190.50206" pt_clust_6="40.20799"></scales>
<clustering>
<clus scale="   40.208">  3  6 -1 -1</clus>
<clus scale="   41.794">  4  5 -1 -1</clus>
<clus scale="  190.502">  2  4  1 -1</clus>
<clus scale="  192.840">  1  3  2 -1</clus>
</clustering>
</event>
<event>
 6    0  0.3042851E+002  0.1187305E+03  0.7546771E-02  0.1245206E+00
         21   -1    0    0  504  501  0.00000000000E+00  0.00000000000E+00  0.89841332321E+03  0.89841332321E+03  0.00000000000E+00 0. -1.
         21   -1    0    0  503  502 -0.00000000000E+00 -0.00000000000E+00 -0.61774607342E+02  0.61774607342E+02  0.00000000000E+00 0. -1.
         21    1    1    2  503  505 -0.98717423254E+02  0.70410917111E+02  0.29863873115E+02  0.12487865238E+03  0.00000000000E+00 0. -1.
         21    1    1    2  504  502  0.37061572229E+02  0.40332752175E+02  0.10530767945E+03  0.11870129900E+03  0.00000000000E+00 0.  1.
         21    1    1    2  505  506  0.65042358100E+02 -0.77419739581E+02  0.62499634494E+03  0.63312301776E+03  0.00000000000E+00 0. -1.
         21    1    1    2  506  501 -0.33865070743E+01 -0.33323929705E+02  0.76470818366E+02  0.83484961417E+02  0.00000000000E+00 0. -1.
<scales pt_clust_3="118.73051" pt_clust_4="51.17695" pt_clust_5="14000.00000" pt_clust_6="33.49556"></scales>
<clustering>
<clus scale="   33.496">  1  6  2 -1</clus>
<clus scale="   51.177">  1  4  2 -1</clus>
<clus scale="  118.731">  2  3  1 -1</clus>
<clus scale="   33.496">  1  3  2 -1</clus>
</clustering>
</event>
<event>
 6    0  0.3042851E+002  0.1154803E+03  0.7546771E-02  0.1250745E+00
         21   -1    0    0  505  501  0.00000000000E+00  0.00000000000E+00  0.25225322318E+03  0.25225322318E+03  0.00000000000E+00 0.  1.
         21   -1    0    0  506  502 -0.00000000000E+00 -0.00000000000E+00 -0.26987747038E+03  0.26987747038E+03  0.00000000000E+00 0.  1.
         21    1    1    2  503  502  0.38424279915E+02  0.47070748659E+02 -0.23339380309E+02  0.65090762320E+02  0.00000000000E+00 0.  1.
         21    1    1    2  504  501  0.22970739143E+02 -0.85795887295E+02  0.34949919275E+02  0.95446770458E+02  0.00000000000E+00 0.  1.
         21    1    1    2  505  503 -0.98756379068E+02 -0.29790008808E+02  0.14077836600E+03  0.17452454086E+03  0.00000000000E+00 0.  1.
         21    1    1    2  506  504  0.37361360011E+02  0.68515147444E+02 -0.17001315216E+03  0.18706861992E+03  0.00000000000E+00 0.  1.
<scales pt_clust_3="60.76249" pt_clust_4="84.31424" pt_clust_5="115.48032" pt_clust_6="14000.00000"></scales>
<clustering>
<clus scale="   60.762">  2  3  1 -1</clus>
<clus scale="   84.314">  1  4  2 -1</clus>
<clus scale="  115.480">  1  5  2 -1</clus>
<clus scale="   84.314">  1  3  2 -1</clus>
</clustering>
</event>
<event>
 6    0  0.3042851E+002  0.1418216E+03  0.7546771E-02  0.1210899E+00
         21   -1    0    0  503  501  0.00000000000E+00  0.00000000000E+00  0.74912151467E+03  0.74912151467E+03  0.00000000000E+00 0. -1.
         21   -1    0    0  504  502 -0.00000000000E+00 -0.00000000000E+00 -0.50521362074E+03  0.50521362074E+03  0.00000000000E+00 0.  1.
         21    1    1    2  503  502  0.79025251153E+01 -0.31781372173E+02 -0.37575388954E+02  0.49843910114E+02  0.00000000000E+00 0.  1.
         21    1    1    2  504  506  0.27064765953E+02  0.15468692258E+03 -0.44108721471E+03  0.46820772799E+03  0.00000000000E+00 0.  1.
         21    1    1    2  505  501 -0.46180539212E+02 -0.87686607479E+02  0.42368447829E+03  0.43512081136E+03  0.00000000000E+00 0. -1.
         21    1    1    2  506  505  0.11213248144E+02 -0.35218942928E+02  0.29888601930E+03  0.30116268595E+03  0.00000000000E+00 0. -1.
<scales pt_clust_3="32.74913" pt_clust_4="128.20521" pt_clust_5="37.01431" pt_clust_6="37.01431"></scales>
<clustering>
<clus scale="   32.749">  2  3  1 -1</clus>
<clus scale="   37.014">  5  6 -1 -1</clus>
<clus scale="  128.205">  2  4  1 -1</clus>
<clus scale="  141.822">  1  3  2 -1</clus>
</clustering>
</event>
<event>
 6    0  0.3042851E+002  0.1692581E+03  0.7546771E-02  0.1178624E+00
         21   -1    0    0  502  501  0.00000000000E+00  0.00000000000E+00  0.27616574224E+03  0.27616574224E+03  0.00000000000E+00 0. -1.
         21   -1    0    0  504  502 -0.00000000000E+00 -0.00000000000E+00 -0.19938459454E+03  0.19938459454E+03  0.00000000000E+00 0. -1.
         21    1    1    2  503  501 -0.39512145177E+02  0.52962722728E+02  0.98391122155E+02  0.11852034650E+03  0.00000000000E+00 0. -1.
         21    1    1    2  504  506 -0.71662242297E+01 -0.83517951722E+02 -0.30039433332E+02  0.89044767305E+02  0.00000000000E+00 0. -1.
         21    1    1    2  505  503  0.15955942554E+02  0.98940241399E+02  0.10538266401E+03  0.14542788366E+03  0.00000000000E+00 0. -1.
         21    1    1    2  506  505  0.30722426852E+02 -0.68385012406E+02 -0.96953205142E+02  0.12255733932E+03  0.00000000000E+00 0. -1.
<scales pt_clust_3="54.56404" pt_clust_4="66.99771" pt_clust_5="167.76445" pt_clust_6="66.99771"></scales>
<clustering>
<clus scale="   54.564">  3  5 -1 -1</clus>
<clus scale="   66.998">  4  6 -1 -1</clus>
<clus scale="  167.764">  1  3  2 -1</clus>
<clus scale="  167.764">  1  3  2 -1</clus>
</clustering>
</event>
<event>
 6    0  0.3042851E+002  0.1199123E+03  0.7546771E-02  0.1243242E+00
         21   -1    0    0  504  501  0.00000000000E+00  0.00000000000E+00  0.57244717884E+02  0.57244717884E+02  0.00000000000E+00 0. -1.
         21   -1    0    0  501  502 -0.00000000000E+00 -0.00000000000E+00 -0.78036626178E+03  0.78036626178E+03  0.00000000000E+00 0. -1.
         21    1    1    2  503  506  0.19800598645E+02 -0.93470156191E+02 -0.56463068508E+03  0.57265744065E+03  0.00000000000E+00 0. -1.
         21    1    1    2  504  505 -0.42250539448E+02  0.95547586310E+01 -0.48897791187E+02  0.65325305044E+02  0.00000000000E+00 0. -1.
         21    1    1    2  505  503  0.11658505701E+02  0.11668257976E+03 -0.43497496526E+02  0.12507108930E+03  0.00000000000E+00 0. -1.
         21    1    1    2  506  502  0.10791435102E+02 -0.32767182200E+02 -0.66095571102E+02  0.74557144663E+02  0.00000000000E+00 0. -1.
<scales pt_clust_3="14000.00000" pt_clust_4="41.95699" pt_clust_5="119.91234" pt_clust_6="34.49845"></scales>
<clustering>
<clus scale="   34.498">  2  6  1 -1</clus>
<clus scale="   41.957">  1  4  2 -1</clus>
<clus scale="  119.912">  1  5  2 -1</clus>
<clus scale="   41.957">  1  3  2 -1</clus>
</clustering>
</event>
<event>
 6    0  0.3042851E+002  0.1047973E+03  0.7546771E-02  0.1270520E+00
         21   -1    0    0  506  501  0.00000000000E+00  0.00000000000E+00  0.49462828971E+02  0.49462828971E+02  0.00000000000E+00 0. -1.
         21   -1    0    0  504  502 -0.00000000000E+00 -0.00000000000E+00 -0.79802360720E+03  0.79802360720E+03  0.00000000000E+00 0. -1.
         21    1    1    2  503  502  0.56815836780E+02 -0.44846034364E+02 -0.30726789967E+03  0.31567826703E+03  0.00000000000E+00 0. -1.
         21    1    1    2  504  505  0.84373323145E+02  0.67856992697E+02 -0.23616180531E+03  0.25979959084E+03  0.00000000000E+00 0. -1.
         21    1    1    2  505  501 -0.10570903723E+03  0.27919252329E+02 -0.91669670586E+02  0.14267870797E+03  0.00000000000E+00 0. -1.
         21    1    1    2  506  503 -0.35480122699E+02 -0.50930210662E+02 -0.11346140266E+03  0.12932987033E+03  0.00000000000E+00 0. -1.
<scales pt_clust_3="73.02755" pt_clust_4="14000.00000" pt_clust_5="104.79728" pt_clust_6="62.07033"></scales>
<clustering>
<clus scale="   62.070">  1  6  2 -1</clus>
<clus scale="   73.028">  2  3  1 -1</clus>
<clus scale="  104.797">  1  5  2 -1</clus>
<clus scale="   62.070">  1  3  2 -1</clus>
</clustering>
</event>
<event>
 6    0  0.3042851E+002  0.8959426E+02  0.7546771E-02  0.1303837E+00
         21   -1    0    0  506  501  0.00000000000E+00  0.00000000000E+00  0.58193292471E+03  0.58193292471E+03  0.00000000000E+00 0. -1.
         21   -1    0    0  503  502 -0.00000000000E+00 -0.00000000000E+00 -0.10828730653E+03  0.10828730653E+03  0.00000000000E+00 0. -1.
         21    1    1    2  503  505 -0.22588619835E+02  0.55421723852E+02 -0.58374210636E+02  0.83602402406E+02  0.00000000000E+00 0. -1.
         21    1    1    2  504  502 -0.18159102585E+02 -0.42468141273E+02  0.38757442249E+01  0.46349945234E+02  0.00000000000E+00 0. -1.
         21    1    1    2  505  501 -0.69059952528E+02  0.20305240816E+02  0.18915260066E+03  0.20238647728E+03  0.00000000000E+00 0. -1.
         21    1    1    2  506  504  0.10980767495E+03 -0.33258823395E+02  0.33899148394E+03  0.35788140632E+03  0.00000000000E+00 0. -1.
<scales pt_clust_3="42.78725" pt_clust_4="46.18762" pt_clust_5="89.59426" pt_clust_6="14000.00000"></scales>
<clustering>
<clus scale="   46.188">  2  4  1 -1</clus>
<clus scale="   42.787">  2  3  1 -1</clus>
<clus scale="   89.594">  1  5  2 -1</clus>
<clus scale="   89.594">  1  3  2 -1</clus>
</clustering>
</event>
<event>
 6    0  0.3042851E+002  0.1022226E+03  0.7546771E-02  0.1275690E+00
         21   -1    0    0  504  501  0.00000000000E+00  0.00000000000E+00  0.41335750898E+03  0.41335750898E+03  0.00000000000E+00 0.  1.
         21   -1    0    0  506  502 -0.00000000000E+00 -0.00000000000E+00 -0.11387897320E+03  0.11387897320E+03  0.00000000000E+00 0. -1.
         21    1    1    2  503  501 -0.44513310608E+02 -0.53543720340E+01  0.20120614400E+03  0.20614076866E+03  0.00000000000E+00 0.  1.
         21    1    1    2  504  502  0.66352429538E+02  0.89014275963E+02  0.14321943971E+02  0.11194330846E+03  0.00000000000E+00 0. -1.
         21    1    1    2  505  503 -0.47261427329E+02  0.15351063859E+02  0.94112566719E+02  0.10642590328E+03  0.00000000000E+00 0. -1.
         21    1    1    2  506  505  0.25422308399E+02 -0.99010967788E+02 -0.10162118902E+02  0.10272650178E+03  0.00000000000E+00 0. -1.
<scales pt_clust_3="42.07636" pt_clust_4="88.09223" pt_clust_5="42.07636" pt_clust_6="102.22263"></scales>
<clustering>
<clus scale="   42.076">  3  5 -1 -1</clus>
<clus scale="  102.223">  2  6  1 -1</clus>
<clus scale="   88.092">  2  4  1 -1</clus>
<clus scale="  102.223">  1  3  2 -1</clus>
</clustering>
</event>
<event>
 6    0  0.3042851E+002  0.2130365E+03  0.7546771E-02  0.1139184E+00
         21   -1    0    0  505  501  0.00000000000E+00  0.00000000000E+00  0.23517118403E+03  0.23517118403E+03  0.00000000000E+00 0. -1.
         21   -1    0    0  503  502 -0.00000000000E+00 -0.00000000000E+00 -0.11033752918E+04  0.11033752918E+04  0.00000000000E+00 0. -1.
         21    1    1    2  503  504  0.46353882207E+02  0.15599195495E+03 -0.89936371311E+03  0.91396786643E+03  0.00000000000E+00 0. -1.
         21    1    1    2  504  506 -0.48289854508E+01  0.44708239300E+02 -0.12347779089E+03  0.13141122709E+03  0.00000000000E+00 0. -1.
         21    1    1    2  505  502  0.64511443623E+01 -0.59800947385E+02 -0.20296697322E+02  0.63480126763E+02  0.00000000000E+00 0.  1.
         21    1    1    2  506  501 -0.47976041118E+02 -0.14089924687E+03  0.17493409353E+03  0.22968725557E+03  0.00000000000E+00 0. -1.
<scales pt_clust_3="35.68310" pt_clust_4="35.68310" pt_clust_5="60.14791" pt_clust_6="201.93248"></scales>
<clustering>
<clus scale="   35.683">  3  4 -1 -1</clus>
<clus scale="   60.148">  1  5  2 -1</clus>
<clus scale="  201.932">  1  6  2 -1</clus>
<clus scale="   60.148">  1  3  2 -1</clus>
</clustering>
</event>
<event>
 6    0  0.3042851E+002  0.1425534E+03  0.7546771E-02  0.1209934E+00
         21   -1    0    0  505  501  0.00000000000E+00  0.00000000000E+00  0.67523209682E+03  0.67523209682E+03  0.00000000000E+00 0.  1.
         21   -1    0    0  506  502 -0.00000000000E+00 -0.00000000000E+00 -0.11120896149E+03  0.11120896149E+03  0.00000000000E+00 0. -1.
         21    1    1    2  503  501  0.70142584683E+02 -0.34163902065E+02 -0.25830700660E+01  0.78062965875E+02  0.00000000000E+00 0. -1.
         21    1    1    2  504  502 -0.95450682409E+02  0.44525966781E+02  0.29353243730E+03  0.31185683613E+03  0.00000000000E+00 0.  1.
         21    1    1    2  505  504 -0.34865720082E+02  0.68061769154E+01  0.31768949528E+03  0.31966945098E+03  0.00000000000E+00 0.  1.
         21    1    1    2  506  503  0.60173817808E+02 -0.17168241632E+02 -0.44615727179E+02  0.76851805327E+02  0.00000000000E+00 0. -1.
<scales pt_clust_3="42.01291" pt_clust_4="134.78860" pt_clust_5="35.52383" pt_clust_6="42.01291"></scales>
<clustering>
<clus scale="   35.524">  1  5  2 -1</clus>
<clus scale="   42.013">  3  6 -1 -1</clus>
<clus scale="  134.789">  1  4  2 -1</clus>
<clus scale="   35.524">  1  3  2 -1</clus>
</clustering>
</event>
<event>
 6    0  0.3042851E+002  0.9113061E+02  0.7546771E-02  0.1300137E+00
         21   -1    0    0  503  501  0.00000000000E+00  0.00000000000E+00  0.38355253738E+02  0.38355253738E+02  0.00000000000E+00 0. -1.
         21   -1    0    0  506  502 -0.00000000000E+00 -0.00000000000E+00 -0.93373585164E+03  0.93373585164E+03  0.00000000000E+00 0.  1.
         21    1    1    2  503  504  0.28373811147E+02  0.17316682275E+02 -0.23333709298E+02  0.40612838286E+02  0.00000000000E+00 0. -1.
         21    1    1    2  504  502 -0.20860169232E+02  0.63542384776E+02 -0.99447128683E+02  0.11984370124E+03  0.00000000000E+00 0. -1.
         21    1    1    2  505  501 -0.96969211596E+02 -0.73226981556E+02 -0.21593628971E+03  0.24777752125E+03  0.00000000000E+00 0. -1.
         21    1    1    2  506  505  0.89455569681E+02 -0.76320854953E+01 -0.55666347021E+03  0.56385704460E+03  0.00000000000E+00 0.  1.
<scales pt_clust_3="33.24065" pt_clust_4="70.36993" pt_clust_5="91.13061" pt_clust_6="14000.00000"></scales>
<clustering>
<clus scale="   33.241">  1  3  2 -1</clus>
<clus scale="   70.370">  1  4  2 -1</clus>
<clus scale="   91.131">  1  5  2 -1</clus>
<clus scale="   33.241">  1  3  2 -1</clus>
</clustering>
</event>
<event>
 6    0  0.3042851E+002  0.1359778E+03  0.7546771E-02  0.1218846E+00
         21   -1    0    0  506  501  0.00000000000E+00  0.00000000000E+00  0.23239001475E+03  0.23239001475E+03  0.00000000000E+00 0. -1.
         21   -1    0    0  503  502 -0.00000000000E+00 -0.00000000000E+00 -0.30869817868E+03  0.30869817868E+03  0.00000000000E+00 0.  1.
         21    1    1    2  503  504  0.14256692359E+03 -0.16688694443E+02 -0.19861443235E+03  0.24505414292E+03  0.00000000000E+00 0.  1.
         21    1    1    2  504  505 -0.68574200391E+02 -0.21874623509E+02  0.66057378044E+02  0.97695943146E+02  0.00000000000E+00 0. -1.
         21    1    1    2  505  501 -0.54792974757E+02  0.98739934861E+01  0.11637455877E+03  0.12900699113E+03  0.00000000000E+00 0. -1.
         21    1    1    2  506  502 -0.19199748444E+02  0.28689324466E+02 -0.60125668402E+02  0.69331116242E+02  0.00000000000E+00 0. -1.
<scales pt_clust_3="125.46164" pt_clust_4="46.16437" pt_clust_5="46.16437" pt_clust_6="34.52112"></scales>
<clustering>
<clus scale="   34.521">  2  6  1 -1</clus>
<clus scale="   46.164">  4  5 -1 -1</clus>
<clus scale="  125.462">  2  3  1 -1</clus>
<clus scale="  135.978">  1  3  2 -1</clus>
</clustering>
</event>
<event>
 6    0  0.3042851E+002  0.1197583E+03  0.7546771E-02  0.1243496E+00
         21   -1    0    0  503  501  0.00000000000E+00  0.00000000000E+00  0.93597830395E+03  0.93597830395E+03  0.00000000000E+00 0.  1.
         21   -1    0    0  506  502 -0.00000000000E+00 -0.00000000000E+00 -0.48653652589E+03  0.48653652589E+03  0.00000000000E+00 0. -1.
         21    1    1    2  503  504  0.28751738951E+02 -0.64419145061E+02  0.22838378162E+03  0.23903062660E+03  0.00000000000E+00 0. -1.
         21    1    1    2  504  502 -0.85930516991E+02  0.46074569530E+02 -0.36001826437E+03  0.37298802981E+03  0.00000000000E+00 0. -1.
         21    1    1    2  505  501  0.45384150954E+02 -0.35725862744E+02  0.68782969856E+03  0.69025049993E+03  0.00000000000E+00 0.  1.
         21    1    1    2  506  505  0.11794627087E+02  0.54070438275E+02 -0.10675343776E+03  0.12024567350E+03  0.00000000000E+00 0. -1.
<scales pt_clust_3="14000.00000" pt_clust_4="119.75832" pt_clust_5="57.68040" pt_clust_6="55.34190"></scales>
<clustering>
<clus scale="   55.342">  2  6  1 -1</clus>
<clus scale="   57.680">  1  5  2 -1</clus>
<clus scale="  119.758">  2  4  1 -1</clus>
<clus scale="   57.680">  1  3  2 -1</clus>
</clustering>
</event>
<event>
 6    0  0.3042851E+002  0.1000420E+03  0.7546771E-02  0.1280208E+00
         21   -1    0    0  504  501  0.00000000000E+00  0.00000000000E+00  0.80125403497E+02  0.80125403497E+02  0.00000000000E+00 0. -1.
         21   -1    0    0  503  502 -0.00000000000E+00 -0.00000000000E+00 -0.43507424370E+03  0.43507424370E+03  0.00000000000E+00 0. -1.
         21    1    1    2  503  505 -0.71312413996E+01  0.34467901893E+02 -0.15864057248E+03  0.16249837569E+03  0.00000000000E+00 0. -1.
         21    1    1    2  504  502 -0.57594720179E+02 -0.52979846623E+02  0.27529472471E+00  0.78256576259E+02  0.00000000000E+00 0. -1.
         21    1    1    2  505  506  0.53611312992E+02  0.78159788982E+02 -0.19135998666E+03  0.21354570937E+03  0.00000000000E+00 0. -1.
         21    1    1    2  506  501  0.11114648587E+02 -0.59647844252E+02 -0.52235757863E+01  0.60898985879E+02  0.00000000000E+00 0. -1.
<scales pt_clust_3="35.19788" pt_clust_4="14000.00000" pt_clust_5="100.04204" pt_clust_6="56.43622"></scales>
<clustering>
<clus scale="   35.198">  2  3  1 -1</clus>
<clus scale="   56.436">  1  6  2 -1</clus>
<clus scale="  100.042">  2  5  1 -1</clus>
<clus scale="   56.436">  1  3  2 -1</clus>
</clustering>
</event>
<event>
 6    0  0.3042851E+002  0.1668750E+03  0.7546771E-02  0.1181146E+00
         21   -1    0    0  503  501  0.00000000000E+00  0.00000000000E+00  0.10610917000E+04  0.10610917000E+04  0.00000000000E+00 0.  1.
         21   -1    0    0  505  502 -0.00000000000E+00 -0.00000000000E+00 -0.75901877964E+02  0.75901877964E+02  0.00000000000E+00 0.  1.
         21    1    1    2  503  504 -0.51708484728E+02 -0.17018219944E+03  0.13038801563E+03  0.22053748666E+03  0.00000000000E+00 0.  1.
         21    1    1    2  504  502  0.47991133732E+02 -0.14341173102E+01  0.22512658120E+02  0.53028533687E+02  0.00000000000E+00 0.  1.
         21    1    1    2  505  506  0.69235904172E+02  0.14166156827E+03  0.56132167690E+03  0.58304685516E+03  0.00000000000E+00 0.  1.
         21    1    1    2  506  501 -0.65518553177E+02  0.29954748477E+02  0.27096747140E+03  0.28038070248E+03  0.00000000000E+00 0. -1.
<scales pt_clust_3="14000.00000" pt_clust_4="48.01256" pt_clust_5="166.87497" pt_clust_6="68.62304"></scales>
<clustering>
<clus scale="   48.013">  2  4  1 -1</clus>
<clus scale="   68.623">  1  6  2 -1</clus>
<clus scale="  166.875">  1  5  2 -1</clus>
<clus scale="   68.623">  1  3  2 -1</clus>
</clustering>
</event>
<event>
 6    0  0.3042851E+002  0.1785138E+03  0.7546771E-02  0.1169249E+00
         21   -1    0    0  505  501  0.00000000000E+00  0.00000000000E+00  0.20375926979E+04  0.20375926979E+04  0.00000000000E+00 0. -1.
         21   -1    0    0  504  502 -0.00000000000E+00 -0.00000000000E+00 -0.79720403961E+03  0.79720403961E+03  0.00000000000E+00 0.  1.
         21    1    1    2  503  506  0.53815879516E+02 -0.63880031427E+02  0.10199632048E+04  0.10233776167E+04  0.00000000000E+00 0. -1.
         21    1    1    2  504  501 -0.87884342904E+02  0.10534245414E+03 -0.44935842671E+03  0.46983367911E+03  0.00000000000E+00 0.  1.
         21    1    1    2  505  503  0.30092613792E+02 -0.89960420908E+02  0.10016696540E+04  0.10061513497E+04  0.00000000000E+00 0. -1.
         21    1    1    2  506  502  0.39758495957E+01  0.48497998200E+02 -0.33188577380E+03  0.33543409197E+03  0.00000000000E+00 0.  1.
<scales pt_clust_3="33.58368" pt_clust_4="174.88935" pt_clust_5="33.58368" pt_clust_6="48.66069"></scales>
<clustering>
<clus scale="   33.584">  3  5 -1 -1</clus>
<clus scale="   48.661">  2  6  1 -1</clus>
<clus scale="  174.889">  2  4  1 -1</clus>
<clus scale="  178.514">  1  3  2 -1</clus>
</clustering>
</event>
<event>
 6    0  0.3042851E+002  0.1410067E+03  0.7546771E-02  0.1211981E+00
         21   -1    0    0  506  501  0.00000000000E+00  0.00000000000E+00  0.13339342859E+04  0.13339342859E+04  0.00000000000E+00 0. -1.
         21   -1    0    0  505  502 -0.00000000000E+00 -0.00000000000E+00 -0.62396820871E+02  0.62396820871E+02  0.00000000000E+00 0. -1.
         21    1    1    2  503  504  0.11700753129E+02 -0.49762408557E+02  0.26736063196E+03  0.27220380682E+03  0.00000000000E+00 0. -1.
         21    1    1    2  504  502  0.51606364043E+01  0.15520119227E+03  0.76345085199E+02  0.17303934317E+03  0.00000000000E+00 0. -1.
         21    1    1    2  505  501 -0.64985977596E+02 -0.36482131073E+02  0.13839695582E+03  0.15718727860E+03  0.00000000000E+00 0. -1.
         21    1    1    2  506  503  0.48124588063E+02 -0.68956652639E+02  0.78943479202E+03  0.79390067815E+03  0.00000000000E+00 0. -1.
<scales pt_clust_3="35.63559" pt_clust_4="133.39409" pt_clust_5="74.52599" pt_clust_6="35.63559"></scales>
<clustering>
<clus scale="   35.636">  3  6 -1 -1</clus>
<clus scale="   74.526">  2  5  1 -1</clus>
<clus scale="  133.394">  2  4  1 -1</clus>
<clus scale="  141.007">  1  3  2 -1</clus>
</clustering>
</event>
<event>
 6    0  0.3042851E+002  0.8235013E+02  0.7546771E-02  0.1322511E+00
         21   -1    0    0  505  501  0.00000000000E+00  0.00000000000E+00  0.70326416804E+03  0.70326416804E+03  0.00000000000E+00 0.  1.
         21   -1    0    0  506  502 -0.00000000000E+00 -0.00000000000E+00 -0.40452364581E+03  0.40452364581E+03  0.00000000000E+00 0. -1.
         21    1    1    2  503  501 -0.50697650932E+02 -0.21763646252E+01  0.27940739407E+02  0.57928173557E+02  0.00000000000E+00 0. -1.
         21    1    1    2  504  502 -0.55966909607E+02 -0.60274045988E+02 -0.25099199696E+03  0.26412542121E+03  0.00000000000E+00 0. -1.
         21    1    1    2  505  504  0.83651676628E+01  0.49670058575E+02  0.63400808602E+03  0.63600577347E+03  0.00000000000E+00 0.  1.
         21    1    1    2  506  503  0.98299392876E+02  0.12780352039E+02 -0.11221630624E+03  0.14972844561E+03  0.00000000000E+00 0. -1.
<scales pt_clust_3="53.93779" pt_clust_4="82.35013" pt_clust_5="50.36954" pt_clust_6="14000.00000"></scales>
<clustering>
<clus scale="   50.370">  1  5  2 -1</clus>
<clus scale="   53.938">  1  3  2 -1</clus>
<clus scale="   82.350">  2  4  1 -1</clus>
<clus scale="   50.370">  1  3  2 -1</clus>
</clustering>
</event>
<event>
 6    0  0.3042851E+002  0.1170116E+03  0.7546771E-02  0.1248110E+00
         21   -1    0    0  502  501  0.00000000000E+00  0.00000000000E+00  0.40160465372E+03  0.40160465372E+03  0.00000000000E+00 0.  1.
         21   -1    0    0  503  502 -0.00000000000E+00 -0.00000000000E+00 -0.78018929423E+02  0.78018929423E+02  0.00000000000E+00 0.  1.
         21    1    1    2  503  505  0.35448315431E+02  0.53128915353E+01  0.29198573360E+01  0.35962973323E+02  0.00000000000E+00 0.  1.
         21    1    1    2  504  506 -0.39198426194E+02  0.14109024210E+02  0.14322581882E+03  0.14916171210E+03  0.00000000000E+00 0.  1.
         21    1    1    2  505  504  0.34835775420E+02 -0.89416237759E+02 -0.55556188018E+01  0.96123148744E+02  0.00000000000E+00 0.  1.
         21    1    1    2  506  501 -0.31085664658E+02  0.69994322014E+02  0.18299566694E+03  0.19837574897E+03  0.00000000000E+00 0.  1.
<scales pt_clust_3="35.84424" pt_clust_4="35.74286" pt_clust_5="106.50408" pt_clust_6="35.74286"></scales>
<clustering>
<clus scale="   35.743">  4  6 -1 -1</clus>
<clus scale="   35.844">  2  3  1 -1</clus>
<clus scale="  106.504">  2  5  1 -1</clus>
<clus scale="  117.012">  1  3  2 -1</clus>
</clustering>
</event>
<event>
 6    0  0.3042851E+002  0.1314502E+03  0.7546771E-02  0.1225320E+00
         21   -1    0    0  506  501  0.00000000000E+00  0.00000000000E+00  0.37679389329E+03  0.37679389329E+03  0.00000000000E+00 0.  1.
         21   -1    0    0  505  502 -0.00000000000E+00 -0.00000000000E+00 -0.16948579305E+03  0.16948579305E+03  0.00000000000E+00 0. -1.
         21    1    1    2  503  501 -0.81941468520E+02  0.65050307118E+02  0.10650715498E+03  0.14929742390E+03  0.00000000000E+00 0.  1.
         21    1    1    2  504  503 -0.20387308971E+02  0.51600490230E+02 -0.80077565882E+02  0.97420067320E+02  0.00000000000E+00 0. -1.
         21    1    1    2  505  504  0.26572982962E+01  0.35285834761E+02 -0.92390696562E+01  0.36572008109E+02  0.00000000000E+00 0.  1.
         21    1    1    2  506  502  0.99671479194E+02 -0.15193663211E+03  0.19011758080E+03  0.26299018702E+03  0.00000000000E+00 0. -1.
<scales pt_clust_3="131.45023" pt_clust_4="75.34243" pt_clust_5="35.38575" pt_clust_6="14000.00000"></scales>
<clustering>
<clus scale="   35.386">  2  5  1 -1</clus>
<clus scale="   75.342">  2  4  1 -1</clus>
<clus scale="  131.450">  1  3  2 -1</clus>
<clus scale="  131.450">  1  3  2 -1</clus>
</clustering>
</event>
<event>
 6    0  0.3042851E+002  0.1261243E+03  0.7546771E-02  0.1233323E+00
         21   -1    0    0  504  501  0.00000000000E+00  0.00000000000E+00  0.10463492207E+03  0.10463492207E+03  0.00000000000E+00 0. -1.
         21   -1    0    0  505  502 -0.00000000000E+00 -0.00000000000E+00 -0.25870558921E+03  0.25870558921E+03  0.00000000000E+00 0.  1.
         21    1    1    2  503  501  0.28208057338E+02 -0.43057607310E+02  0.37458284305E+01  0.51610883316E+02  0.00000000000E+00 0. -1.
         21    1    1    2  504  502  0.31734812231E+02  0.64478103922E+02 -0.44150987041E+02  0.84343546578E+02  0.00000000000E+00 0.  1.
         21    1    1    2  505  506 -0.38610473415E+02  0.72460081004E+02 -0.10118625670E+03  0.13030690903E+03  0.00000000000E+00 0.  1.
         21    1    1    2  506  503 -0.21332396154E+02 -0.93880577617E+02 -0.12479251830E+02  0.97079172357E+02  0.00000000000E+00 0. -1.
<scales pt_clust_3="41.57709" pt_clust_4="71.86462" pt_clust_5="112.57988" pt_clust_6="41.57709"></scales>
<clustering>
<clus scale="   41.577">  3  6 -1 -1</clus>
<clus scale="   71.865">  2  4  1 -1</clus>
<clus scale="  112.580">  2  5  1 -1</clus>
<clus scale="  126.124">  1  3  2 -1</clus>
</clustering>
</event>
<event>
 6    0  0.3042851E+002  0.1063347E+03  0.7546771E-02  0.1267512E+00
         21   -1    0    0  505  501  0.00000000000E+00  0.00000000000E+00  0.54075151812E+03  0.54075151812E+03  0.00000000000E+00 0.  1.
         21   -1    0    0  504  502 -0.00000000000E+00 -0.00000000000E+00 -0.33681210293E+03  0.33681210293E+03  0.00000000000E+00 0. -1.
         21    1    1    2  503  506 -0.68754878342E+02  0.26734342002E+02  0.38686327913E+03  0.39383391814E+03  0.00000000000E+00 0.  1.
         21    1    1    2  504  503  0.55132298897E+02 -0.30119509444E+00 -0.39677077934E+02  0.67925927403E+02  0.00000000000E+00 0. -1.
         21    1    1    2  505  502  0.29572572698E+02 -0.69955391219E+02 -0.27019047038E+03  0.28066204607E+03  0.00000000000E+00 0. -1.
         21    1    1    2  506  501 -0.15949993254E+02  0.43522244312E+02  0.12694368438E+03  0.13514172945E+03  0.00000000000E+00 0.  1.
<scales pt_clust_3="14000.00000" pt_clust_4="54.59561" pt_clust_5="106.33470" pt_clust_6="46.35286"></scales>
<clustering>
<clus scale="   46.353">  1  6  2 -1</clus>
<clus scale="   54.596">  2  4  1 -1</clus>
<clus scale="  106.335">  2  5  1 -1</clus>
<clus scale="   46.353">  1  3  2 -1</clus>
</clustering>
</event>
<event>
 6    0  0.3042851E+002  0.1070565E+03  0.7546771E-02  0.1266120E+00
         21   -1    0    0  504  501  0.00000000000E+00  0.00000000000E+00  0.10419753901E+03  0.10419753901E+03  0.00000000000E+00 0. -1.
         21   -1    0    0  506  502 -0.00000000000E+00 -0.00000000000E+00 -0.12580394789E+04  0.12580394789E+04  0.00000000000E+00 0.  1.
         21    1    1    2  503  501 -0.77772010927E+01  0.77612643301E+02 -0.33921701224E+02  0.85058151114E+02  0.00000000000E+00 0. -1.
         21    1    1    2  504  505 -0.53936501186E+02  0.16534405541E+02  0.60928938235E+02  0.83035343325E+02  0.00000000000E+00 0. -1.
         21    1    1    2  505  502  0.40128533679E+02 -0.12982713329E+03 -0.92036490517E+03  0.93034237913E+03  0.00000000000E+00 0.  1.
         21    1    1    2  506  503  0.21585168600E+02  0.35680084447E+02 -0.26048427177E+03  0.26380114437E+03  0.00000000000E+00 0. -1.
<scales pt_clust_3="14000.00000" pt_clust_4="56.30275" pt_clust_5="107.05649" pt_clust_6="41.70117"></scales>
<clustering>
<clus scale="   41.701">  2  6  1 -1</clus>
<clus scale="   56.303">  1  4  2 -1</clus>
<clus scale="  107.056">  2  5  1 -1</clus>
<clus scale="   56.303">  1  3  2 -1</clus>
</clustering>
</event>
<event>
 6    0  0.3042851E+002  0.9665951E+02  0.7546771E-02  0.1287482E+00
         21   -1    0    0  503  501  0.00000000000E+00  0.00000000000E+00  0.16640747482E+04  0.16640747482E+04  0.00000000000E+00 0.  1.
         21   -1    0    0  505  502 -0.00000000000E+00 -0.00000000000E+00 -0.19494734723E+02  0.19494734723E+02  0.00000000000E+00 0.  1.
         21    1    1    2  503  502 -0.10435745053E+03  0.69109462657E+02  0.10026020990E+04  0.10103848595E+04  0.00000000000E+00 0.  1.
         21    1    1    2  504  501  0.39896660745E+02 -0.15584075170E+02  0.51286860048E+03  0.51465406663E+03  0.00000000000E+00 0.  1.
         21    1    1    2  505  506  0.13060417959E+02 -0.33888587779E+02  0.42303158227E+02  0.55754534299E+02  0.00000000000E+00 0.  1.
         21    1    1    2  506  504  0.51400371828E+02 -0.19636799708E+02  0.86806155713E+02  0.10277602248E+03  0.00000000000E+00 0.  1.
<scales pt_clust_3="88.88475" pt_clust_4="42.83231" pt_clust_5="30.85707" pt_clust_6="30.85707"></scales>
<clustering>
<clus scale="   30.857">  5  6 -1 -1</clus>
<clus scale="   42.832">  1  4  2 -1</clus>
<clus scale="   88.885">  1  3  2 -1</clus>
<clus scale="   42.832">  1  3  2 -1</clus>
</clustering>
</event>
<event>
 6    0  0.3042851E+002  0.1291232E+03  0.7546771E-02  0.1228763E+00
         21   -1    0    0  502  501  0.00000000000E+00  0.00000000000E+00  0.12220944891E+03  0.12220944891E+03  0.00000000000E+00 0.  1.
         21   -1    0    0  505  502 -0.00000000000E+00 -0.00000000000E+00 -0.31749317360E+03  0.31749317360E+03  0.00000000000E+00 0.  1.
         21    1    1    2  503  504 -0.11527243422E+03  0.51597168533E+01 -0.18450568574E+03  0.21761595723E+03  0.00000000000E+00 0.  1.
         21    1    1    2  504  506  0.20900652046E+02 -0.31612163297E+02 -0.57404645167E+00  0.37901129978E+02  0.00000000000E+00 0. -1.
         21    1    1    2  505  503  0.85734693962E+01  0.45397536037E+02 -0.65658903378E+02  0.80284072197E+02  0.00000000000E+00 0.  1.
         21    1    1    2  506  501  0.85798312781E+02 -0.18945089594E+02  0.55454910885E+02  0.10390146311E+03  0.00000000000E+00 0.  1.
<scales pt_clust_3="116.26451" pt_clust_4="36.89076" pt_clust_5="46.20001" pt_clust_6="36.89076"></scales>
<clustering>
<clus scale="   36.891">  4  6 -1 -1</clus>
<clus scale="   46.200">  2  5  1 -1</clus>
<clus scale="  116.265">  2  3  1 -1</clus>
<clus scale="  129.123">  1  3  2 -1</clus>
</clustering>
</event>
<event>
 6    0  0.3042851E+002  0.1039611E+03  0.7546771E-02  0.1272180E+00
         21   -1    0    0  503  501  0.00000000000E+00  0.00000000000E+00  0.61233303761E+03  0.61233303761E+03  0.00000000000E+00 0. -1.
         21   -1    0    0  504  502 -0.00000000000E+00 -0.00000000000E+00 -0.12182570987E+04  0.12182570987E+04  0.00000000000E+00 0.  1.
         21    1    1    2  503  505  0.45551433451E+02  0.38679401321E+02  0.14648493754E+03  0.15820513931E+03  0.00000000000E+00 0. -1.
         21    1    1    2  504  501 -0.73479577506E+02  0.53153733505E+02  0.45325462625E+03  0.46223838429E+03  0.00000000000E+00 0. -1.
         21    1    1    2  505  506  0.28176902246E+02 -0.42191709618E+02 -0.76862980767E+03  0.77030244672E+03  0.00000000000E+00 0.  1.
         21    1    1    2  506  502 -0.24875819065E+00 -0.49641425207E+02 -0.43703381718E+03  0.43984416597E+03  0.00000000000E+00 0.  1.
<scales pt_clust_3="59.75809" pt_clust_4="95.87060" pt_clust_5="39.77313" pt_clust_6="39.77313"></scales>
<clustering>
<clus scale="   39.773">  5  6 -1 -1</clus>
<clus scale="   59.758">  1  3  2 -1</clus>
<clus scale="   95.871">  1  4  2 -1</clus>
<clus scale="   59.758">  1  3  2 -1</clus>
</clustering>
</event>
<event>
 6    0  0.3042851E+002  0.1609964E+03  0.7546771E-02  0.1187576E+00
         21   -1    0    0  505  501  0.00000000000E+00  0.00000000000E+00  0.90625534370E+03  0.90625534370E+03  0.00000000000E+00 0.  1.
         21   -1    0    0  506  502 -0.00000000000E+00 -0.00000000000E+00 -0.12409971581E+03  0.12409971581E+03  0.00000000000E+00 0. -1.
         21    1    1    2  503  502 -0.27799941453E+02  0.71556501516E+02  0.66196165274E+02  0.10136617755E+03  0.00000000000E+00 0.  1.
         21    1    1    2  504  503  0.65488215651E+02 -0.98039718812E+02  0.70068286696E+03  0.71053287954E+03  0.00000000000E+00 0.  1.
         21    1    1    2  505  504  0.33793496447E+02 -0.17603019864E+02  0.95186708508E+02  0.10252987948E+03  0.00000000000E+00 0. -1.
         21    1    1    2  506  501 -0.71481770645E+02  0.44086237160E+02 -0.79910112854E+02  0.11592612293E+03  0.00000000000E+00 0. -1.
<scales pt_clust_3="76.76698" pt_clust_4="37.84877" pt_clust_5="37.84877" pt_clust_6="146.58533"></scales>
<clustering>
<clus scale="   37.849">  4  5 -1 -1</clus>
<clus scale="   76.767">  2  3  1 -1</clus>
<clus scale="  146.585">  2  6  1 -1</clus>
<clus scale="  160.996">  1  3  2 -1</clus>
</clustering>
</event>
<event>
 6    0  0.3042851E+002  0.9630712E+02  0.7546771E-02  0.1288259E+00
         21   -1    0    0  503  501  0.00000000000E+00  0.00000000000E+00  0.10279677536E+03  0.10279677536E+03  0.00000000000E+00 0. -1.
         21   -1    0    0  506  502 -0.00000000000E+00 -0.00000000000E+00 -0.20664527019E+03  0.20664527019E+03  0.00000000000E+00 0.  1.
         21    1    1    2  503  505  0.24825957163E+02 -0.30947368548E+02 -0.21228827277E+02  0.44997009642E+02  0.00000000000E+00 0.  1.
         21    1    1    2  504  502 -0.94877521465E+02 -0.26444412002E+02 -0.49519251358E+02  0.11024158589E+03  0.00000000000E+00 0.  1.
         21    1    1    2  505  504  0.50469351414E+02 -0.23716057420E+02  0.15193704659E+02  0.57796673546E+02  0.00000000000E+00 0. -1.
         21    1    1    2  506  501  0.19582212887E+02  0.81107837970E+02 -0.48294120854E+02  0.96406776477E+02  0.00000000000E+00 0. -1.
<scales pt_clust_3="36.50121" pt_clust_4="86.03730" pt_clust_5="36.50121" pt_clust_6="83.43827"></scales>
<clustering>
<clus scale="   36.501">  3  5 -1 -1</clus>
<clus scale="   83.438">  2  6  1 -1</clus>
<clus scale="   86.037">  2  4  1 -1</clus>
<clus scale="   96.307">  1  3  2 -1</clus>
</clustering>
</event>
<event>
 6    0  0.3042851E+002  0.1409761E+03  0.7546771E-02  0.1212022E+00
         21   -1    0    0  504  501  0.00000000000E+00  0.00000000000E+00  0.26948661453E+03  0.26948661453E+03  0.00000000000E+00 0. -1.
         21   -1    0    0  505  502 -0.00000000000E+00 -0.00000000000E+00 -0.44865917294E+03  0.44865917294E+03  0.00000000000E+00 0.  1.
         21    1    1    2  503  501  0.69337232820E+01 -0.30800683972E+02  0.40049793911E+02  0.50997496449E+02  0.00000000000E+00 0.  1.
         21    1    1    2  504  506 -0.12636935229E+03 -0.49621654616E+02  0.18385881139E+03  0.22855105410E+03  0.00000000000E+00 0. -1.
         21    1    1    2  505  503  0.40067319355E+02 -0.10836413325E+02 -0.47860777056E+02  0.63351968513E+02  0.00000000000E+00 0. -1.
         21    1    1    2  506  502  0.79368309651E+02  0.91258751914E+02 -0.35522038664E+03  0.37524526841E+03  0.00000000000E+00 0.  1.
<scales pt_clust_3="31.57148" pt_clust_4="14000.00000" pt_clust_5="42.02752" pt_clust_6="140.97612"></scales>
<clustering>
<clus scale="   31.571">  1  3  2 -1</clus>
<clus scale="   42.028">  2  5  1 -1</clus>
<clus scale="  140.976">  2  6  1 -1</clus>
<clus scale="   31.571">  1  3  2 -1</clus>
</clustering>
</event>
<event>
 6    0  0.3042851E+002  0.4250549E+03  0.7546771E-02  0.1035434E+00
         21   -1    0    0  502  501  0.00000000000E+00  0.00000000000E+00  0.21617903715E+04  0.21617903715E+04  0.00000000000E+00 0.  1.
         21   -1    0    0  506  502 -0.00000000000E+00 -0.00000000000E+00 -0.26431732393E+03  0.26431732393E+03  0.00000000000E+00 0.  1.
         21    1    1    2  503  504 -0.81210705304E+02 -0.32811712817E+03  0.14728306375E+04  0.15111208142E+04  0.00000000000E+00 0.  1.
         21    1    1    2  504  501  0.20745030641E+02 -0.68866499336E+02  0.48087903146E+03  0.48622792384E+03  0.00000000000E+00 0.  1.
         21    1    1    2  505  503  0.94946949033E+01  0.70043033634E+02  0.43706264855E+02  0.83104833672E+02  0.00000000000E+00 0.  1.
         21    1    1    2  506  505  0.50970979760E+02  0.32694059387E+03 -0.99942886244E+02  0.34565412367E+03  0.00000000000E+00 0.  1.
<scales pt_clust_3="415.23549" pt_clust_4="48.74842" pt_clust_5="64.40767" pt_clust_6="64.40767"></scales>
<clustering>
<clus scale="   48.748">  3  4 -1 -1</clus>
<clus scale="   64.408">  5  6 -1 -1</clus>
<clus scale="  415.235">  1  3  2 -1</clus>
<clus scale="  415.235">  1  3  2 -1</clus>
</clustering>
</event>
<event>
 6    0  0.3042851E+002  0.9954923E+02  0.7546771E-02  0.1281247E+00
         21   -1    0    0  504  501  0.00000000000E+00  0.00000000000E+00  0.16190113765E+03  0.16190113765E+03  0.00000000000E+00 0.  1.
         21   -1    0    0  503  502 -0.00000000000E+00 -0.00000000000E+00 -0.23887046497E+03  0.23887046497E+03  0.00000000000E+00 0.  1.
         21    1    1    2  503  505  0.12225756735E+02  0.30474299841E+02 -0.90426908434E+02  0.96203834890E+02  0.00000000000E+00 0.  1.
         21    1    1    2  504  502 -0.54906107679E+02 -0.85214579893E+02  0.69369886571E+02  0.12283479332E+03  0.00000000000E+00 0.  1.
         21    1    1    2  505  506  0.79784598122E+02  0.30034520249E+02 -0.91229001101E+02  0.12486146382E+03  0.00000000000E+00 0.  1.
         21    1    1    2  506  501 -0.37104247178E+02  0.24705759803E+02  0.35316695641E+02  0.56871510593E+02  0.00000000000E+00 0.  1.
<scales pt_clust_3="32.83523" pt_clust_4="14000.00000" pt_clust_5="99.54923" pt_clust_6="45.13677"></scales>
<clustering>
<clus scale="   32.835">  2  3  1 -1</clus>
<clus scale="   45.137">  1  6  2 -1</clus>
<clus scale="   99.549">  2  5  1 -1</clus>
<clus scale="   45.137">  1  3  2 -1</clus>
</clustering>
</event>
<event>
 6    0  0.3042851E+002  0.1354638E+03  0.7546771E-02  0.1219566E+00
         21   -1    0    0  504  501  0.00000000000E+00  0.00000000000E+00  0.12582867064E+04  0.12582867064E+04  0.00000000000E+00 0.  1.
         21   -1    0    0  505  502 -0.00000000000E+00 -0.00000000000E+00 -0.53149354595E+03  0.53149354595E+03  0.00000000000E+00 0.  1.
         21    1    1    2  503  502  0.10381953080E+03 -0.30988165502E+02 -0.43790875523E+02  0.11686060994E+03  0.00000000000E+00 0.  1.
         21    1    1    2  504  503 -0.14527734268E+03 -0.76560260094E+01  0.57708091576E+03  0.59513570248E+03  0.00000000000E+00 0.  1.
         21    1    1    2  505  506 -0.85176455035E+02  0.16010662193E+02 -0.43127634120E+03  0.43989845678E+03  0.00000000000E+00 0.  1.
         21    1    1    2  506  501  0.12663426691E+03  0.22633529318E+02  0.62477946139E+03  0.63788548312E+03  0.00000000000E+00 0.  1.
<scales pt_clust_3="36.93210" pt_clust_4="135.46380" pt_clust_5="86.66816" pt_clust_6="14000.00000"></scales>
<clustering>
<clus scale="   86.668">  2  5  1 -1</clus>
<clus scale="   36.932">  2  3  1 -1</clus>
<clus scale="  135.464">  2  4  1 -1</clus>
<clus scale="  135.464">  1  3  2 -1</clus>
</clustering>
</event>
<event>
 6    0  0.3042851E+002  0.2369720E+03  0.7546771E-02  0.1121827E+00
         21   -1    0    0  503  501  0.00000000000E+00  0.00000000000E+00  0.25777418151E+03  0.25777418151E+03  0.00000000000E+00 0. -1.
         21   -1    0    0  501  502 -0.00000000000E+00 -0.00000000000E+00 -0.91846438252E+03  0.91846438252E+03  0.00000000000E+00 0. -1.
         21    1    1    2  503  504  0.68983968191E+02  0.96580877910E+02  0.92219245920E+02  0.15030317084E+03  0.00000000000E+00 0. -1.
         21    1    1    2  504  506  0.10108924536E+03  0.44104176892E+02  0.94980882682E+02  0.14555267782E+03  0.00000000000E+00 0. -1.
         21    1    1    2  505  502 -0.80009679968E+02 -0.12048022843E+03 -0.50939264307E+03  0.52952610809E+03  0.00000000000E+00 0. -1.
         21    1    1    2  506  505 -0.90063533577E+02 -0.20204826372E+02 -0.33849768653E+03  0.35085660729E+03  0.00000000000E+00 0. -1.
<scales pt_clust_3="229.09997" pt_clust_4="59.18578" pt_clust_5="68.90081" pt_clust_6="68.90081"></scales>
<clustering>
<clus scale="   59.186">  3  4 -1 -1</clus>
<clus scale="   68.901">  5  6 -1 -1</clus>
<clus scale="  229.100">  1  3  2 -1</clus>
<clus scale="  229.100">  1  3  2 -1</clus>
</clustering>
</event>
<event>
 6    0  0.3042851E+002  0.1396933E+03  0.7546771E-02  0.1213742E+00
         21   -1    0    0  504  501  0.00000000000E+00  0.00000000000E+00  0.11790218496E+03  0.11790218496E+03  0.00000000000E+00 0. -1.
         21   -1    0    0  503  502 -0.00000000000E+00 -0.00000000000E+00 -0.28479985045E+03  0.28479985045E+03  0.00000000000E+00 0. -1.
         21    1    1    2  503  506 -0.39851245460E+02  0.53201537211E+02 -0.80434213652E+02  0.10434648078E+03  0.00000000000E+00 0. -1.
         21    1    1    2  504  505  0.73697541115E+01 -0.93995579527E+02  0.49568348454E+02  0.10651996721E+03  0.00000000000E+00 0. -1.
         21    1    1    2  505  502  0.26365507672E+02 -0.29728906398E+02 -0.14380119374E+01  0.39761988743E+02  0.00000000000E+00 0. -1.
         21    1    1    2  506  501  0.61159836762E+01  0.70522948714E+02 -0.13459378836E+03  0.15207359868E+03  0.00000000000E+00 0. -1.
<scales pt_clust_3="53.67802" pt_clust_4="138.13718" pt_clust_5="33.33120" pt_clust_6="53.67802"></scales>
<clustering>
<clus scale="   33.331">  4  5 -1 -1</clus>
<clus scale="   53.678">  3  6 -1 -1</clus>
<clus scale="  138.137">  1  4  2 -1</clus>
<clus scale="  138.137">  1  3  2 -1</clus>
</clustering>
</event>
<event>
 6    0  0.3042851E+002  0.1916726E+03  0.7546771E-02  0.1156961E+00
         21   -1    0    0  505  501  0.00000000000E+00  0.00000000000E+00  0.16724888956E+03  0.16724888956E+03  0.00000000000E+00 0.  1.
         21   -1    0    0  504  502 -0.00000000000E+00 -0.00000000000E+00 -0.51685024378E+03  0.51685024378E+03  0.00000000000E+00 0. -1.
         21    1    1    2  503  506  0.41247093621E+02 -0.10715419944E+03  0.24108599352E+02  0.11732250318E+03  0.00000000000E+00 0.  1.
         21    1    1    2  504  501 -0.42344889129E+02  0.22781663851E+02 -0.14599120695E+03  0.15370597370E+03  0.00000000000E+00 0.  1.
         21    1    1    2  505  503  0.24224518202E+01 -0.79472264579E+02  0.47611585617E+02  0.92674549878E+02  0.00000000000E+00 0.  1.
         21    1    1    2  506  502 -0.13246563125E+01  0.16384480017E+03 -0.27533033224E+03  0.32039610658E+03  0.00000000000E+00 0. -1.
<scales pt_clust_3="39.19521" pt_clust_4="48.08424" pt_clust_5="39.19521" pt_clust_6="185.79526"></scales>
<clustering>
<clus scale="   39.195">  3  5 -1 -1</clus>
<clus scale="   48.084">  2  4  1 -1</clus>
<clus scale="  185.795">  2  6  1 -1</clus>
<clus scale="  191.673">  1  3  2 -1</clus>
</clustering>
</event>
<event>
 6    0  0.3042851E+002  0.1135822E+03  0.7546771E-02  0.1254076E+00
         21   -1    0    0  505  501  0.00000000000E+00  0.00000000000E+00  0.17723229029E+04  0.17723229029E+04  0.00000000000E+00 0.  1.
         21   -1    0    0  504  502 -0.00000000000E+00 -0.00000000000E+00 -0.49467199355E+02  0.49467199355E+02  0.00000000000E+00 0.  1.
         21    1    1    2  503  501  0.29570524506E+02  0.11053053282E+02  0.58607149856E+03  0.58692110826E+03  0.00000000000E+00 0.  1.
         21    1    1    2  504  503  0.23272727336E+02  0.10467387035E+03  0.27278302319E+02  0.11064512980E+03  0.00000000000E+00 0.  1.
         21    1    1    2  505  506 -0.82263840114E+02 -0.10919371335E+03  0.10328124669E+04  0.10418215769E+04  0.00000000000E+00 0.  1.
         21    1    1    2  506  502  0.29420588271E+02 -0.65332102883E+01  0.76693435784E+02  0.82402287245E+02  0.00000000000E+00 0. -1.
<scales pt_clust_3="31.79941" pt_clust_4="113.58223" pt_clust_5="14000.00000" pt_clust_6="30.13725"></scales>
<clustering>
<clus scale="   30.137">  2  6  1 -1</clus>
<clus scale="   31.799">  1  3  2 -1</clus>
<clus scale="  113.582">  2  4  1 -1</clus>
<clus scale="   31.799">  1  3  2 -1</clus>
</clustering>
</event>
<event>
 6    0  0.3042851E+002  0.1015563E+03  0.7546771E-02  0.1277057E+00
         21   -1    0    0  504  501  0.00000000000E+00  0.00000000000E+00  0.17755691319E+03  0.17755691319E+03  0.00000000000E+00 0. -1.
         21   -1    0    0  506  502 -0.00000000000E+00 -0.00000000000E+00 -0.16418712577E+04  0.16418712577E+04  0.00000000000E+00 0. -1.
         21    1    1    2  503  501  0.32508186205E+02  0.83585486566E+02  0.48992620567E+02  0.10219389710E+03  0.00000000000E+00 0. -1.
         21    1    1    2  504  505 -0.71226971343E+02 -0.96832574206E+02  0.60484770154E+02  0.13456684694E+03  0.00000000000E+00 0. -1.
         21    1    1    2  505  502 -0.25002437097E+02 -0.23433501526E+02 -0.79535269405E+02  0.86603175079E+02  0.00000000000E+00 0. -1.
         21    1    1    2  506  503  0.63721222235E+02  0.36680589166E+02 -0.14942564658E+04  0.14960642518E+04  0.00000000000E+00 0. -1.
<scales pt_clust_3="101.55633" pt_clust_4="14000.00000" pt_clust_5="34.26734" pt_clust_6="42.20168"></scales>
<clustering>
<clus scale="   34.267">  2  5  1 -1</clus>
<clus scale="   42.202">  2  6  1 -1</clus>
<clus scale="  101.556">  1  3  2 -1</clus>
<clus scale="  101.556">  1  3  2 -1</clus>
</clustering>
</event>
<event>
 6    0  0.3042851E+002  0.1264915E+03  0.7546771E-02  0.1232757E+00
         21   -1    0    0  506  501  0.00000000000E+00  0.00000000000E+00  0.63227875061E+03  0.63227875061E+03  0.00000000000E+00 0. -1.
         21   -1    0    0  505  502 -0.00000000000E+00 -0.00000000000E+00 -0.20962817624E+03  0.20962817624E+03  0.00000000000E+00 0. -1.
         21    1    1    2  503  504  0.24177738032E+02  0.49611605628E+02 -0.66266731393E+02  0.86238936211E+02  0.00000000000E+00 0. -1.
         21    1    1    2  504  502 -0.97760987305E+01  0.69641335745E+02 -0.97010052597E+02  0.11981835442E+03  0.00000000000E+00 0. -1.
         21    1    1    2  505  501  0.47877569888E+02 -0.14738601096E+03  0.51305002099E+03  0.53594330107E+03  0.00000000000E+00 0. -1.
         21    1    1    2  506  503 -0.62279209190E+02  0.28133069591E+02  0.72877337369E+02  0.99906335154E+02  0.00000000000E+00 0.  1.
<scales pt_clust_3="32.80906" pt_clust_4="32.80906" pt_clust_5="120.94823" pt_clust_6="68.33864"></scales>
<clustering>
<clus scale="   32.809">  3  4 -1 -1</clus>
<clus scale="   68.339">  1  6  2 -1</clus>
<clus scale="  120.948">  1  5  2 -1</clus>
<clus scale="   68.339">  1  3  2 -1</clus>
</clustering>
</event>
<event>
 6    0  0.3042851E+002  0.3267936E+03  0.7546771E-02  0.1072564E+00
         21   -1    0    0  504  501  0.00000000000E+00  0.00000000000E+00  0.15840860744E+04  0.15840860744E+04  0.00000000000E+00 0. -1.
         21   -1    0    0  503  502 -0.00000000000E+00 -0.00000000000E+00 -0.21448147487E+03  0.21448147487E+03  0.00000000000E+00 0.  1.
         21    1    1    2  503  505  0.17388910822E+03 -0.12095091260E+03 -0.60577410119E+02  0.22030925499E+03  0.00000000000E+00 0.  1.
         21    1    1    2  504  502 -0.34980082954E+02 -0.27073968612E+02  0.78503217483E+02  0.90107497663E+02  0.00000000000E+00 0.  1.
         21    1    1    2  505  506  0.10459726109E+03 -0.38430768085E+02  0.10019009824E+02  0.11188338358E+03  0.00000000000E+00 0.  1.
         21    1    1    2  506  501 -0.24350628636E+03  0.18645564929E+03  0.13416597823E+04  0.13762674130E+04  0.00000000000E+00 0. -1.
<scales pt_clust_3="50.32145" pt_clust_4="44.23354" pt_clust_5="50.32145" pt_clust_6="319.30462"></scales>
<clustering>
<clus scale="   44.234">  1  4  2 -1</clus>
<clus scale="   50.321">  3  5 -1 -1</clus>
<clus scale="  319.305">  1  6  2 -1</clus>
<clus scale="   44.234">  1  3  2 -1</clus>
</clustering>
</event>
<event>
 6    0  0.3042851E+002  0.1381798E+03  0.7546771E-02  0.1215799E+00
         21   -1    0    0  502  501  0.00000000000E+00  0.00000000000E+00  0.48443769122E+03  0.48443769122E+03  0.00000000000E+00 0. -1.
         21   -1    0    0  505  502 -0.00000000000E+00 -0.00000000000E+00 -0.54989851532E+02  0.54989851532E+02  0.00000000000E+00 0.  1.
         21    1    1    2  503  501 -0.64027478001E+02  0.89387081098E+01  0.18480476242E+03  0.19578615543E+03  0.00000000000E+00 0. -1.
         21    1    1    2  504  506  0.12058220662E+03  0.12432928671E+02  0.12314523132E+03  0.17279871026E+03  0.00000000000E+00 0.  1.
         21    1    1    2  505  504  0.18831099868E+02 -0.28032314484E+02  0.84665987797E+01  0.34815287913E+02  0.00000000000E+00 0.  1.
         21    1    1    2  506  503 -0.75385828491E+02  0.66606777030E+01  0.11303124716E+03  0.13602738915E+03  0.00000000000E+00 0. -1.
<scales pt_clust_3="38.83969" pt_clust_4="131.82988" pt_clust_5="33.77012" pt_clust_6="38.83969"></scales>
<clustering>
<clus scale="   33.770">  2  5  1 -1</clus>
<clus scale="   38.840">  3  6 -1 -1</clus>
<clus scale="  131.830">  2  4  1 -1</clus>
<clus scale="  138.180">  1  3  2 -1</clus>
</clustering>
</event>
<event>
 6    0  0.3042851E+002  0.6014390E+02  0.7546771E-02  0.1397229E+00
         21   -1    0    0  505  501  0.00000000000E+00  0.00000000000E+00  0.42877264954E+03  0.42877264954E+03  0.00000000000E+00 0. -1.
         21   -1    0    0  506  502 -0.00000000000E+00 -0.00000000000E+00 -0.52702470274E+03  0.52702470274E+03  0.00000000000E+00 0.  1.
         21    1    1    2  503  504 -0.83948448536E+02  0.30883643409E+02 -0.30672400739E+03  0.31950079523E+03  0.00000000000E+00 0.  1.
         21    1    1    2  504  501 -0.43295380471E+02  0.10020810867E+02  0.40404949075E+02  0.60062188857E+02  0.00000000000E+00 0. -1.
         21    1    1    2  505  502  0.93091349510E+02 -0.39889174740E+02  0.36375246240E+03  0.37758839960E+03  0.00000000000E+00 0. -1.
         21    1    1    2  506  503  0.34152479496E+02 -0.10152795360E+01 -0.19568545727E+03  0.19864596859E+03  0.00000000000E+00 0.  1.
<scales pt_clust_3="14000.00000" pt_clust_4="43.44215" pt_clust_5="60.14390" pt_clust_6="34.16757"></scales>
<clustering>
<clus scale="   34.168">  2  6  1 -1</clus>
<clus scale="   43.442">  1  4  2 -1</clus>
<clus scale="   60.144">  1  5  2 -1</clus>
<clus scale="   43.442">  1  3  2 -1</clus>
</clustering>
</event>
<event>
 6    0  0.3042851E+002  0.1067390E+03  0.7546771E-02  0.1266731E+00
         21   -1    0    0  502  501  0.00000000000E+00  0.00000000000E+00  0.11993623379E+04  0.11993623379E+04  0.00000000000E+00 0. -1.
         21   -1    0    0  505  502 -0.00000000000E+00 -0.00000000000E+00 -0.70014442601E+02  0.70014442601E+02  0.00000000000E+00 0.  1.
         21    1    1    2  503  506  0.45142154562E+02  0.41493919891E+02  0.86133699306E+03  0.86351663280E+03  0.00000000000E+00 0. -1.
         21    1    1    2  504  503 -0.96357342131E+02 -0.27334498386E+02  0.16122455152E+00  0.10015956359E+03  0.00000000000E+00 0.  1.
         21    1    1    2  505  504  0.32261285504E+01 -0.35863572938E+02  0.35260197616E+01  0.36180610617E+02  0.00000000000E+00 0.  1.
         21    1    1    2  506  501  0.47989059019E+02  0.21704151433E+02  0.26432365796E+03  0.26951997353E+03  0.00000000000E+00 0. -1.
<scales pt_clust_3="106.73899" pt_clust_4="14000.00000" pt_clust_5="36.00838" pt_clust_6="52.12199"></scales>
<clustering>
<clus scale="   36.008">  2  5  1 -1</clus>
<clus scale="   52.122">  1  6  2 -1</clus>
<clus scale="  106.739">  1  3  2 -1</clus>
<clus scale="   52.122">  1  3  2 -1</clus>
</clustering>
</event>
<event>
 6    0  0.3042851E+002  0.9704432E+02  0.7546771E-02  0.1286637E+00
         21   -1    0    0  506  501  0.00000000000E+00  0.00000000000E+00  0.55260771430E+03  0.55260771430E+03  0.00000000000E+00 0. -1.
         21   -1    0    0  504  502 -0.00000000000E+00 -0.00000000000E+00 -0.13077449244E+03  0.13077449244E+03  0.00000000000E+00 0.  1.
         21    1    1    2  503  505 -0.59965667327E+02 -0.82567424411E+02 -0.75781801405E+02  0.12710681436E+03  0.00000000000E+00 0.  1.
         21    1    1    2  504  501  0.31117153511E+02  0.67810258524E+02  0.40353072636E+03  0.41037002269E+03  0.00000000000E+00 0. -1.
         21    1    1    2  505  502 -0.21623432358E+02  0.24421880683E+02 -0.62166997039E+01  0.33206150609E+02  0.00000000000E+00 0. -1.
         21    1    1    2  506  503  0.50471946175E+02 -0.96647147961E+01  0.10030099660E+03  0.11269921908E+03  0.00000000000E+00 0. -1.
<scales pt_clust_3="97.04432" pt_clust_4="14000.00000" pt_clust_5="32.61903" pt_clust_6="49.95956"></scales>
<clustering>
<clus scale="   32.619">  2  5  1 -1</clus>
<clus scale="   49.960">  1  6  2 -1</clus>
<clus scale="   97.044">  2  3  1 -1</clus>
<clus scale="   49.960">  1  3  2 -1</clus>
</clustering>
</event>
<event>
 6    0  0.3042851E+002  0.1730451E+03  0.7546771E-02  0.1174709E+00
         21   -1    0    0  506  501  0.00000000000E+00  0.00000000000E+00  0.93236709287E+03  0.93236709287E+03  0.00000000000E+00 0. -1.
         21   -1    0    0  504  502 -0.00000000000E+00 -0.00000000000E+00 -0.10457141701E+04  0.10457141701E+04  0.00000000000E+00 0.  1.
         21    1    1    2  503  501  0.47939227391E+02  0.59931055514E+02  0.46395393743E+03  0.47025860651E+03  0.00000000000E+00 0. -1.
         21    1    1    2  504  505 -0.17229290611E+03  0.72401652048E+02 -0.31675534766E+03  0.36777818721E+03  0.00000000000E+00 0.  1.
         21    1    1    2  505  503  0.12813063711E+03 -0.55694443962E+02  0.42646252110E+03  0.44876454088E+03  0.00000000000E+00 0. -1.
         21    1    1    2  506  502 -0.37769583952E+01 -0.76638263600E+02 -0.68700818808E+03  0.69127992836E+03  0.00000000000E+00 0.  1.
<scales pt_clust_3="76.19678" pt_clust_4="173.04511" pt_clust_5="14000.00000" pt_clust_6="76.73128"></scales>
<clustering>
<clus scale="   76.731">  2  6  1 -1</clus>
<clus scale="   76.197">  1  3  2 -1</clus>
<clus scale="  173.045">  2  4  1 -1</clus>
<clus scale="   76.197">  1  3  2 -1</clus>
</clustering>
</event>
<event>
 6    0  0.3042851E+002  0.4704161E+03  0.7546771E-02  0.1021803E+00
         21   -1    0    0  502  501  0.00000000000E+00  0.00000000000E+00  0.88845863950E+02  0.88845863950E+02  0.00000000000E+00 0. -1.
         21   -1    0    0  506  502 -0.00000000000E+00 -0.00000000000E+00 -0.24482758282E+04  0.24482758282E+04  0.00000000000E+00 0. -1.
         21    1    1    2  503  504  0.33149360065E+02  0.12870681726E+03 -0.36383536085E+03  0.38735060951E+03  0.00000000000E+00 0. -1.
         21    1    1    2  504  501  0.81349067378E+02  0.31184457663E+03 -0.67747927851E+03  0.75022855420E+03  0.00000000000E+00 0. -1.
         21    1    1    2  505  503  0.38615684187E+01 -0.15703501522E+03 -0.34495055121E+03  0.37903270373E+03  0.00000000000E+00 0. -1.
         21    1    1    2  506  505 -0.11835999586E+03 -0.28351637867E+03 -0.97316477367E+03  0.10205098247E+04  0.00000000000E+00 0. -1.
<scales pt_clust_3="32.45876" pt_clust_4="457.98491" pt_clust_5="84.89409" pt_clust_6="84.89409"></scales>
<clustering>
<clus scale="   32.459">  3  4 -1 -1</clus>
<clus scale="   84.894">  5  6 -1 -1</clus>
<clus scale="  457.985">  1  3  2 -1</clus>
<clus scale="  457.985">  1  3  2 -1</clus>
</clustering>
</event>
<event>
 6    0  0.3042851E+002  0.2004590E+03  0.7546771E-02  0.1149352E+00
         21   -1    0    0  503  501  0.00000000000E+00  0.00000000000E+00  0.11002111425E+04  0.11002111425E+04  0.00000000000E+00 0. -1.
         21   -1    0    0  504  502 -0.00000000000E+00 -0.00000000000E+00 -0.24988487625E+03  0.24988487625E+03  0.00000000000E+00 0.  1.
         21    1    1    2  503  505 -0.16627558552E+03 -0.96022276246E+02  0.64919548578E+03  0.67699529292E+03  0.00000000000E+00 0. -1.
         21    1    1    2  504  506  0.42699528016E+02  0.34932253930E+02 -0.14814471785E+03  0.15808342571E+03  0.00000000000E+00 0.  1.
         21    1    1    2  505  502 -0.75534748516E+02 -0.30808132064E+02 -0.21395288609E+02  0.84335031922E+02  0.00000000000E+00 0. -1.
         21    1    1    2  506  501  0.19911080602E+03  0.91898154380E+02  0.37067078697E+03  0.43068226823E+03  0.00000000000E+00 0. -1.
<scales pt_clust_3="200.45896" pt_clust_4="55.16803" pt_clust_5="53.50871" pt_clust_6="14000.00000"></scales>
<clustering>
<clus scale="   55.168">  2  4  1 -1</clus>
<clus scale="   53.509">  2  5  1 -1</clus>
<clus scale="  200.459">  1  3  2 -1</clus>
<clus scale="  200.459">  1  3  2 -1</clus>
</clustering>
</event>
<event>
 6    0  0.3042851E+002  0.9959867E+02  0.7546771E-02  0.1281142E+00
         21   -1    0    0  503  501  0.00000000000E+00  0.00000000000E+00  0.68817511738E+02  0.68817511738E+02  0.00000000000E+00 0. -1.
         21   -1    0    0  504  502 -0.00000000000E+00 -0.00000000000E+00 -0.78755972528E+03  0.78755972528E+03  0.00000000000E+00 0.  1.
         21    1    1    2  503  506 -0.29667898196E+02  0.34165295039E+02 -0.50259014425E+02  0.67627066323E+02  0.00000000000E+00 0.  1.
         21    1    1    2  504  501  0.17759934404E+02 -0.78756656682E+02 -0.43608980512E+03  0.44350010639E+03  0.00000000000E+00 0.  1.
         21    1    1    2  505  502  0.74847091618E+02  0.82504237065E+01 -0.25755761958E+03  0.26833949396E+03  0.00000000000E+00 0.  1.
         21    1    1    2  506  505 -0.62939127826E+02  0.36340937937E+02  0.25164225580E+02  0.76910570344E+02  0.00000000000E+00 0. -1.
<scales pt_clust_3="45.24877" pt_clust_4="14000.00000" pt_clust_5="73.06852" pt_clust_6="99.59867"></scales>
<clustering>
<clus scale="   45.249">  1  3  2 -1</clus>
<clus scale="   73.069">  2  5  1 -1</clus>
<clus scale="   99.599">  1  6  2 -1</clus>
<clus scale="   45.249">  1  3  2 -1</clus>
</clustering>
</event>
<event>
 6    0  0.3042851E+002  0.1606568E+03  0.7546771E-02  0.1187957E+00
         21   -1    0    0  503  501  0.00000000000E+00  0.00000000000E+00  0.28080263567E+03  0.28080263567E+03  0.00000000000E+00 0. -1.
         21   -1    0    0  505  502 -0.00000000000E+00 -0.00000000000E+00 -0.10066806382E+03  0.10066806382E+03  0.00000000000E+00 0. -1.
         21    1    1    2  503  506 -0.61354664324E+02 -0.31476988621E+02  0.33346524899E+01  0.69038507763E+02  0.00000000000E+00 0. -1.
         21    1    1    2  504  501  0.93183987963E+02 -0.28825329960E+02  0.79927934945E+02  0.12610563050E+03  0.00000000000E+00 0. -1.
         21    1    1    2  505  504  0.48121043774E+02  0.16378438911E+02  0.78112991909E+02  0.93196178141E+02  0.00000000000E+00 0.  1.
         21    1    1    2  506  502 -0.79950367413E+02  0.43923879670E+02  0.18758992507E+02  0.93130383091E+02  0.00000000000E+00 0. -1.
<scales pt_clust_3="65.57608" pt_clust_4="152.04062" pt_clust_5="39.50248" pt_clust_6="65.57608"></scales>
<clustering>
<clus scale="   39.502">  4  5 -1 -1</clus>
<clus scale="   65.576">  3  6 -1 -1</clus>
<clus scale="  152.041">  1  4  2 -1</clus>
<clus scale="  152.041">  1  3  2 -1</clus>
</clustering>
</event>
<event>
 6    0  0.3042851E+002  0.1062223E+03  0.7546771E-02  0.1267730E+00
         21   -1    0    0  504  501  0.00000000000E+00  0.00000000000E+00  0.28108154451E+03  0.28108154451E+03  0.00000000000E+00 0. -1.
         21   -1    0    0  506  502 -0.00000000000E+00 -0.00000000000E+00 -0.11491745122E+03  0.11491745122E+03  0.00000000000E+00 0. -1.
         21    1    1    2  503  502 -0.28441269886E+02 -0.16802340308E+02 -0.21565648132E+02  0.39449989251E+02  0.00000000000E+00 0. -1.
         21    1    1    2  504  503 -0.48423716005E+01 -0.39340600433E+02  0.26017716477E+02  0.47413637023E+02  0.00000000000E+00 0. -1.
         21    1    1    2  505  501  0.11019231727E+03 -0.53359357162E+01  0.17792167422E+03  0.20934885037E+03  0.00000000000E+00 0. -1.
         21    1    1    2  506  505 -0.76908675788E+02  0.61478876456E+02 -0.16209649269E+02  0.99786519085E+02  0.00000000000E+00 0. -1.
<scales pt_clust_3="33.03369" pt_clust_4="42.32164" pt_clust_5="14000.00000" pt_clust_6="106.22226"></scales>
<clustering>
<clus scale="   33.034">  2  3  1 -1</clus>
<clus scale="   42.322">  1  4  2 -1</clus>
<clus scale="  106.222">  2  6  1 -1</clus>
<clus scale="   42.322">  1  3  2 -1</clus>
</clustering>
</event>
<event>
 6    0  0.3042851E+002  0.1009250E+03  0.7546771E-02  0.1278363E+00
         21   -1    0    0  504  501  0.00000000000E+00  0.00000000000E+00  0.50769854893E+03  0.50769854893E+03  0.00000000000E+00 0. -1.
         21   -1    0    0  506  502 -0.00000000000E+00 -0.00000000000E+00 -0.29065731712E+03  0.29065731712E+03  0.00000000000E+00 0. -1.
         21    1    1    2  503  502 -0.95528596458E+02 -0.78927202885E+02 -0.13596757292E+03  0.18396303156E+03  0.00000000000E+00 0. -1.
         21    1    1    2  504  503 -0.25356492557E+02  0.43497994052E+02  0.33603785631E+03  0.33978885808E+03  0.00000000000E+00 0. -1.
         21    1    1    2  505  501  0.24635310521E+02  0.41161400302E+02  0.12256073524E+03  0.13161418321E+03  0.00000000000E+00 0. -1.
         21    1    1    2  506  505  0.96249778495E+02 -0.57321914684E+01 -0.10558978682E+03  0.14298979320E+03  0.00000000000E+00 0. -1.
<scales pt_clust_3="100.92500" pt_clust_4="80.11765" pt_clust_5="47.97040" pt_clust_6="14000.00000"></scales>
<clustering>
<clus scale="   47.970">  1  5  2 -1</clus>
<clus scale="   80.118">  1  4  2 -1</clus>
<clus scale="  100.925">  1  3  2 -1</clus>
<clus scale="   47.970">  1  3  2 -1</clus>
</clustering>
</event>
<event>
 6    0  0.3042851E+002  0.1220625E+03  0.7546771E-02  0.1239733E+00
         21   -1    0    0  502  501  0.00000000000E+00  0.00000000000E+00  0.46833194089E+02  0.46833194089E+02  0.00000000000E+00 0.  1.
         21   -1    0    0  503  502 -0.00000000000E+00 -0.00000000000E+00 -0.57020371234E+03  0.57020371234E+03  0.00000000000E+00 0.  1.
         21    1    1    2  503  506 -0.41993378838E+01 -0.54627871896E+02 -0.22292772300E+03  0.22956177493E+03  0.00000000000E+00 0.  1.
         21    1    1    2  504  505 -0.10106004927E+02  0.43893679580E+02 -0.67362676906E+02  0.81034046441E+02  0.00000000000E+00 0.  1.
         21    1    1    2  505  501 -0.49391330704E+02  0.69297542513E+02 -0.38325393961E+02  0.93329999300E+02  0.00000000000E+00 0.  1.
         21    1    1    2  506  504  0.63696673515E+02 -0.58563350197E+02 -0.19475472438E+03  0.21311108576E+03  0.00000000000E+00 0.  1.
<scales pt_clust_3="54.78904" pt_clust_4="39.04776" pt_clust_5="39.04776" pt_clust_6="109.62928"></scales>
<clustering>
<clus scale="   39.048">  4  5 -1 -1</clus>
<clus scale="   54.789">  2  3  1 -1</clus>
<clus scale="  109.629">  2  6  1 -1</clus>
<clus scale="  122.062">  1  3  2 -1</clus>
</clustering>
</event>
<event>
 6    0  0.3042851E+002  0.1276806E+03  0.7546771E-02  0.1230938E+00
         21   -1    0    0  506  501  0.00000000000E+00  0.00000000000E+00  0.41506081713E+03  0.41506081713E+03  0.00000000000E+00 0. -1.
         21   -1    0    0  503  502 -0.00000000000E+00 -0.00000000000E+00 -0.46013397451E+03  0.46013397451E+03  0.00000000000E+00 0. -1.
         21    1    1    2  503  504 -0.78496574629E+02  0.95098022115E+02 -0.32917245655E+03  0.35151081376E+03  0.00000000000E+00 0. -1.
         21    1    1    2  504  501 -0.22710165445E+02  0.72483479694E+02  0.69793880039E+02  0.10315421530E+03  0.00000000000E+00 0. -1.
         21    1    1    2  505  502  0.16632261570E+03 -0.71771406735E+02  0.48951716502E+01  0.18121343776E+03  0.00000000000E+00 0. -1.
         21    1    1    2  506  505 -0.65115875630E+02 -0.95810095073E+02  0.20941024748E+03  0.23931632482E+03  0.00000000000E+00 0. -1.
<scales pt_clust_3="14000.00000" pt_clust_4="75.95793" pt_clust_5="127.68060" pt_clust_6="92.98021"></scales>
<clustering>
<clus scale="   75.958">  1  4  2 -1</clus>
<clus scale="   92.980">  1  6  2 -1</clus>
<clus scale="  127.681">  1  5  2 -1</clus>
<clus scale="   75.958">  1  3  2 -1</clus>
</clustering>
</event>
<event>
 6    0  0.3042851E+002  0.1739166E+03  0.7546771E-02  0.1173824E+00
         21   -1    0    0  504  501  0.00000000000E+00  0.00000000000E+00  0.32889448632E+03  0.32889448632E+03  0.00000000000E+00 0.  1.
         21   -1    0    0  503  502 -0.00000000000E+00 -0.00000000000E+00 -0.64181616882E+03  0.64181616882E+03  0.00000000000E+00 0.  1.
         21    1    1    2  503  506 -0.12077469366E+03 -0.45779838845E+02  0.13594350234E+03  0.18751788209E+03  0.00000000000E+00 0.  1.
         21    1    1    2  504  505  0.92201307295E+02  0.47361981318E+02 -0.68367298021E+02  0.12417055118E+03  0.00000000000E+00 0.  1.
         21    1    1    2  505  502  0.74216902159E+02  0.23616984473E+02 -0.51182881836E+03  0.51772062912E+03  0.00000000000E+00 0.  1.
         21    1    1    2  506  501 -0.45643515794E+02 -0.25199126946E+02  0.13133093154E+03  0.14130159274E+03  0.00000000000E+00 0.  1.
<scales pt_clust_3="39.94911" pt_clust_4="162.15242" pt_clust_5="77.88396" pt_clust_6="39.94911"></scales>
<clustering>
<clus scale="   39.949">  3  6 -1 -1</clus>
<clus scale="   77.884">  2  5  1 -1</clus>
<clus scale="  162.152">  2  4  1 -1</clus>
<clus scale="  173.917">  1  3  2 -1</clus>
</clustering>
</event>
<event>
 6    0  0.3042851E+002  0.2935582E+03  0.7546771E-02  0.1088506E+00
         21   -1    0    0  505  501  0.00000000000E+00  0.00000000000E+00  0.85144048799E+03  0.85144048799E+03  0.00000000000E+00 0.  1.
         21   -1    0    0  504  502 -0.00000000000E+00 -0.00000000000E+00 -0.38032626326E+03  0.38032626326E+03  0.00000000000E+00 0.  1.
         21    1    1    2  503  501 -0.11671698761E+03  0.20167985820E+03 -0.27477929086E+03  0.36027944582E+03  0.00000000000E+00 0.  1.
         21    1    1    2  504  503 -0.35514863595E+02  0.36942180089E+02 -0.17973397620E+02  0.54305370157E+02  0.00000000000E+00 0.  1.
         21    1    1    2  505  506  0.69776170863E+02 -0.16656788640E+03  0.45929874634E+03  0.49352701364E+03  0.00000000000E+00 0.  1.
         21    1    1    2  506  502  0.82455680344E+02 -0.72054151894E+02  0.30456816686E+03  0.32365492163E+03  0.00000000000E+00 0.  1.
<scales pt_clust_3="36.51043" pt_clust_4="36.51043" pt_clust_5="290.33369" pt_clust_6="50.33608"></scales>
<clustering>
<clus scale="   36.510">  3  4 -1 -1</clus>
<clus scale="   50.336">  5  6 -1 -1</clus>
<clus scale="  290.334">  1  5  2 -1</clus>
<clus scale="  290.334">  1  3  2 -1</clus>
</clustering>
</event>
<event>
 6    0  0.3042851E+002  0.2353406E+03  0.7546771E-02  0.1122936E+00
         21   -1    0    0  503  501  0.00000000000E+00  0.00000000000E+00  0.80998061390E+03  0.80998061390E+03  0.00000000000E+00 0. -1.
         21   -1    0    0  504  502 -0.00000000000E+00 -0.00000000000E+00 -0.12593790990E+03  0.12593790990E+03  0.00000000000E+00 0.  1.
         21    1    1    2  503  506 -0.39694576055E+02  0.55163583856E+02  0.12949024450E+03  0.14624091005E+03  0.00000000000E+00 0. -1.
         21    1    1    2  504  505  0.89599028200E+02 -0.19731498370E+02  0.39385077464E+01  0.91830440082E+02  0.00000000000E+00 0.  1.
         21    1    1    2  505  501  0.95896929607E+02 -0.10414847367E+03  0.19617735700E+02  0.14292648890E+03  0.00000000000E+00 0.  1.
         21    1    1    2  506  502 -0.14580138175E+03  0.68716388185E+02  0.53099621605E+03  0.55492068477E+03  0.00000000000E+00 0. -1.
<scales pt_clust_3="48.72282" pt_clust_4="55.77818" pt_clust_5="233.57209" pt_clust_6="48.72282"></scales>
<clustering>
<clus scale="   48.723">  3  6 -1 -1</clus>
<clus scale="   55.778">  4  5 -1 -1</clus>
<clus scale="  233.572">  2  4  1 -1</clus>
<clus scale="  235.341">  1  3  2 -1</clus>
</clustering>
</event>
<event>
 6    0  0.3042851E+002  0.1926369E+03  0.7546771E-02  0.1156104E+00
         21   -1    0    0  506  501  0.00000000000E+00  0.00000000000E+00  0.13275593136E+03  0.13275593136E+03  0.00000000000E+00 0.  1.
         21   -1    0    0  504  502 -0.00000000000E+00 -0.00000000000E+00 -0.51894807131E+03  0.51894807131E+03  0.00000000000E+00 0. -1.
         21    1    1    2  503  502 -0.17235918273E+03 -0.26989276218E+02 -0.28434512782E+03  0.33359895176E+03  0.00000000000E+00 0. -1.
         21    1    1    2  504  505  0.85330802362E+02 -0.19381506636E+02 -0.34076440887E+02  0.93905231243E+02  0.00000000000E+00 0. -1.
         21    1    1    2  505  501  0.14725351661E+03  0.24489679776E+02 -0.53326022591E+02  0.15851500640E+03  0.00000000000E+00 0.  1.
         21    1    1    2  506  503 -0.60225136245E+02  0.21881103078E+02 -0.14444548658E+02  0.65684813264E+02  0.00000000000E+00 0.  1.
<scales pt_clust_3="187.49332" pt_clust_4="33.85462" pt_clust_5="33.85462" pt_clust_6="64.07690"></scales>
<clustering>
<clus scale="   33.855">  4  5 -1 -1</clus>
<clus scale="   64.077">  1  6  2 -1</clus>
<clus scale="  187.493">  2  3  1 -1</clus>
<clus scale="   64.077">  1  3  2 -1</clus>
</clustering>
</event>
<event>
 6    0  0.3042851E+002  0.1018867E+03  0.7546771E-02  0.1276378E+00
         21   -1    0    0  506  501  0.00000000000E+00  0.00000000000E+00  0.64482444597E+02  0.64482444597E+02  0.00000000000E+00 0.  1.
         21   -1    0    0  503  502 -0.00000000000E+00 -0.00000000000E+00 -0.16944103374E+04  0.16944103374E+04  0.00000000000E+00 0. -1.
         21    1    1    2  503  501  0.26426953985E+02 -0.31329830431E+02 -0.68771250288E+01  0.41560041150E+02  0.00000000000E+00 0.  1.
         21    1    1    2  504  502 -0.52995687906E+01 -0.56764497574E+02 -0.21089428673E+03  0.21846439937E+03  0.00000000000E+00 0. -1.
         21    1    1    2  505  504 -0.97135304142E+02  0.32925564036E+02 -0.14004749510E+04  0.14042255689E+04  0.00000000000E+00 0. -1.
         21    1    1    2  506  505  0.76007918948E+02  0.55168763969E+02 -0.11681530103E+02  0.94642772604E+02  0.00000000000E+00 0.  1.
<scales pt_clust_3="40.98710" pt_clust_4="59.36515" pt_clust_5="101.88670" pt_clust_6="14000.00000"></scales>
<clustering>
<clus scale="   40.987">  1  3  2 -1</clus>
<clus scale="   59.365">  2  4  1 -1</clus>
<clus scale="  101.887">  2  5  1 -1</clus>
<clus scale="   40.987">  1  3  2 -1</clus>
</clustering>
</event>
<event>
 6    0  0.3042851E+002  0.1019706E+03  0.7546771E-02  0.1276206E+00
         21   -1    0    0  505  501  0.00000000000E+00  0.00000000000E+00  0.13487689356E+04  0.13487689356E+04  0.00000000000E+00 0. -1.
         21   -1    0    0  506  502 -0.00000000000E+00 -0.00000000000E+00 -0.14413039389E+03  0.14413039389E+03  0.00000000000E+00 0. -1.
         21    1    1    2  503  501 -0.78944811594E+02  0.74132914547E+01  0.26980483735E+02  0.83756711196E+02  0.00000000000E+00 0.  1.
         21    1    1    2  504  502  0.34603357468E+02 -0.48041964252E+01  0.32054378521E+02  0.47412612602E+02  0.00000000000E+00 0.  1.
         21    1    1    2  505  504 -0.62376528982E+02  0.57912481589E+01  0.12261589632E+04  0.12277581899E+04  0.00000000000E+00 0. -1.
         21    1    1    2  506  503  0.10671798311E+03 -0.84003431884E+01 -0.80555283724E+02  0.13397181577E+03  0.00000000000E+00 0. -1.
<scales pt_clust_3="14000.00000" pt_clust_4="34.93526" pt_clust_5="62.44028" pt_clust_6="101.97058"></scales>
<clustering>
<clus scale="   34.935">  2  4  1 -1</clus>
<clus scale="   62.440">  1  5  2 -1</clus>
<clus scale="  101.971">  2  6  1 -1</clus>
<clus scale="   62.440">  1  3  2 -1</clus>
</clustering>
</event>
<event>
 6    0  0.3042851E+002  0.1466095E+03  0.7546771E-02  0.1204702E+00
         21   -1    0    0  503  501  0.00000000000E+00  0.00000000000E+00  0.29826534233E+03  0.29826534233E+03  0.00000000000E+00 0.  1.
         21   -1    0    0  505  502 -0.00000000000E+00 -0.00000000000E+00 -0.10151283867E+03  0.10151283867E+03  0.00000000000E+00 0. -1.
         21    1    1    2  503  504 -0.27074113013E+02  0.76264937517E+02  0.57206720166E+02  0.99105787531E+02  0.00000000000E+00 0.  1.
         21    1    1    2  504  502 -0.60807342495E+02  0.55234526604E+02  0.11387818177E+02  0.82934119838E+02  0.00000000000E+00 0. -1.
         21    1    1    2  505  506  0.79153686397E+02 -0.87582487328E+02  0.51143009270E+02  0.12865304331E+03  0.00000000000E+00 0.  1.
         21    1    1    2  506  501  0.87277691100E+01 -0.43916976792E+02  0.77014956052E+02  0.89085230313E+02  0.00000000000E+00 0.  1.
<scales pt_clust_3="54.56252" pt_clust_4="54.56252" pt_clust_5="134.44812" pt_clust_6="44.77583"></scales>
<clustering>
<clus scale="   44.776">  1  6  2 -1</clus>
<clus scale="   54.563">  3  4 -1 -1</clus>
<clus scale="  134.448">  2  5  1 -1</clus>
<clus scale="   44.776">  1  3  2 -1</clus>
</clustering>
</event>
<event>
 6    0  0.3042851E+002  0.1532654E+03  0.7546771E-02  0.1196517E+00
         21   -1    0    0  506  501  0.00000000000E+00  0.00000000000E+00  0.23528777783E+02  0.23528777783E+02  0.00000000000E+00 0. -1.
         21   -1    0    0  503  502 -0.00000000000E+00 -0.00000000000E+00 -0.16500046394E+04  0.16500046394E+04  0.00000000000E+00 0.  1.
         21    1    1    2  503  504 -0.11735692399E+03  0.24610364177E+02 -0.36619809235E+03  0.38533019667E+03  0.00000000000E+00 0. -1.
         21    1    1    2  504  501 -0.31385413592E+02  0.30364984609E+02 -0.49854566469E+02  0.66276347775E+02  0.00000000000E+00 0. -1.
         21    1    1    2  505  502  0.51024294326E+02  0.51103188156E+01 -0.30759703985E+03  0.31184216022E+03  0.00000000000E+00 0.  1.
         21    1    1    2  506  505  0.97718043251E+02 -0.60085667601E+02 -0.90282616293E+03  0.91008471248E+03  0.00000000000E+00 0.  1.
<scales pt_clust_3="143.72163" pt_clust_4="43.67009" pt_clust_5="35.59547" pt_clust_6="35.59547"></scales>
<clustering>
<clus scale="   35.595">  5  6 -1 -1</clus>
<clus scale="   43.670">  1  4  2 -1</clus>
<clus scale="  143.722">  1  3  2 -1</clus>
<clus scale="   43.670">  1  3  2 -1</clus>
</clustering>
</event>
<event>
 6    0  0.3042851E+002  0.9008066E+02  0.7546771E-02  0.1302656E+00
         21   -1    0    0  504  501  0.00000000000E+00  0.00000000000E+00  0.68125255977E+03  0.68125255977E+03  0.00000000000E+00 0.  1.
         21   -1    0    0  505  502 -0.00000000000E+00 -0.00000000000E+00 -0.92422237019E+02  0.92422237019E+02  0.00000000000E+00 0.  1.
         21    1    1    2  503  502 -0.20123781505E+02 -0.43685100407E+02 -0.33896523237E+02  0.58841557314E+02  0.00000000000E+00 0.  1.
         21    1    1    2  504  503  0.29262665261E+02 -0.56486935109E+02 -0.91314781593E+01  0.64268665068E+02  0.00000000000E+00 0.  1.
         21    1    1    2  505  506  0.37832935566E+02  0.92465438971E+02  0.32416043233E+03  0.33920668376E+03  0.00000000000E+00 0.  1.
         21    1    1    2  506  501 -0.46971819322E+02  0.77065965456E+01  0.30769789182E+03  0.31135789065E+03  0.00000000000E+00 0.  1.
<scales pt_clust_3="48.54632" pt_clust_4="90.08066" pt_clust_5="14000.00000" pt_clust_6="47.59983"></scales>
<clustering>
<clus scale="   47.600">  1  6  2 -1</clus>
<clus scale="   48.546">  2  3  1 -1</clus>
<clus scale="   90.081">  2  4  1 -1</clus>
<clus scale="   47.600">  1  3  2 -1</clus>
</clustering>
</event>
<event>
 6    0  0.3042851E+002  0.1505299E+03  0.7546771E-02  0.1199823E+00
         21   -1    0    0  503  501  0.00000000000E+00  0.00000000000E+00  0.17031649236E+03  0.17031649236E+03  0.00000000000E+00 0.  1.
         21   -1    0    0  505  502 -0.00000000000E+00 -0.00000000000E+00 -0.45584206926E+03  0.45584206926E+03  0.00000000000E+00 0.  1.
         21    1    1    2  503  502  0.48954757256E+02  0.16099271265E+02 -0.24402151102E+03  0.24940379434E+03  0.00000000000E+00 0.  1.
         21    1    1    2  504  506 -0.22016197892E+02 -0.28751571906E+02  0.18877992997E+02  0.40838027331E+02  0.00000000000E+00 0.  1.
         21    1    1    2  505  504 -0.69512101838E+02  0.11975403345E+03 -0.13916052165E+03  0.19631253555E+03  0.00000000000E+00 0.  1.
         21    1    1    2  506  501  0.42573542473E+02 -0.10710173281E+03  0.78778462773E+02  0.13960420440E+03  0.00000000000E+00 0.  1.
<scales pt_clust_3="51.53402" pt_clust_4="36.08351" pt_clust_5="136.07113" pt_clust_6="36.08351"></scales>
<clustering>
<clus scale="   36.084">  4  6 -1 -1</clus>
<clus scale="   51.534">  2  3  1 -1</clus>
<clus scale="  136.071">  2  5  1 -1</clus>
<clus scale="  150.530">  1  3  2 -1</clus>
</clustering>
</event>
<event>
 6    0  0.3042851E+002  0.1256578E+03  0.7546771E-02  0.1234045E+00
         21   -1    0    0  506  501  0.00000000000E+00  0.00000000000E+00  0.16922775495E+04  0.16922775495E+04  0.00000000000E+00 0. -1.
         21   -1    0    0  504  502 -0.00000000000E+00 -0.00000000000E+00 -0.13973892399E+03  0.13973892399E+03  0.00000000000E+00 0.  1.
         21    1    1    2  503  505 -0.13053680707E+01 -0.81955378868E+02  0.79761864960E+03  0.80181911819E+03  0.00000000000E+00 0. -1.
         21    1    1    2  504  503  0.13816131690E+02 -0.51261031286E+02  0.68037071676E+02  0.86299605709E+02  0.00000000000E+00 0. -1.
         21    1    1    2  505  501 -0.15644995390E+02 -0.30844451221E+02  0.76245627325E+03  0.76324027322E+03  0.00000000000E+00 0. -1.
         21    1    1    2  506  502  0.31342317704E+01  0.16406086138E+03 -0.75573369056E+02  0.18065747633E+03  0.00000000000E+00 0.  1.
<scales pt_clust_3="32.90482" pt_clust_4="53.09029" pt_clust_5="32.90482" pt_clust_6="114.99512"></scales>
<clustering>
<clus scale="   32.905">  3  5 -1 -1</clus>
<clus scale="   53.090">  2  4  1 -1</clus>
<clus scale="  114.995">  2  6  1 -1</clus>
<clus scale="  125.658">  1  3  2 -1</clus>
</clustering>
</event>
<event>
 6    0  0.3042851E+002  0.9364207E+02  0.7546771E-02  0.1294264E+00
         21   -1    0    0  506  501  0.00000000000E+00  0.00000000000E+00  0.45425579418E+03  0.45425579418E+03  0.00000000000E+00 0. -1.
         21   -1    0    0  503  502 -0.00000000000E+00 -0.00000000000E+00 -0.13771766460E+04  0.13771766460E+04  0.00000000000E+00 0.  1.
         21    1    1    2  503  504  0.33091351144E+02 -0.46691265888E+02 -0.13257617299E+04  0.13269963362E+04  0.00000000000E+00 0.  1.
         21    1    1    2  504  505  0.76409866978E+02  0.42596164197E+02  0.19850349593E+03  0.21692519188E+03  0.00000000000E+00 0. -1.
         21    1    1    2  505  501 -0.91778356917E+02 -0.40678398541E+02  0.21580368911E+03  0.23801098954E+03  0.00000000000E+00 0. -1.
         21    1    1    2  506  502 -0.17722861204E+02  0.44773500232E+02 -0.11466306879E+02  0.49499922483E+02  0.00000000000E+00 0.  1.
<scales pt_clust_3="57.16225" pt_clust_4="93.64207" pt_clust_5="14000.00000" pt_clust_6="48.15357"></scales>
<clustering>
<clus scale="   48.154">  1  6  2 -1</clus>
<clus scale="   57.162">  2  3  1 -1</clus>
<clus scale="   93.642">  2  4  1 -1</clus>
<clus scale="   48.154">  1  3  2 -1</clus>
</clustering>
</event>
<event>
 6    0  0.3042851E+002  0.1126946E+03  0.7546771E-02  0.1255660E+00
         21   -1    0    0  503  501  0.00000000000E+00  0.00000000000E+00  0.66384059996E+02  0.66384059996E+02  0.00000000000E+00 0.  1.
         21   -1    0    0  504  502 -0.00000000000E+00 -0.00000000000E+00 -0.77991670322E+03  0.77991670322E+03  0.00000000000E+00 0.  1.
         21    1    1    2  503  502 -0.81436434472E+02  0.57158991934E+02 -0.98075738450E+01  0.99976155773E+02  0.00000000000E+00 0.  1.
         21    1    1    2  504  505  0.29594053108E+02  0.58610528727E+01 -0.94993558938E+02  0.99669133436E+02  0.00000000000E+00 0.  1.
         21    1    1    2  505  506  0.45591400562E+02 -0.96077022405E+02 -0.60327068315E+03  0.61257235261E+03  0.00000000000E+00 0.  1.
         21    1    1    2  506  501  0.62509808017E+01  0.33056977598E+02 -0.54608272875E+01  0.34083121389E+02  0.00000000000E+00 0. -1.
<scales pt_clust_3="112.69464" pt_clust_4="30.16886" pt_clust_5="14000.00000" pt_clust_6="33.97858"></scales>
<clustering>
<clus scale="   30.169">  2  4  1 -1</clus>
<clus scale="   33.979">  1  6  2 -1</clus>
<clus scale="  112.695">  1  3  2 -1</clus>
<clus scale="   33.979">  1  3  2 -1</clus>
</clustering>
</event>
<event>
 6    0  0.3042851E+002  0.1261505E+03  0.7546771E-02  0.1233282E+00
         21   -1    0    0  504  501  0.00000000000E+00  0.00000000000E+00  0.29243139723E+03  0.29243139723E+03  0.00000000000E+00 0. -1.
         21   -1    0    0  503  502 -0.00000000000E+00 -0.00000000000E+00 -0.24120582520E+03  0.24120582520E+03  0.00000000000E+00 0. -1.
         21    1    1    2  503  506 -0.67536600092E+02  0.55179798608E+02  0.16640627885E+02  0.88785770385E+02  0.00000000000E+00 0. -1.
         21    1    1    2  504  505  0.25757849891E+02 -0.31726409198E+02  0.14270440555E+02  0.43285994793E+02  0.00000000000E+00 0. -1.
         21    1    1    2  505  502  0.12289222184E+03 -0.85670781946E+02 -0.14416416044E+03  0.20790691721E+03  0.00000000000E+00 0. -1.
         21    1    1    2  506  501 -0.81113471633E+02  0.62217392535E+02  0.16447866403E+03  0.19365854005E+03  0.00000000000E+00 0. -1.
<scales pt_clust_3="14000.00000" pt_clust_4="40.86602" pt_clust_5="126.15045" pt_clust_6="75.50761"></scales>
<clustering>
<clus scale="   40.866">  1  4  2 -1</clus>
<clus scale="   75.508">  1  6  2 -1</clus>
<clus scale="  126.150">  2  5  1 -1</clus>
<clus scale="   40.866">  1  3  2 -1</clus>
</clustering>
</event>
<event>
 6    0  0.3042851E+002  0.9043658E+02  0.7546771E-02  0.1301798E+00
         21   -1    0    0  503  501  0.00000000000E+00  0.00000000000E+00  0.77535782653E+03  0.77535782653E+03  0.00000000000E+00 0.  1.
         21   -1    0    0  504  502 -0.00000000000E+00 -0.00000000000E+00 -0.10912748719E+03  0.10912748719E+03  0.00000000000E+00 0.  1.
         21    1    1    2  503  505 -0.45344885808E+02 -0.50734620340E+02  0.18284331918E+03  0.19509443800E+03  0.00000000000E+00 0.  1.
         21    1    1    2  504  501  0.25809614516E+02  0.12932961640E+03  0.55784228784E+03  0.57321924600E+03  0.00000000000E+00 0.  1.
         21    1    1    2  505  506  0.14019898691E+02 -0.36416746671E+02 -0.12415817726E+02  0.40949841602E+02  0.00000000000E+00 0. -1.
         21    1    1    2  506  502  0.55153726010E+01 -0.42178249390E+02 -0.62039449957E+02  0.75221788117E+02  0.00000000000E+00 0.  1.
<scales pt_clust_3="68.04528" pt_clust_4="82.37302" pt_clust_5="35.75349" pt_clust_6="35.75349"></scales>
<clustering>
<clus scale="   35.753">  5  6 -1 -1</clus>
<clus scale="   68.045">  1  3  2 -1</clus>
<clus scale="   82.373">  1  4  2 -1</clus>
<clus scale="   68.045">  1  3  2 -1</clus>
</clustering>
</event>
<event>
 6    0  0.3042851E+002  0.1456275E+03  0.7546771E-02  0.1205951E+00
         21   -1    0    0  504  501  0.00000000000E+00  0.00000000000E+00  0.91125473196E+02  0.91125473196E+02  0.00000000000E+00 0.  1.
         21   -1    0    0  503  502 -0.00000000000E+00 -0.00000000000E+00 -0.13664446349E+04  0.13664446349E+04  0.00000000000E+00 0.  1.
         21    1    1    2  503  501  0.75108548480E+02 -0.99777341106E+02 -0.24682329112E+03  0.27661986351E+03  0.00000000000E+00 0.  1.
         21    1    1    2  504  506  0.26941570383E+02 -0.13967371997E+03 -0.45513717143E+02  0.14935225044E+03  0.00000000000E+00 0.  1.
         21    1    1    2  505  502 -0.11689433116E+03  0.66233174595E+02 -0.34161610450E+03  0.36708674851E+03  0.00000000000E+00 0.  1.
         21    1    1    2  506  505  0.14844212297E+02  0.17321788648E+03 -0.64136604890E+03  0.66451124559E+03  0.00000000000E+00 0.  1.
<scales pt_clust_3="124.88720" pt_clust_4="14000.00000" pt_clust_5="98.91357" pt_clust_6="145.62751"></scales>
<clustering>
<clus scale="  124.887">  2  3  1 -1</clus>
<clus scale="   98.914">  2  5  1 -1</clus>
<clus scale="  145.628">  2  6  1 -1</clus>
<clus scale="  145.628">  1  3  2 -1</clus>
</clustering>
</event>
<event>
 6    0  0.3042851E+002  0.1881854E+03  0.7546771E-02  0.1160108E+00
         21   -1    0    0  502  501  0.00000000000E+00  0.00000000000E+00  0.12611484093E+04  0.12611484093E+04  0.00000000000E+00 0. -1.
         21   -1    0    0  506  502 -0.00000000000E+00 -0.00000000000E+00 -0.18399528903E+03  0.18399528903E+03  0.00000000000E+00 0. -1.
         21    1    1    2  503  505 -0.54517703091E+02 -0.37980990127E+02 -0.19486204647E+02  0.69241950672E+02  0.00000000000E+00 0. -1.
         21    1    1    2  504  501  0.50781348829E+02  0.48520175897E+02  0.78154073806E+03  0.78469030713E+03  0.00000000000E+00 0. -1.
         21    1    1    2  505  504  0.77108111517E+02  0.62721967825E+02  0.42714166031E+03  0.43855410622E+03  0.00000000000E+00 0.  1.
         21    1    1    2  506  503 -0.73371757255E+02 -0.73261153595E+02 -0.11204307349E+03  0.15265733427E+03  0.00000000000E+00 0. -1.
<scales pt_clust_3="45.34612" pt_clust_4="68.72010" pt_clust_5="68.72010" pt_clust_6="178.71581"></scales>
<clustering>
<clus scale="   45.346">  3  6 -1 -1</clus>
<clus scale="   68.720">  4  5 -1 -1</clus>
<clus scale="  178.716">  2  3  1 -1</clus>
<clus scale="  188.185">  1  3  2 -1</clus>
</clustering>
</event>
<event>
 6    0  0.3042851E+002  0.6431697E+02  0.7546771E-02  0.1380559E+00
         21   -1    0    0  504  501  0.00000000000E+00  0.00000000000E+00  0.10731185480E+03  0.10731185480E+03  0.00000000000E+00 0. -1.
         21   -1    0    0  505  502 -0.00000000000E+00 -0.00000000000E+00 -0.81702534942E+03  0.81702534942E+03  0.00000000000E+00 0. -1.
         21    1    1    2  503  502 -0.94220787117E+02 -0.24680104189E+02  0.46593931261E+02  0.10797063813E+03  0.00000000000E+00 0. -1.
         21    1    1    2  504  503 -0.17233446203E+02  0.38922028142E+02 -0.38631833551E+02  0.57483341120E+02  0.00000000000E+00 0. -1.
         21    1    1    2  505  506  0.59024592078E+02 -0.24903050753E+02 -0.69942608823E+03  0.70235384052E+03  0.00000000000E+00 0. -1.
         21    1    1    2  506  501  0.52429641241E+02  0.10661126799E+02 -0.18249504105E+02  0.56529384442E+02  0.00000000000E+00 0.  1.
<scales pt_clust_3="14000.00000" pt_clust_4="42.56661" pt_clust_5="64.31697" pt_clust_6="52.35199"></scales>
<clustering>
<clus scale="   42.567">  1  4  2 -1</clus>
<clus scale="   52.352">  1  6  2 -1</clus>
<clus scale="   64.317">  2  5  1 -1</clus>
<clus scale="   42.567">  1  3  2 -1</clus>
</clustering>
</event>
<event>
 6    0  0.3042851E+002  0.1239029E+03  0.7546771E-02  0.1236794E+00
         21   -1    0    0  506  501  0.00000000000E+00  0.00000000000E+00  0.48207409660E+03  0.48207409660E+03  0.00000000000E+00 0.  1.
         21   -1    0    0  504  502 -0.00000000000E+00 -0.00000000000E+00 -0.74628132784E+02  0.74628132784E+02  0.00000000000E+00 0.  1.
         21    1    1    2  503  502  0.90916256558E+02 -0.47016762895E+02  0.15883018777E+03  0.18895335468E+03  0.00000000000E+00 0.  1.
         21    1    1    2  504  501 -0.14782123361E+03 -0.25175855459E+02  0.82910143448E+02  0.17134477725E+03  0.00000000000E+00 0.  1.
         21    1    1    2  505  503  0.60851683445E+02  0.41136789112E+02  0.10558273304E+03  0.12861911333E+03  0.00000000000E+00 0.  1.
         21    1    1    2  506  505 -0.39467063909E+01  0.31055829242E+02  0.60122899561E+02  0.67784984125E+02  0.00000000000E+00 0.  1.
<scales pt_clust_3="123.90289" pt_clust_4="14000.00000" pt_clust_5="77.80166" pt_clust_6="31.30561"></scales>
<clustering>
<clus scale="   31.306">  1  6  2 -1</clus>
<clus scale="   77.802">  1  5  2 -1</clus>
<clus scale="  123.903">  1  3  2 -1</clus>
<clus scale="   31.306">  1  3  2 -1</clus>
</clustering>
</event>
<event>
 6    0  0.3042851E+002  0.9208072E+02  0.7546771E-02  0.1297890E+00
         21   -1    0    0  504  501  0.00000000000E+00  0.00000000000E+00  0.91339915837E+03  0.91339915837E+03  0.00000000000E+00 0. -1.
         21   -1    0    0  503  502 -0.00000000000E+00 -0.00000000000E+00 -0.42876447062E+02  0.42876447062E+02  0.00000000000E+00 0.  1.
         21    1    1    2  503  506 -0.37992910741E+02  0.47545480321E+02  0.44658216745E+01  0.61024401093E+02  0.00000000000E+00 0.  1.
         21    1    1    2  504  505 -0.39613638834E+02 -0.21026191449E+02  0.15759636883E+03  0.16385346068E+03  0.00000000000E+00 0. -1.
         21    1    1    2  505  502 -0.15051362759E+02  0.35816404582E+02  0.48923151104E+02  0.62472658596E+02  0.00000000000E+00 0.  1.
         21    1    1    2  506  501  0.92657912334E+02 -0.62335693454E+02  0.65953736970E+03  0.66892508506E+03  0.00000000000E+00 0. -1.
<scales pt_clust_3="92.08072" pt_clust_4="44.67093" pt_clust_5="38.85046" pt_clust_6="14000.00000"></scales>
<clustering>
<clus scale="   38.850">  2  5  1 -1</clus>
<clus scale="   44.671">  1  4  2 -1</clus>
<clus scale="   92.081">  2  3  1 -1</clus>
<clus scale="   44.671">  1  3  2 -1</clus>
</clustering>
</event>
<event>
 6    0  0.3042851E+002  0.1519826E+03  0.7546771E-02  0.1198058E+00
         21   -1    0    0  503  501  0.00000000000E+00  0.00000000000E+00  0.12401196043E+04  0.12401196043E+04  0.00000000000E+00 0. -1.
         21   -1    0    0  504  502 -0.00000000000E+00 -0.00000000000E+00 -0.16752330761E+03  0.16752330761E+03  0.00000000000E+00 0. -1.
         21    1    1    2  503  506  0.68585213032E+02  0.64929737093E+02 -0.10401628916E+03  0.14049622990E+03  0.00000000000E+00 0. -1.
         21    1    1    2  504  505 -0.67170570687E+02 -0.89561139179E+02  0.10529931489E+04  0.10589275967E+04  0.00000000000E+00 0. -1.
         21    1    1    2  505  501 -0.15770599964E+01 -0.33635276662E+02  0.14292443414E+03  0.14683736864E+03  0.00000000000E+00 0. -1.
         21    1    1    2  506  502  0.16241765179E+00  0.58266678749E+02 -0.19304997212E+02  0.61381716735E+02  0.00000000000E+00 0. -1.
<scales pt_clust_3="139.11152" pt_clust_4="33.56955" pt_clust_5="33.56955" pt_clust_6="58.26691"></scales>
<clustering>
<clus scale="   33.570">  4  5 -1 -1</clus>
<clus scale="   58.267">  2  6  1 -1</clus>
<clus scale="  139.112">  2  3  1 -1</clus>
<clus scale="  151.983">  1  3  2 -1</clus>
</clustering>
</event>
<event>
 6    0  0.3042851E+002  0.7363261E+02  0.7546771E-02  0.1348158E+00
         21   -1    0    0  503  501  0.00000000000E+00  0.00000000000E+00  0.46820802753E+03  0.46820802753E+03  0.00000000000E+00 0.  1.
         21   -1    0    0  505  502 -0.00000000000E+00 -0.00000000000E+00 -0.49988881940E+02  0.49988881940E+02  0.00000000000E+00 0. -1.
         21    1    1    2  503  504 -0.32549756150E+02 -0.17043749906E+02  0.16340091164E+03  0.16748084655E+03  0.00000000000E+00 0. -1.
         21    1    1    2  504  506 -0.12640628085E+02  0.85967979562E+02  0.16887164294E+03  0.18991553590E+03  0.00000000000E+00 0.  1.
         21    1    1    2  505  501 -0.26223428237E+02 -0.47020355045E+02  0.62539880964E+02  0.82521625578E+02  0.00000000000E+00 0. -1.
         21    1    1    2  506  502  0.71413812473E+02 -0.21903874611E+02  0.23406710043E+02  0.78278901436E+02  0.00000000000E+00 0. -1.
<scales pt_clust_3="36.74202" pt_clust_4="73.63261" pt_clust_5="61.39204" pt_clust_6="14000.00000"></scales>
<clustering>
<clus scale="   36.742">  1  3  2 -1</clus>
<clus scale="   61.392">  2  5  1 -1</clus>
<clus scale="   73.633">  1  4  2 -1</clus>
<clus scale="   36.742">  1  3  2 -1</clus>
</clustering>
</event>
<event>
 6    0  0.3042851E+002  0.2829017E+03  0.7546771E-02  0.1094115E+00
         21   -1    0    0  503  501  0.00000000000E+00  0.00000000000E+00  0.39757303589E+02  0.39757303589E+02  0.00000000000E+00 0.  1.
         21   -1    0    0  506  502 -0.00000000000E+00 -0.00000000000E+00 -0.20319823461E+04  0.20319823461E+04  0.00000000000E+00 0.  1.
         21    1    1    2  503  504 -0.10025169339E+02 -0.15511275470E+03 -0.56162059102E+03  0.58273335149E+03  0.00000000000E+00 0.  1.
         21    1    1    2  504  502  0.30841119868E+02 -0.12140698152E+03 -0.58653722633E+03  0.59976390997E+03  0.00000000000E+00 0.  1.
         21    1    1    2  505  501  0.83152102256E+01  0.11105411677E+03 -0.31204045176E+03  0.33131767702E+03  0.00000000000E+00 0.  1.
         21    1    1    2  506  505 -0.29131160755E+02  0.16546561945E+03 -0.53202677337E+03  0.55792471117E+03  0.00000000000E+00 0.  1.
<scales pt_clust_3="50.27912" pt_clust_4="50.27912" pt_clust_5="30.52886" pt_clust_6="279.82592"></scales>
<clustering>
<clus scale="   30.529">  5  6 -1 -1</clus>
<clus scale="   50.279">  3  4 -1 -1</clus>
<clus scale="  279.826">  1  5  2 -1</clus>
<clus scale="  279.826">  1  3  2 -1</clus>
</clustering>
</event>
<event>
 6    0  0.3042851E+002  0.3569561E+03  0.7546771E-02  0.1059796E+00
         21   -1    0    0  505  501  0.00000000000E+00  0.00000000000E+00  0.70852163957E+03  0.70852163957E+03  0.00000000000E+00 0. -1.
         21   -1    0    0  504  502 -0.00000000000E+00 -0.00000000000E+00 -0.37946344373E+03  0.37946344373E+03  0.00000000000E+00 0. -1.
         21    1    1    2  503  506 -0.21324272115E+03  0.58593552321E+02  0.25405045722E+03  0.33681938381E+03  0.00000000000E+00 0. -1.
         21    1    1    2  504  501  0.37109027803E+03 -0.84746186253E+02 -0.48421618490E+02  0.38371156311E+03  0.00000000000E+00 0. -1.
         21    1    1    2  505  503 -0.66548374698E+02  0.10591541697E+03  0.19126150708E+03  0.22853386143E+03  0.00000000000E+00 0. -1.
         21    1    1    2  506  502 -0.91299182180E+02 -0.79762783037E+02 -0.67832149971E+02  0.13892027496E+03  0.00000000000E+00 0.  1.
<scales pt_clust_3="95.05844" pt_clust_4="333.82982" pt_clust_5="95.05844" pt_clust_6="121.23383"></scales>
<clustering>
<clus scale="   95.058">  3  5 -1 -1</clus>
<clus scale="  121.234">  2  6  1 -1</clus>
<clus scale="  333.830">  2  4  1 -1</clus>
<clus scale="  356.956">  1  3  2 -1</clus>
</clustering>
</event>
<event>
 6    0  0.3042851E+002  0.9621878E+02  0.7546771E-02  0.1288454E+00
         21   -1    0    0  506  501  0.00000000000E+00  0.00000000000E+00  0.39095625753E+02  0.39095625753E+02  0.00000000000E+00 0. -1.
         21   -1    0    0  505  502 -0.00000000000E+00 -0.00000000000E+00 -0.13178608709E+04  0.13178608709E+04  0.00000000000E+00 0. -1.
         21    1    1    2  503  504  0.18513556563E+02 -0.76913425337E+02 -0.31011570336E+02  0.84971432072E+02  0.00000000000E+00 0. -1.
         21    1    1    2  504  502 -0.76681410882E+02  0.62514692902E+02 -0.10778005374E+04  0.10823317994E+04  0.00000000000E+00 0. -1.
         21    1    1    2  505  501  0.31078428269E+02 -0.20213397182E+02 -0.10387226212E+03  0.11029005833E+03  0.00000000000E+00 0. -1.
         21    1    1    2  506  503  0.27089426050E+02  0.34612129617E+02 -0.66080875322E+02  0.79363206863E+02  0.00000000000E+00 0.  1.
<scales pt_clust_3="14000.00000" pt_clust_4="96.21878" pt_clust_5="37.07358" pt_clust_6="45.07286"></scales>
<clustering>
<clus scale="   37.074">  1  5  2 -1</clus>
<clus scale="   45.073">  1  6  2 -1</clus>
<clus scale="   96.219">  2  4  1 -1</clus>
<clus scale="   37.074">  1  3  2 -1</clus>
</clustering>
</event>
<event>
 6    0  0.3042851E+002  0.1578925E+03  0.7546771E-02  0.1191097E+00
         21   -1    0    0  504  501  0.00000000000E+00  0.00000000000E+00  0.96785734344E+03  0.96785734344E+03  0.00000000000E+00 0.  1.
         21   -1    0    0  505  502 -0.00000000000E+00 -0.00000000000E+00 -0.21086118542E+03  0.21086118542E+03  0.00000000000E+00 0.  1.
         21    1    1    2  503  506  0.19828945257E+02  0.82271683752E+02 -0.68426103024E+02  0.10882990670E+03  0.00000000000E+00 0.  1.
         21    1    1    2  504  502 -0.12452661227E+03 -0.12513433529E+03  0.83503881194E+03  0.85349592645E+03  0.00000000000E+00 0.  1.
         21    1    1    2  505  503  0.44291564727E+02  0.55077165655E+02 -0.90422773802E+02  0.11476722051E+03  0.00000000000E+00 0.  1.
         21    1    1    2  506  501  0.60406102286E+02 -0.12214514114E+02  0.80806222911E+02  0.10162547520E+03  0.00000000000E+00 0.  1.
<scales pt_clust_3="38.62713" pt_clust_4="152.12986" pt_clust_5="38.62713" pt_clust_6="61.62866"></scales>
<clustering>
<clus scale="   38.627">  3  5 -1 -1</clus>
<clus scale="   61.629">  1  6  2 -1</clus>
<clus scale="  152.130">  1  4  2 -1</clus>
<clus scale="   61.629">  1  3  2 -1</clus>
</clustering>
</event>
<event>
 6    0  0.3042851E+002  0.2293294E+03  0.7546771E-02  0.1127113E+00
         21   -1    0    0  504  501  0.00000000000E+00  0.00000000000E+00  0.93903051075E+02  0.93903051075E+02  0.00000000000E+00 0. -1.
         21   -1    0    0  503  502 -0.00000000000E+00 -0.00000000000E+00 -0.80150681577E+03  0.80150681577E+03  0.00000000000E+00 0. -1.
         21    1    1    2  503  505  0.17547274677E+02  0.40596897223E+02 -0.14823867035E+03  0.15469556652E+03  0.00000000000E+00 0.  1.
         21    1    1    2  504  506  0.88033662087E+02 -0.75982743070E+02 -0.98129684908E+02  0.15216023779E+03  0.00000000000E+00 0. -1.
         21    1    1    2  505  501 -0.17737411101E+03  0.12603476800E+03 -0.40549059671E+03  0.46018361772E+03  0.00000000000E+00 0. -1.
         21    1    1    2  506  502  0.71793174245E+02 -0.90648922149E+02 -0.55744812722E+02  0.12837044481E+03  0.00000000000E+00 0.  1.
<scales pt_clust_3="44.22686" pt_clust_4="41.22804" pt_clust_5="225.57174" pt_clust_6="41.22804"></scales>
<clustering>
<clus scale="   41.228">  4  6 -1 -1</clus>
<clus scale="   44.227">  2  3  1 -1</clus>
<clus scale="  225.572">  2  5  1 -1</clus>
<clus scale="  229.329">  1  3  2 -1</clus>
</clustering>
</event>
<event>
 6    0  0.3042851E+002  0.1867582E+03  0.7546771E-02  0.1161418E+00
         21   -1    0    0  506  501  0.00000000000E+00  0.00000000000E+00  0.81137333315E+02  0.81137333315E+02  0.00000000000E+00 0. -1.
         21   -1    0    0  503  502 -0.00000000000E+00 -0.00000000000E+00 -0.10308110043E+04  0.10308110043E+04  0.00000000000E+00 0. -1.
         21    1    1    2  503  504  0.75563421031E+02  0.56846491375E+01 -0.43658748928E+03  0.44311486279E+03  0.00000000000E+00 0. -1.
         21    1    1    2  504  505  0.11912554376E+03 -0.99875345593E+01 -0.34956952092E+03  0.36944484836E+03  0.00000000000E+00 0. -1.
         21    1    1    2  505  501 -0.86136251674E+02  0.76667419391E+02 -0.10664908568E+03  0.15707124028E+03  0.00000000000E+00 0. -1.
         21    1    1    2  506  502 -0.10855271312E+03 -0.72364533969E+02 -0.56867575063E+02  0.14231738613E+03  0.00000000000E+00 0. -1.
<scales pt_clust_3="52.13623" pt_clust_4="52.13623" pt_clust_5="115.31412" pt_clust_6="174.90140"></scales>
<clustering>
<clus scale="   52.136">  3  4 -1 -1</clus>
<clus scale="  115.314">  1  5  2 -1</clus>
<clus scale="  174.901">  1  6  2 -1</clus>
<clus scale="  115.314">  1  3  2 -1</clus>
</clustering>
</event>
<event>
 6    0  0.3042851E+002  0.6305616E+03  0.7546771E-02  0.9843954E-01
         21   -1    0    0  506  501  0.00000000000E+00  0.00000000000E+00  0.25421906885E+03  0.25421906885E+03  0.00000000000E+00 0.  1.
         21   -1    0    0  505  502 -0.00000000000E+00 -0.00000000000E+00 -0.14628564358E+04  0.14628564358E+04  0.00000000000E+00 0.  1.
         21    1    1    2  503  502  0.42439032930E+03  0.98496389071E+02 -0.43391959740E+03  0.61489422446E+03  0.00000000000E+00 0.  1.
         21    1    1    2  504  501 -0.11480395660E+03  0.25614022658E+02 -0.26025739511E+03  0.28560451383E+03  0.00000000000E+00 0.  1.
         21    1    1    2  505  504 -0.44855837069E+03 -0.18095794054E+03 -0.40317800767E+03  0.62968475766E+03  0.00000000000E+00 0.  1.
         21    1    1    2  506  503  0.13897199799E+03  0.56847528812E+02 -0.11128236673E+03  0.18689200866E+03  0.00000000000E+00 0.  1.
<scales pt_clust_3="587.89113" pt_clust_4="116.80186" pt_clust_5="116.80186" pt_clust_6="37.62292"></scales>
<clustering>
<clus scale="   37.623">  3  6 -1 -1</clus>
<clus scale="  116.802">  4  5 -1 -1</clus>
<clus scale="  587.891">  1  3  2 -1</clus>
<clus scale="  587.891">  1  3  2 -1</clus>
</clustering>
</event>
<event>
 6    0  0.3042851E+002  0.1185129E+03  0.7546771E-02  0.1245571E+00
         21   -1    0    0  505  501  0.00000000000E+00  0.00000000000E+00  0.16613810511E+03  0.16613810511E+03  0.00000000000E+00 0. -1.
         21   -1    0    0  504  502 -0.00000000000E+00 -0.00000000000E+00 -0.17607076035E+03  0.17607076035E+03  0.00000000000E+00 0.  1.
         21    1    1    2  503  502 -0.41294614283E+02 -0.14455686548E+02 -0.42644547876E+02  0.61096395196E+02  0.00000000000E+00 0.  1.
         21    1    1    2  504  506  0.48377256116E+02  0.63876256231E+01 -0.17943436028E+02  0.51991610543E+02  0.00000000000E+00 0.  1.
         21    1    1    2  505  503 -0.10015537947E+03  0.28497083912E+02 -0.25420864412E+02  0.10718863828E+03  0.00000000000E+00 0.  1.
         21    1    1    2  506  501  0.93072737639E+02 -0.20429022986E+02  0.76076193079E+02  0.12193222144E+03  0.00000000000E+00 0. -1.
<scales pt_clust_3="38.24753" pt_clust_4="48.79714" pt_clust_5="38.24753" pt_clust_6="102.77941"></scales>
<clustering>
<clus scale="   38.248">  3  5 -1 -1</clus>
<clus scale="   48.797">  2  4  1 -1</clus>
<clus scale="  102.779">  1  6  2 -1</clus>
<clus scale="  102.779">  1  3  2 -1</clus>
</clustering>
</event>
<event>
 6    0  0.3042851E+002  0.1225038E+03  0.7546771E-02  0.1239023E+00
         21   -1    0    0  503  501  0.00000000000E+00  0.00000000000E+00  0.80325698766E+02  0.80325698766E+02  0.00000000000E+00 0.  1.
         21   -1    0    0  506  502 -0.00000000000E+00 -0.00000000000E+00 -0.29391782276E+03  0.29391782276E+03  0.00000000000E+00 0. -1.
         21    1    1    2  503  502 -0.10070480172E+03  0.15119621515E+02 -0.11655463339E+03  0.15477416648E+03  0.00000000000E+00 0. -1.
         21    1    1    2  504  501  0.65130759977E+02  0.10209991378E+02  0.86391152798E+01  0.66489804722E+02  0.00000000000E+00 0.  1.
         21    1    1    2  505  504  0.60663473948E+02 -0.99710369210E+00 -0.26064547942E+02  0.66033415379E+02  0.00000000000E+00 0.  1.
         21    1    1    2  506  505 -0.25089432207E+02 -0.24332509201E+02 -0.79612057936E+02  0.86946134941E+02  0.00000000000E+00 0.  1.
<scales pt_clust_3="116.86526" pt_clust_4="34.75255" pt_clust_5="34.75255" pt_clust_6="34.95069"></scales>
<clustering>
<clus scale="   34.951">  2  6  1 -1</clus>
<clus scale="   34.753">  4  5 -1 -1</clus>
<clus scale="  116.865">  2  3  1 -1</clus>
<clus scale="  122.504">  1  3  2 -1</clus>
</clustering>
</event>
<event>
 6    0  0.3042851E+002  0.8229056E+02  0.7546771E-02  0.1322674E+00
         21   -1    0    0  505  501  0.00000000000E+00  0.00000000000E+00  0.45199158176E+03  0.45199158176E+03  0.00000000000E+00 0. -1.
         21   -1    0    0  503  502 -0.00000000000E+00 -0.00000000000E+00 -0.57581514864E+02  0.57581514864E+02  0.00000000000E+00 0. -1.
         21    1    1    2  503  506  0.37289586921E+02 -0.30198264368E+02  0.19462884714E+02  0.51780810587E+02  0.00000000000E+00 0. -1.
         21    1    1    2  504  501  0.75967086031E+02  0.11547947206E+02  0.23024345639E+03  0.24272701221E+03  0.00000000000E+00 0. -1.
         21    1    1    2  505  502 -0.13143213147E+02  0.51245521221E+02  0.59531652090E+02  0.79642106311E+02  0.00000000000E+00 0. -1.
         21    1    1    2  506  504 -0.10011345980E+03 -0.32595204059E+02  0.85172073700E+02  0.13542316752E+03  0.00000000000E+00 0. -1.
<scales pt_clust_3="47.98384" pt_clust_4="14000.00000" pt_clust_5="44.10513" pt_clust_6="82.29056"></scales>
<clustering>
<clus scale="   47.984">  2  3  1 -1</clus>
<clus scale="   44.105">  2  5  1 -1</clus>
<clus scale="   82.291">  2  6  1 -1</clus>
<clus scale="   82.291">  1  3  2 -1</clus>
</clustering>
</event>
<event>
 6    0  0.3042851E+002  0.1014855E+03  0.7546771E-02  0.1277203E+00
         21   -1    0    0  504  501  0.00000000000E+00  0.00000000000E+00  0.13693659029E+03  0.13693659029E+03  0.00000000000E+00 0. -1.
         21   -1    0    0  503  502 -0.00000000000E+00 -0.00000000000E+00 -0.76936980395E+03  0.76936980395E+03  0.00000000000E+00 0. -1.
         21    1    1    2  503  506  0.15916892265E+02 -0.36864391566E+02 -0.24934344971E+03  0.25255590815E+03  0.00000000000E+00 0. -1.
         21    1    1    2  504  502  0.54572892126E+02  0.13423202683E+03  0.72799491039E+02  0.16216104180E+03  0.00000000000E+00 0. -1.
         21    1    1    2  505  501 -0.47323078512E+02 -0.42125114017E+02 -0.48419380315E+02  0.79739797974E+02  0.00000000000E+00 0. -1.
         21    1    1    2  506  505 -0.23166705878E+02 -0.55242521248E+02 -0.40746987467E+03  0.41184964632E+03  0.00000000000E+00 0. -1.
<scales pt_clust_3="31.65354" pt_clust_4="93.83258" pt_clust_5="63.35613" pt_clust_6="31.65354"></scales>
<clustering>
<clus scale="   31.654">  3  6 -1 -1</clus>
<clus scale="   63.356">  1  5  2 -1</clus>
<clus scale="   93.833">  1  4  2 -1</clus>
<clus scale="   63.356">  1  3  2 -1</clus>
</clustering>
</event>
<event>
 6    0  0.3042851E+002  0.1723190E+03  0.7546771E-02  0.1175451E+00
         21   -1    0    0  505  501  0.00000000000E+00  0.00000000000E+00  0.96802619324E+03  0.96802619324E+03  0.00000000000E+00 0.  1.
         21   -1    0    0  501  502 -0.00000000000E+00 -0.00000000000E+00 -0.10628860813E+03  0.10628860813E+03  0.00000000000E+00 0.  1.
         21    1    1    2  503  502 -0.24028440815E+02 -0.11444815678E+03 -0.34907203872E+02  0.12204203965E+03  0.00000000000E+00 0.  1.
         21    1    1    2  504  503  0.96814831736E+01 -0.46402003178E+02  0.92417037324E+01  0.48293748076E+02  0.00000000000E+00 0.  1.
         21    1    1    2  505  506 -0.31086253008E+01  0.54063908041E+02  0.45638652361E+03  0.45958810759E+03  0.00000000000E+00 0.  1.
         21    1    1    2  506  504  0.17455582942E+02  0.10678625192E+03  0.43101656164E+03  0.44439090605E+03  0.00000000000E+00 0.  1.
<scales pt_clust_3="168.39110" pt_clust_4="30.37975" pt_clust_5="42.53616" pt_clust_6="42.53616"></scales>
<clustering>
<clus scale="   30.380">  3  4 -1 -1</clus>
<clus scale="   42.536">  5  6 -1 -1</clus>
<clus scale="  168.391">  2  3  1 -1</clus>
<clus scale="  172.319">  1  3  2 -1</clus>
</clustering>
</event>
<event>
 6    0  0.3042851E+002  0.1025961E+03  0.7546771E-02  0.1274930E+00
         21   -1    0    0  504  501  0.00000000000E+00  0.00000000000E+00  0.11540457556E+04  0.11540457556E+04  0.00000000000E+00 0.  1.
         21   -1    0    0  506  502 -0.00000000000E+00 -0.00000000000E+00 -0.25046495175E+03  0.25046495175E+03  0.00000000000E+00 0.  1.
         21    1    1    2  503  501 -0.42619218175E+02  0.63399463247E+02  0.99613411412E+03  0.99905908885E+03  0.00000000000E+00 0.  1.
         21    1    1    2  504  505 -0.23168874512E+00  0.32655935508E+02  0.11979247344E+03  0.12416400644E+03  0.00000000000E+00 0. -1.
         21    1    1    2  505  502  0.61968787009E+02 -0.20958003377E+01 -0.16098612810E+03  0.17251393098E+03  0.00000000000E+00 0.  1.
         21    1    1    2  506  503 -0.19117880089E+02 -0.93959598418E+02 -0.51359655602E+02  0.10877368109E+03  0.00000000000E+00 0.  1.
<scales pt_clust_3="14000.00000" pt_clust_4="32.65676" pt_clust_5="61.99703" pt_clust_6="102.59608"></scales>
<clustering>
<clus scale="   32.657">  1  4  2 -1</clus>
<clus scale="   61.997">  2  5  1 -1</clus>
<clus scale="  102.596">  2  6  1 -1</clus>
<clus scale="   32.657">  1  3  2 -1</clus>
</clustering>
</event>
<event>
 6    0  0.3042851E+002  0.3624426E+03  0.7546771E-02  0.1057621E+00
         21   -1    0    0  504  501  0.00000000000E+00  0.00000000000E+00  0.64931443555E+02  0.64931443555E+02  0.00000000000E+00 0. -1.
         21   -1    0    0  505  502 -0.00000000000E+00 -0.00000000000E+00 -0.33495139726E+04  0.33495139726E+04  0.00000000000E+00 0. -1.
         21    1    1    2  503  502 -0.49167713388E+02 -0.31670625657E+03 -0.23554753048E+04  0.23771798898E+04  0.00000000000E+00 0. -1.
         21    1    1    2  504  503  0.23917120363E+02 -0.31790446026E+02 -0.36234156550E+03  0.36451895862E+03  0.00000000000E+00 0. -1.
         21    1    1    2  505  506  0.51057373449E+02  0.30254900314E+03 -0.51084450929E+03  0.59590676063E+03  0.00000000000E+00 0. -1.
         21    1    1    2  506  501 -0.25806780424E+02  0.45947699456E+02 -0.55921149508E+02  0.76839807154E+02  0.00000000000E+00 0.  1.
<scales pt_clust_3="361.08730" pt_clust_4="32.09077" pt_clust_5="39.91721" pt_clust_6="39.91721"></scales>
<clustering>
<clus scale="   32.091">  3  4 -1 -1</clus>
<clus scale="   39.917">  5  6 -1 -1</clus>
<clus scale="  361.087">  2  3  1 -1</clus>
<clus scale="  362.443">  1  3  2 -1</clus>
</clustering>
</event>
<event>
 6    0  0.3042851E+002  0.1104538E+03  0.7546771E-02  0.1259732E+00
         21   -1    0    0  504  501  0.00000000000E+00  0.00000000000E+00  0.19075484741E+03  0.19075484741E+03  0.00000000000E+00 0. -1.
         21   -1    0    0  505  502 -0.00000000000E+00 -0.00000000000E+00 -0.17750835391E+03  0.17750835391E+03  0.00000000000E+00 0.  1.
         21    1    1    2  503  502  0.42393306420E+02 -0.23032150006E+02 -0.58402582366E+02  0.75753112082E+02  0.00000000000E+00 0.  1.
         21    1    1    2  504  503  0.65799193018E+02  0.11701996199E+02 -0.62508747067E+02  0.91508545922E+02  0.00000000000E+00 0.  1.
         21    1    1    2  505  506 -0.79667395970E+02  0.45790835438E+02  0.47412323452E+02  0.10340030467E+03  0.00000000000E+00 0.  1.
         21    1    1    2  506  501 -0.28525103469E+02 -0.34460681631E+02  0.86745499482E+02  0.97601238653E+02  0.00000000000E+00 0. -1.
<scales pt_clust_3="33.15724" pt_clust_4="33.15724" pt_clust_5="103.33013" pt_clust_6="44.73500"></scales>
<clustering>
<clus scale="   33.157">  3  4 -1 -1</clus>
<clus scale="   44.735">  1  6  2 -1</clus>
<clus scale="  103.330">  1  5  2 -1</clus>
<clus scale="   44.735">  1  3  2 -1</clus>
</clustering>
</event>
<event>
 6    0  0.3042851E+002  0.1371814E+03  0.7546771E-02  0.1217173E+00
         21   -1    0    0  503  501  0.00000000000E+00  0.00000000000E+00  0.28807297039E+02  0.28807297039E+02  0.00000000000E+00 0.  1.
         21   -1    0    0  506  502 -0.00000000000E+00 -0.00000000000E+00 -0.93408237452E+03  0.93408237452E+03  0.00000000000E+00 0. -1.
         21    1    1    2  503  505 -0.44607605768E+02 -0.86479053679E+01 -0.24988545847E+03  0.25398300557E+03  0.00000000000E+00 0. -1.
         21    1    1    2  504  501  0.20709461944E+02  0.47017328324E+02 -0.47367225654E+02  0.69879646843E+02  0.00000000000E+00 0.  1.
         21    1    1    2  505  502 -0.41825129706E+02 -0.81616273760E+02 -0.48060796297E+03  0.48927964569E+03  0.00000000000E+00 0. -1.
         21    1    1    2  506  504  0.65723273529E+02  0.43246850804E+02 -0.12741443038E+03  0.14974737345E+03  0.00000000000E+00 0.  1.
<scales pt_clust_3="39.82102" pt_clust_4="36.75853" pt_clust_5="39.82102" pt_clust_6="132.99399"></scales>
<clustering>
<clus scale="   36.759">  4  6 -1 -1</clus>
<clus scale="   39.821">  3  5 -1 -1</clus>
<clus scale="  132.994">  1  4  2 -1</clus>
<clus scale="  132.994">  1  3  2 -1</clus>
</clustering>
</event>
<event>
 6    0  0.3042851E+002  0.1102772E+03  0.7546771E-02  0.1260057E+00
         21   -1    0    0  505  501  0.00000000000E+00  0.00000000000E+00  0.42804278928E+03  0.42804278928E+03  0.00000000000E+00 0. -1.
         21   -1    0    0  506  502 -0.00000000000E+00 -0.00000000000E+00 -0.91581117826E+02  0.91581117826E+02  0.00000000000E+00 0. -1.
         21    1    1    2  503  502  0.20676147250E+02  0.22341667555E+02 -0.34872306687E+02  0.46289641907E+02  0.00000000000E+00 0. -1.
         21    1    1    2  504  503 -0.79448761185E+02  0.43812295854E+02  0.28384441018E+03  0.29799206720E+03  0.00000000000E+00 0. -1.
         21    1    1    2  505  504 -0.15957927840E+02  0.25863113887E+02  0.33051729861E+02  0.44899587612E+02  0.00000000000E+00 0. -1.
         21    1    1    2  506  501  0.74730541775E+02 -0.92017077296E+02  0.54437838097E+02  0.13044261039E+03  0.00000000000E+00 0. -1.
<scales pt_clust_3="30.56348" pt_clust_4="110.27722" pt_clust_5="30.39007" pt_clust_6="14000.00000"></scales>
<clustering>
<clus scale="   30.390">  1  5  2 -1</clus>
<clus scale="   30.563">  2  3  1 -1</clus>
<clus scale="  110.277">  1  4  2 -1</clus>
<clus scale="   30.390">  1  3  2 -1</clus>
</clustering>
</event>
<event>
 6    0  0.3042851E+002  0.9343841E+02  0.7546771E-02  0.1294732E+00
         21   -1    0    0  503  501  0.00000000000E+00  0.00000000000E+00  0.11275483089E+03  0.11275483089E+03  0.00000000000E+00 0. -1.
         21   -1    0    0  506  502 -0.00000000000E+00 -0.00000000000E+00 -0.98255502824E+03  0.98255502824E+03  0.00000000000E+00 0. -1.
         21    1    1    2  503  504  0.30385532163E+02 -0.27326262567E+02 -0.25625465631E+02  0.48235564468E+02  0.00000000000E+00 0. -1.
         21    1    1    2  504  502  0.10921952449E+03  0.82570800000E+02 -0.19411167921E+03  0.23754196587E+03  0.00000000000E+00 0. -1.
         21    1    1    2  505  501 -0.62365149981E+02 -0.54670045202E+02  0.55475254402E+02  0.99778402600E+02  0.00000000000E+00 0. -1.
         21    1    1    2  506  505 -0.77239906676E+02 -0.57449223078E+00 -0.70553830691E+03  0.70975392619E+03  0.00000000000E+00 0. -1.
<scales pt_clust_3="40.86570" pt_clust_4="14000.00000" pt_clust_5="93.43841" pt_clust_6="76.61711"></scales>
<clustering>
<clus scale="   40.866">  1  3  2 -1</clus>
<clus scale="   76.617">  2  6  1 -1</clus>
<clus scale="   93.438">  1  5  2 -1</clus>
<clus scale="   40.866">  1  3  2 -1</clus>
</clustering>
</event>
<event>
 6    0  0.3042851E+002  0.1982108E+03  0.7546771E-02  0.1151257E+00
         21   -1    0    0  504  501  0.00000000000E+00  0.00000000000E+00  0.39715511101E+03  0.39715511101E+03  0.00000000000E+00 0.  1.
         21   -1    0    0  506  502 -0.00000000000E+00 -0.00000000000E+00 -0.46044450430E+03  0.46044450430E+03  0.00000000000E+00 0.  1.
         21    1    1    2  503  502 -0.65301341883E+02 -0.19371715821E+03 -0.14563143403E+03  0.25099624940E+03  0.00000000000E+00 0.  1.
         21    1    1    2  504  503 -0.32791259072E+02 -0.13417966983E+03  0.13674708949E+03  0.19436876537E+03  0.00000000000E+00 0.  1.
         21    1    1    2  505  501  0.19053806805E+02  0.28100413038E+03  0.35247051046E+02  0.28384630251E+03  0.00000000000E+00 0.  1.
         21    1    1    2  506  505  0.79038794150E+02  0.46892697661E+02 -0.89652099789E+02  0.12838829803E+03  0.00000000000E+00 0. -1.
<scales pt_clust_3="14000.00000" pt_clust_4="132.96455" pt_clust_5="198.21083" pt_clust_6="91.90243"></scales>
<clustering>
<clus scale="   91.902">  2  6  1 -1</clus>
<clus scale="  132.965">  1  4  2 -1</clus>
<clus scale="  198.211">  1  5  2 -1</clus>
<clus scale="  132.965">  1  3  2 -1</clus>
</clustering>
</event>
<event>
 6    0  0.3042851E+002  0.1184151E+03  0.7546771E-02  0.1245735E+00
         21   -1    0    0  503  501  0.00000000000E+00  0.00000000000E+00  0.10965471989E+04  0.10965471989E+04  0.00000000000E+00 0.  1.
         21   -1    0    0  504  502 -0.00000000000E+00 -0.00000000000E+00 -0.44817199773E+02  0.44817199773E+02  0.00000000000E+00 0. -1.
         21    1    1    2  503  505  0.39712386941E+01 -0.41789985783E+02  0.48030607132E+02  0.63789598447E+02  0.00000000000E+00 0. -1.
         21    1    1    2  504  501 -0.89722962412E+02  0.80474849370E+02  0.94052957409E+03  0.94822059200E+03  0.00000000000E+00 0.  1.
         21    1    1    2  505  506  0.12944739958E+02 -0.31922448200E+02  0.28504987915E+01  0.34564929264E+02  0.00000000000E+00 0. -1.
         21    1    1    2  506  502  0.72806983760E+02 -0.67624153864E+01  0.60319319104E+02  0.94789278947E+02  0.00000000000E+00 0. -1.
<scales pt_clust_3="33.46875" pt_clust_4="112.50370" pt_clust_5="33.46875" pt_clust_6="73.12036"></scales>
<clustering>
<clus scale="   33.469">  3  5 -1 -1</clus>
<clus scale="   73.120">  2  6  1 -1</clus>
<clus scale="  112.504">  1  4  2 -1</clus>
<clus scale="  112.504">  1  3  2 -1</clus>
</clustering>
</event>
<event>
 6    0  0.3042851E+002  0.2659285E+03  0.7546771E-02  0.1103633E+00
         21   -1    0    0  503  501  0.00000000000E+00  0.00000000000E+00  0.69284141346E+03  0.69284141346E+03  0.00000000000E+00 0.  1.
         21   -1    0    0  505  502 -0.00000000000E+00 -0.00000000000E+00 -0.16280289855E+03  0.16280289855E+03  0.00000000000E+00 0.  1.
         21    1    1    2  503  506  0.41867846884E+02  0.82530012853E+02  0.92115456625E+01  0.92999850526E+02  0.00000000000E+00 0.  1.
         21    1    1    2  504  501 -0.13217947942E+03 -0.11706864239E+03  0.39284655615E+03  0.43070279601E+03  0.00000000000E+00 0.  1.
         21    1    1    2  505  504 -0.35444723596E+02 -0.79138270079E+02  0.13705047213E+03  0.16217899412E+03  0.00000000000E+00 0. -1.
         21    1    1    2  506  502  0.12575635613E+03  0.11367689962E+03 -0.90700590273E+01  0.16976267135E+03  0.00000000000E+00 0.  1.
<scales pt_clust_3="36.56478" pt_clust_4="44.99757" pt_clust_5="44.99757" pt_clust_6="262.76248"></scales>
<clustering>
<clus scale="   36.565">  3  6 -1 -1</clus>
<clus scale="   44.998">  4  5 -1 -1</clus>
<clus scale="  262.762">  2  3  1 -1</clus>
<clus scale="  265.928">  1  3  2 -1</clus>
</clustering>
</event>
<event>
 6    0  0.3042851E+002  0.1637623E+03  0.7546771E-02  0.1184513E+00
         21   -1    0    0  502  501  0.00000000000E+00  0.00000000000E+00  0.72670179639E+03  0.72670179639E+03  0.00000000000E+00 0. -1.
         21   -1    0    0  503  502 -0.00000000000E+00 -0.00000000000E+00 -0.78050557597E+02  0.78050557597E+02  0.00000000000E+00 0. -1.
         21    1    1    2  503  505 -0.95683638496E+01 -0.54814608525E+02  0.20953749648E+02  0.59458006347E+02  0.00000000000E+00 0. -1.
         21    1    1    2  504  501  0.16777145421E+02  0.53306785665E+02  0.13933071845E+03  0.15012040204E+03  0.00000000000E+00 0. -1.
         21    1    1    2  505  506  0.23092636559E+02 -0.94280238518E+02  0.49837836078E+00  0.97068437812E+02  0.00000000000E+00 0. -1.
         21    1    1    2  506  504 -0.30301418131E+02  0.95788061378E+02  0.48786839234E+03  0.49810550778E+03  0.00000000000E+00 0. -1.
<scales pt_clust_3="30.55053" pt_clust_4="49.50554" pt_clust_5="155.04946" pt_clust_6="49.50554"></scales>
<clustering>
<clus scale="   30.551">  3  5 -1 -1</clus>
<clus scale="   49.506">  4  6 -1 -1</clus>
<clus scale="  155.049">  2  3  1 -1</clus>
<clus scale="  163.762">  1  3  2 -1</clus>
</clustering>
</event>
<event>
 6    0  0.3042851E+002  0.1512364E+03  0.7546771E-02  0.1198962E+00
         21   -1    0    0  502  501  0.00000000000E+00  0.00000000000E+00  0.55115091539E+03  0.55115091539E+03  0.00000000000E+00 0.  1.
         21   -1    0    0  505  502 -0.00000000000E+00 -0.00000000000E+00 -0.44181331763E+02  0.44181331763E+02  0.00000000000E+00 0.  1.
         21    1    1    2  503  501 -0.27481339946E+02  0.34474115754E+02  0.17132167435E+03  0.17690337703E+03  0.00000000000E+00 0. -1.
         21    1    1    2  504  503 -0.36313255726E+02  0.89518707956E+02  0.15724196829E+03  0.18454616823E+03  0.00000000000E+00 0.  1.
         21    1    1    2  505  506  0.72567424086E+02 -0.90108296420E+02  0.14496942394E+03  0.18547687188E+03  0.00000000000E+00 0.  1.
         21    1    1    2  506  504 -0.87728284144E+01 -0.33884527289E+02  0.33436517041E+02  0.48405830020E+02  0.00000000000E+00 0. -1.
<scales pt_clust_3="38.49909" pt_clust_4="150.63767" pt_clust_5="32.20595" pt_clust_6="32.20595"></scales>
<clustering>
<clus scale="   32.206">  5  6 -1 -1</clus>
<clus scale="   38.499">  3  4 -1 -1</clus>
<clus scale="  150.638">  1  3  2 -1</clus>
<clus scale="  150.638">  1  3  2 -1</clus>
</clustering>
</event>
<event>
 6    0  0.3042851E+002  0.9254610E+02  0.7546771E-02  0.1296800E+00
         21   -1    0    0  506  501  0.00000000000E+00  0.00000000000E+00  0.30019150748E+03  0.30019150748E+03  0.00000000000E+00 0.  1.
         21   -1    0    0  503  502 -0.00000000000E+00 -0.00000000000E+00 -0.50333267869E+03  0.50333267869E+03  0.00000000000E+00 0.  1.
         21    1    1    2  503  505  0.24080837917E+02 -0.25237385421E+02 -0.75379662579E+02  0.83059652709E+02  0.00000000000E+00 0.  1.
         21    1    1    2  504  502  0.10281247833E+02 -0.61312469616E+02 -0.40116982923E+03  0.40595831667E+03  0.00000000000E+00 0.  1.
         21    1    1    2  505  501 -0.16200837099E+02 -0.31784924988E+02  0.59609326143E+02  0.69469564144E+02  0.00000000000E+00 0.  1.
         21    1    1    2  506  504 -0.18161248651E+02  0.11833478003E+03  0.21379899445E+03  0.24503665266E+03  0.00000000000E+00 0.  1.
<scales pt_clust_3="34.88284" pt_clust_4="14000.00000" pt_clust_5="35.81190" pt_clust_6="92.54610"></scales>
<clustering>
<clus scale="   34.883">  2  3  1 -1</clus>
<clus scale="   35.812">  1  5  2 -1</clus>
<clus scale="   92.546">  1  6  2 -1</clus>
<clus scale="   35.812">  1  3  2 -1</clus>
</clustering>
</event>
<event>
 6    0  0.3042851E+002  0.3083827E+03  0.7546771E-02  0.1081124E+00
         21   -1    0    0  506  501  0.00000000000E+00  0.00000000000E+00  0.58966030003E+03  0.58966030003E+03  0.00000000000E+00 0.  1.
         21   -1    0    0  503  502 -0.00000000000E+00 -0.00000000000E+00 -0.77504950052E+03  0.77504950052E+03  0.00000000000E+00 0.  1.
         21    1    1    2  503  504  0.25590971952E+02 -0.25341547136E+02 -0.48567601272E+02  0.60464069909E+02  0.00000000000E+00 0.  1.
         21    1    1    2  504  505  0.68901400194E+02  0.24240412696E+02  0.16486143704E+03  0.18031720379E+03  0.00000000000E+00 0. -1.
         21    1    1    2  505  501  0.19710410538E+03  0.12004372434E+03  0.33895994806E+03  0.41006630012E+03  0.00000000000E+00 0.  1.
         21    1    1    2  506  502 -0.29159647752E+03 -0.11894258990E+03 -0.64064298432E+03  0.71386222673E+03  0.00000000000E+00 0.  1.
<scales pt_clust_3="36.01516" pt_clust_4="31.52368" pt_clust_5="31.52368" pt_clust_6="303.24918"></scales>
<clustering>
<clus scale="   31.524">  4  5 -1 -1</clus>
<clus scale="   36.015">  2  3  1 -1</clus>
<clus scale="  303.249">  2  6  1 -1</clus>
<clus scale="  308.383">  1  3  2 -1</clus>
</clustering>
</event>
<event>
 6    0  0.3042851E+002  0.1023642E+03  0.7546771E-02  0.1275402E+00
         21   -1    0    0  502  501  0.00000000000E+00  0.00000000000E+00  0.25241832481E+03  0.25241832481E+03  0.00000000000E+00 0. -1.
         21   -1    0    0  506  502 -0.00000000000E+00 -0.00000000000E+00 -0.64573875511E+03  0.64573875511E+03  0.00000000000E+00 0. -1.
         21    1    1    2  503  504 -0.66092744605E+02  0.41193880467E+02  0.15644419073E+02  0.79435096308E+02  0.00000000000E+00 0. -1.
         21    1    1    2  504  501 -0.40897371927E+02  0.10722505215E+02  0.18892055044E+03  0.19359375384E+03  0.00000000000E+00 0. -1.
         21    1    1    2  505  503  0.27017805186E+02 -0.82350957723E+02 -0.40413405517E+03  0.41332308982E+03  0.00000000000E+00 0. -1.
         21    1    1    2  506  505  0.79972311346E+02  0.30434572042E+02 -0.19375134464E+03  0.21180513994E+03  0.00000000000E+00 0. -1.
<scales pt_clust_3="14000.00000" pt_clust_4="42.27963" pt_clust_5="102.36418" pt_clust_6="80.57082"></scales>
<clustering>
<clus scale="   42.280">  1  4  2 -1</clus>
<clus scale="   80.571">  2  6  1 -1</clus>
<clus scale="  102.364">  2  5  1 -1</clus>
<clus scale="   42.280">  1  3  2 -1</clus>
</clustering>
</event>
<event>
 6    0  0.3042851E+002  0.7619060E+02  0.7546771E-02  0.1340223E+00
         21   -1    0    0  506  501  0.00000000000E+00  0.00000000000E+00  0.12339131830E+04  0.12339131830E+04  0.00000000000E+00 0.  1.
         21   -1    0    0  503  502 -0.00000000000E+00 -0.00000000000E+00 -0.46802730640E+02  0.46802730640E+02  0.00000000000E+00 0.  1.
         21    1    1    2  503  504 -0.32812742590E+01 -0.47019477683E+02  0.72706327424E+03  0.72858946107E+03  0.00000000000E+00 0.  1.
         21    1    1    2  504  501 -0.37833782014E+02 -0.22505645247E+02  0.33504789133E+03  0.33792749017E+03  0.00000000000E+00 0.  1.
         21    1    1    2  505  502 -0.55196993059E+02  0.13160794478E+02  0.17831027858E+02  0.59479913488E+02  0.00000000000E+00 0.  1.
         21    1    1    2  506  505  0.96312049332E+02  0.56364328452E+02  0.10716825890E+03  0.15471904887E+03  0.00000000000E+00 0.  1.
<scales pt_clust_3="76.19060" pt_clust_4="44.02158" pt_clust_5="58.11967" pt_clust_6="14000.00000"></scales>
<clustering>
<clus scale="   44.022">  1  4  2 -1</clus>
<clus scale="   58.120">  2  5  1 -1</clus>
<clus scale="   76.191">  1  3  2 -1</clus>
<clus scale="   44.022">  1  3  2 -1</clus>
</clustering>
</event>
<event>
 6    0  0.3042851E+002  0.6597910E+02  0.7546771E-02  0.1374326E+00
         21   -1    0    0  505  501  0.00000000000E+00  0.00000000000E+00  0.12048164087E+04  0.12048164087E+04  0.00000000000E+00 0. -1.
         21   -1    0    0  504  502 -0.00000000000E+00 -0.00000000000E+00 -0.12462818242E+03  0.12462818242E+03  0.00000000000E+00 0.  1.
         21    1    1    2  503  501  0.13867346747E+02 -0.31531841953E+02  0.14090995263E+03  0.14505921244E+03  0.00000000000E+00 0. -1.
         21    1    1    2  504  503  0.79181862085E+01 -0.58373268281E+02  0.11383182564E+02  0.59997608018E+02  0.00000000000E+00 0. -1.
         21    1    1    2  505  506 -0.77117014367E+02  0.49685641056E+02  0.10119028682E+04  0.10160527110E+04  0.00000000000E+00 0. -1.
         21    1    1    2  506  502  0.55331481412E+02  0.40219469178E+02 -0.84007777125E+02  0.10833505967E+03  0.00000000000E+00 0.  1.
<scales pt_clust_3="34.44649" pt_clust_4="60.02160" pt_clust_5="65.97910" pt_clust_6="14000.00000"></scales>
<clustering>
<clus scale="   34.446">  1  3  2 -1</clus>
<clus scale="   60.022">  2  4  1 -1</clus>
<clus scale="   65.979">  1  5  2 -1</clus>
<clus scale="   34.446">  1  3  2 -1</clus>
</clustering>
</event>
<event>
 6    0  0.3042851E+002  0.9008932E+02  0.7546771E-02  0.1302636E+00
         21   -1    0    0  504  501  0.00000000000E+00  0.00000000000E+00  0.23285118901E+03  0.23285118901E+03  0.00000000000E+00 0. -1.
         21   -1    0    0  503  502 -0.00000000000E+00 -0.00000000000E+00 -0.15134832323E+04  0.15134832323E+04  0.00000000000E+00 0. -1.
         21    1    1    2  503  505  0.24416546162E+02 -0.20512698860E+02 -0.59705743368E+03  0.59790845257E+03  0.00000000000E+00 0.  1.
         21    1    1    2  504  506 -0.37019104558E+02  0.20268546028E+02  0.20162303319E+03  0.20599290176E+03  0.00000000000E+00 0. -1.
         21    1    1    2  505  501 -0.30955627886E+02 -0.81732642884E+02 -0.47238479974E+02  0.99347621012E+02  0.00000000000E+00 0. -1.
         21    1    1    2  506  502  0.43558186282E+02  0.81976795716E+02 -0.83795916282E+03  0.84308544596E+03  0.00000000000E+00 0. -1.
<scales pt_clust_3="31.88947" pt_clust_4="42.13002" pt_clust_5="90.08932" pt_clust_6="14000.00000"></scales>
<clustering>
<clus scale="   31.889">  2  3  1 -1</clus>
<clus scale="   42.130">  1  4  2 -1</clus>
<clus scale="   90.089">  1  5  2 -1</clus>
<clus scale="   42.130">  1  3  2 -1</clus>
</clustering>
</event>
<event>
 6    0  0.3042851E+002  0.1450132E+03  0.7546771E-02  0.1206738E+00
         21   -1    0    0  505  501  0.00000000000E+00  0.00000000000E+00  0.11406966223E+03  0.11406966223E+03  0.00000000000E+00 0.  1.
         21   -1    0    0  504  502 -0.00000000000E+00 -0.00000000000E+00 -0.13619371892E+04  0.13619371892E+04  0.00000000000E+00 0.  1.
         21    1    1    2  503  506  0.13372933252E+03 -0.11910055251E+03 -0.64857322062E+03  0.67284151068E+03  0.00000000000E+00 0.  1.
         21    1    1    2  504  501  0.14193699105E+02  0.30957419140E+02 -0.21368368684E+02  0.40204851378E+02  0.00000000000E+00 0. -1.
         21    1    1    2  505  503 -0.11169562746E+03  0.72743519332E+02  0.43557828504E+02  0.14023129901E+03  0.00000000000E+00 0.  1.
         21    1    1    2  506  502 -0.36227404169E+02  0.15399614042E+02 -0.62148376614E+03  0.62272919034E+03  0.00000000000E+00 0.  1.
<scales pt_clust_3="14000.00000" pt_clust_4="34.05617" pt_clust_5="145.01316" pt_clust_6="39.35947"></scales>
<clustering>
<clus scale="   34.056">  1  4  2 -1</clus>
<clus scale="   39.359">  2  6  1 -1</clus>
<clus scale="  145.013">  1  5  2 -1</clus>
<clus scale="   34.056">  1  3  2 -1</clus>
</clustering>
</event>
<event>
 6    0  0.3042851E+002  0.7474947E+02  0.7546771E-02  0.1344649E+00
         21   -1    0    0  504  501  0.00000000000E+00  0.00000000000E+00  0.10126214443E+03  0.10126214443E+03  0.00000000000E+00 0. -1.
         21   -1    0    0  505  502 -0.00000000000E+00 -0.00000000000E+00 -0.61093292739E+03  0.61093292739E+03  0.00000000000E+00 0.  1.
         21    1    1    2  503  502 -0.36218034856E+02  0.26366222989E+02 -0.39601057204E+03  0.39853644367E+03  0.00000000000E+00 0.  1.
         21    1    1    2  504  503  0.19631447412E+02 -0.11708847221E+03  0.35809983838E+02  0.12400588291E+03  0.00000000000E+00 0. -1.
         21    1    1    2  505  506 -0.16953659684E+01  0.42053384938E+02 -0.12556497543E+03  0.13243082913E+03  0.00000000000E+00 0.  1.
         21    1    1    2  506  501  0.18281953412E+02  0.48668864287E+02 -0.23905219327E+02  0.57221916104E+02  0.00000000000E+00 0. -1.
<scales pt_clust_3="74.74947" pt_clust_4="14000.00000" pt_clust_5="42.08755" pt_clust_6="55.26981"></scales>
<clustering>
<clus scale="   42.088">  2  5  1 -1</clus>
<clus scale="   55.270">  1  6  2 -1</clus>
<clus scale="   74.749">  2  3  1 -1</clus>
<clus scale="   55.270">  1  3  2 -1</clus>
</clustering>
</event>
<event>
 6    0  0.3042851E+002  0.5131549E+03  0.7546771E-02  0.1010401E+00
         21   -1    0    0  502  501  0.00000000000E+00  0.00000000000E+00  0.18591646541E+04  0.18591646541E+04  0.00000000000E+00 0.  1.
         21   -1    0    0  505  502 -0.00000000000E+00 -0.00000000000E+00 -0.29674930089E+03  0.29674930089E+03  0.00000000000E+00 0.  1.
         21    1    1    2  503  501  0.30080693063E+03 -0.30604006490E+03  0.12788218504E+04  0.13488997946E+04  0.00000000000E+00 0.  1.
         21    1    1    2  504  503  0.32691070874E+02 -0.80373438430E+02  0.26605771091E+03  0.27984871137E+03  0.00000000000E+00 0.  1.
         21    1    1    2  505  506  0.84704804591E+01  0.31700549316E+02 -0.80680775008E+01  0.33790053872E+02  0.00000000000E+00 0.  1.
         21    1    1    2  506  504 -0.34196848196E+03  0.35471295401E+03  0.25603869382E+02  0.49337539513E+03  0.00000000000E+00 0.  1.
<scales pt_clust_3="33.70282" pt_clust_4="33.70282" pt_clust_5="32.81271" pt_clust_6="507.63712"></scales>
<clustering>
<clus scale="   32.813">  2  5  1 -1</clus>
<clus scale="   33.703">  3  4 -1 -1</clus>
<clus scale="  507.637">  2  6  1 -1</clus>
<clus scale="  513.155">  1  3  2 -1</clus>
</clustering>
</event>
<event>
 6    0  0.3042851E+002  0.1343218E+03  0.7546771E-02  0.1221180E+00
         21   -1    0    0  503  501  0.00000000000E+00  0.00000000000E+00  0.11460465357E+04  0.11460465357E+04  0.00000000000E+00 0. -1.
         21   -1    0    0  504  502 -0.00000000000E+00 -0.00000000000E+00 -0.10662727627E+04  0.10662727627E+04  0.00000000000E+00 0.  1.
         21    1    1    2  503  506  0.98337600719E+02 -0.29555784856E+02 -0.55523416220E+03  0.56464927434E+03  0.00000000000E+00 0.  1.
         21    1    1    2  504  505 -0.99259894684E+02  0.29798013369E+02  0.60583539443E+03  0.61463564283E+03  0.00000000000E+00 0. -1.
         21    1    1    2  505  501 -0.29709859158E+02  0.10314458883E+02  0.53011407867E+03  0.53104613754E+03  0.00000000000E+00 0. -1.
         21    1    1    2  506  502  0.30632153123E+02 -0.10556687396E+02 -0.50094153792E+03  0.50198824375E+03  0.00000000000E+00 0.  1.
<scales pt_clust_3="134.32181" pt_clust_4="14000.00000" pt_clust_5="31.44938" pt_clust_6="32.37345"></scales>
<clustering>
<clus scale="   31.449">  1  5  2 -1</clus>
<clus scale="   32.373">  2  6  1 -1</clus>
<clus scale="  134.322">  2  3  1 -1</clus>
<clus scale="   31.449">  1  3  2 -1</clus>
</clustering>
</event>
<event>
 6    0  0.3042851E+002  0.1405228E+03  0.7546771E-02  0.1212627E+00
         21   -1    0    0  503  501  0.00000000000E+00  0.00000000000E+00  0.84678401055E+02  0.84678401055E+02  0.00000000000E+00 0. -1.
         21   -1    0    0  506  502 -0.00000000000E+00 -0.00000000000E+00 -0.17841404349E+04  0.17841404349E+04  0.00000000000E+00 0. -1.
         21    1    1    2  503  505  0.26822051235E+02 -0.19985369365E+03 -0.20335384807E+03  0.28638035691E+03  0.00000000000E+00 0. -1.
         21    1    1    2  504  501  0.46619041396E+02  0.80393510120E+02 -0.21266621385E+02  0.95334782085E+02  0.00000000000E+00 0. -1.
         21    1    1    2  505  502 -0.71258874226E+02  0.26398081700E+01 -0.44857350788E+03  0.45420588692E+03  0.00000000000E+00 0. -1.
         21    1    1    2  506  504 -0.21822184049E+01  0.11682037536E+03 -0.10262680565E+04  0.10328978100E+04  0.00000000000E+00 0. -1.
<scales pt_clust_3="14000.00000" pt_clust_4="91.51015" pt_clust_5="71.30775" pt_clust_6="140.52282"></scales>
<clustering>
<clus scale="   71.308">  2  5  1 -1</clus>
<clus scale="   91.510">  1  4  2 -1</clus>
<clus scale="  140.523">  2  6  1 -1</clus>
<clus scale="   91.510">  1  3  2 -1</clus>
</clustering>
</event>
<event>
 6    0  0.3042851E+002  0.1222767E+03  0.7546771E-02  0.1239388E+00
         21   -1    0    0  506  501  0.00000000000E+00  0.00000000000E+00  0.19269048294E+03  0.19269048294E+03  0.00000000000E+00 0. -1.
         21   -1    0    0  501  502 -0.00000000000E+00 -0.00000000000E+00 -0.31636423393E+03  0.31636423393E+03  0.00000000000E+00 0.  1.
         21    1    1    2  503  504 -0.52982758915E+02 -0.37683219193E+02 -0.15076926976E+03  0.16419065277E+03  0.00000000000E+00 0.  1.
         21    1    1    2  504  502 -0.23410575255E+02 -0.50044668750E+02 -0.99714540773E+02  0.11399786641E+03  0.00000000000E+00 0.  1.
         21    1    1    2  505  503  0.12310915045E+03  0.61789528962E+02  0.76945401046E+02  0.15777960437E+03  0.00000000000E+00 0. -1.
         21    1    1    2  506  505 -0.46715816278E+02  0.25938358981E+02  0.49864658493E+02  0.73086593325E+02  0.00000000000E+00 0. -1.
<scales pt_clust_3="30.77578" pt_clust_4="30.77578" pt_clust_5="117.63079" pt_clust_6="53.43375"></scales>
<clustering>
<clus scale="   30.776">  3  4 -1 -1</clus>
<clus scale="   53.434">  1  6  2 -1</clus>
<clus scale="  117.631">  1  5  2 -1</clus>
<clus scale="   53.434">  1  3  2 -1</clus>
</clustering>
</event>
<event>
 6    0  0.3042851E+002  0.1701727E+03  0.7546771E-02  0.1177668E+00
         21   -1    0    0  506  501  0.00000000000E+00  0.00000000000E+00  0.26943141890E+03  0.26943141890E+03  0.00000000000E+00 0. -1.
         21   -1    0    0  501  502 -0.00000000000E+00 -0.00000000000E+00 -0.11631869956E+04  0.11631869956E+04  0.00000000000E+00 0. -1.
         21    1    1    2  503  502 -0.94024049636E+01  0.52193866882E+02 -0.52854703592E+03  0.53120106753E+03  0.00000000000E+00 0. -1.
         21    1    1    2  504  503 -0.35610460140E+02  0.15622761997E+02 -0.46611458375E+03  0.46773387812E+03  0.00000000000E+00 0. -1.
         21    1    1    2  505  504 -0.29139281909E+02  0.10429580851E+03 -0.10806606100E+03  0.15298688494E+03  0.00000000000E+00 0. -1.
         21    1    1    2  506  505  0.74152147013E+02 -0.17211243739E+03  0.20897210395E+03  0.28069658394E+03  0.00000000000E+00 0. -1.
<scales pt_clust_3="92.29999" pt_clust_4="37.26639" pt_clust_5="170.17272" pt_clust_6="14000.00000"></scales>
<clustering>
<clus scale="   37.266">  3  4 -1 -1</clus>
<clus scale="   92.300">  2  3  1 -1</clus>
<clus scale="  170.173">  2  5  1 -1</clus>
<clus scale="  170.173">  1  3  2 -1</clus>
</clustering>
</event>
<event>
 6    0  0.3042851E+002  0.8913338E+02  0.7546771E-02  0.1304964E+00
         21   -1    0    0  503  501  0.00000000000E+00  0.00000000000E+00  0.34138208121E+02  0.34138208121E+02  0.00000000000E+00 0.  1.
         21   -1    0    0  505  502 -0.00000000000E+00 -0.00000000000E+00 -0.34320148168E+04  0.34320148168E+04  0.00000000000E+00 0.  1.
         21    1    1    2  503  506 -0.83883402663E+02 -0.37192921964E+02 -0.72531020660E+02  0.11696361676E+03  0.00000000000E+00 0.  1.
         21    1    1    2  504  502 -0.32519323961E+02  0.45949252750E+02 -0.26712680167E+04  0.26718610849E+04  0.00000000000E+00 0.  1.
         21    1    1    2  505  501  0.29572436126E+02 -0.17348629064E+02 -0.49253873277E+03  0.49373060183E+03  0.00000000000E+00 0. -1.
         21    1    1    2  506  504  0.86830290498E+02  0.85922982789E+01 -0.16153883863E+03  0.18359772145E+03  0.00000000000E+00 0. -1.
<scales pt_clust_3="14000.00000" pt_clust_4="30.70053" pt_clust_5="34.28562" pt_clust_6="89.13338"></scales>
<clustering>
<clus scale="   34.286">  2  5  1 -1</clus>
<clus scale="   30.701">  2  4  1 -1</clus>
<clus scale="   89.133">  2  6  1 -1</clus>
<clus scale="   89.133">  1  3  2 -1</clus>
</clustering>
</event>
<event>
 6    0  0.3042851E+002  0.1631291E+03  0.7546771E-02  0.1185209E+00
         21   -1    0    0  506  501  0.00000000000E+00  0.00000000000E+00  0.30653298741E+03  0.30653298741E+03  0.00000000000E+00 0.  1.
         21   -1    0    0  503  502 -0.00000000000E+00 -0.00000000000E+00 -0.66879578894E+03  0.66879578894E+03  0.00000000000E+00 0. -1.
         21    1    1    2  503  504  0.13854567827E+03  0.41695972024E+02 -0.53253501117E+03  0.55183964806E+03  0.00000000000E+00 0. -1.
         21    1    1    2  504  501 -0.82859178553E+02 -0.10705985763E+03  0.23852116883E+03  0.27426229155E+03  0.00000000000E+00 0.  1.
         21    1    1    2  505  502 -0.17198278038E+02  0.76320804134E+02 -0.75308965322E+02  0.10859137244E+03  0.00000000000E+00 0.  1.
         21    1    1    2  506  505 -0.38488221683E+02 -0.10956918524E+02  0.70600061289E+01  0.40635464295E+02  0.00000000000E+00 0.  1.
<scales pt_clust_3="14000.00000" pt_clust_4="163.12912" pt_clust_5="78.13881" pt_clust_6="40.01746"></scales>
<clustering>
<clus scale="   40.017">  1  6  2 -1</clus>
<clus scale="   78.139">  2  5  1 -1</clus>
<clus scale="  163.129">  1  4  2 -1</clus>
<clus scale="   40.017">  1  3  2 -1</clus>
</clustering>
</event>
<event>
 6    0  0.3042851E+002  0.1780401E+03  0.7546771E-02  0.1169713E+00
         21   -1    0    0  504  501  0.00000000000E+00  0.00000000000E+00  0.47781530425E+03  0.47781530425E+03  0.00000000000E+00 0. -1.
         21   -1    0    0  505  502 -0.00000000000E+00 -0.00000000000E+00 -0.10594788246E+03  0.10594788246E+03  0.00000000000E+00 0. -1.
         21    1    1    2  503  506 -0.81808161100E+01 -0.75180823396E+02  0.75004137140E+02  0.10651151368E+03  0.00000000000E+00 0. -1.
         21    1    1    2  504  502 -0.51903744179E+02 -0.11291830838E+02  0.24287725574E+02  0.58407171795E+02  0.00000000000E+00 0. -1.
         21    1    1    2  505  503  0.58831537089E+02  0.17469854630E+03  0.68752297139E+02  0.19674249719E+03  0.00000000000E+00 0. -1.
         21    1    1    2  506  501  0.12530232000E+01 -0.88225892070E+02  0.20382326193E+03  0.22210200405E+03  0.00000000000E+00 0. -1.
<scales pt_clust_3="55.56812" pt_clust_4="53.11783" pt_clust_5="167.94613" pt_clust_6="55.56812"></scales>
<clustering>
<clus scale="   53.118">  2  4  1 -1</clus>
<clus scale="   55.568">  3  6 -1 -1</clus>
<clus scale="  167.946">  2  5  1 -1</clus>
<clus scale="  178.040">  1  3  2 -1</clus>
</clustering>
</event>
<event>
 6    0  0.3042851E+002  0.6765375E+02  0.7546771E-02  0.1368258E+00
         21   -1    0    0  503  501  0.00000000000E+00  0.00000000000E+00  0.10110797888E+04  0.10110797888E+04  0.00000000000E+00 0.  1.
         21   -1    0    0  505  502 -0.00000000000E+00 -0.00000000000E+00 -0.13744932210E+03  0.13744932210E+03  0.00000000000E+00 0.  1.
         21    1    1    2  503  506 -0.27629994304E+02 -0.14569119464E+02  0.68303763551E+02  0.75107123114E+02  0.00000000000E+00 0. -1.
         21    1    1    2  504  501  0.57837792747E+02  0.32939527224E+02  0.85706402421E+03  0.85964467329E+03  0.00000000000E+00 0.  1.
         21    1    1    2  505  504  0.39439962673E+02  0.49744621249E+02 -0.89131543918E+02  0.10942792203E+03  0.00000000000E+00 0.  1.
         21    1    1    2  506  502 -0.69647761116E+02 -0.68115029009E+02  0.37394222862E+02  0.10434939247E+03  0.00000000000E+00 0.  1.
<scales pt_clust_3="31.23581" pt_clust_4="38.04448" pt_clust_5="14000.00000" pt_clust_6="67.65375"></scales>
<clustering>
<clus scale="   31.236">  1  3  2 -1</clus>
<clus scale="   38.044">  1  4  2 -1</clus>
<clus scale="   67.654">  1  6  2 -1</clus>
<clus scale="   31.236">  1  3  2 -1</clus>
</clustering>
</event>
<event>
 6    0  0.3042851E+002  0.7837838E+02  0.7546771E-02  0.1333717E+00
         21   -1    0    0  503  501  0.00000000000E+00  0.00000000000E+00  0.23679362515E+03  0.23679362515E+03  0.00000000000E+00 0.  1.
         21   -1    0    0  504  502 -0.00000000000E+00 -0.00000000000E+00 -0.82379317551E+02  0.82379317551E+02  0.00000000000E+00 0.  1.
         21    1    1    2  503  506 -0.75195432512E+02 -0.37459331377E+02  0.11700197619E+03  0.14403824843E+03  0.00000000000E+00 0.  1.
         21    1    1    2  504  505  0.63303172731E+02 -0.29544970289E+00  0.26242365197E+02  0.68527663753E+02  0.00000000000E+00 0.  1.
         21    1    1    2  505  501  0.49579862964E+02  0.45737779300E+02  0.56660031540E+01  0.67692029506E+02  0.00000000000E+00 0.  1.
         21    1    1    2  506  502 -0.37687603183E+02 -0.79829982197E+01  0.55039630525E+01  0.38915001009E+02  0.00000000000E+00 0.  1.
<scales pt_clust_3="14000.00000" pt_clust_4="51.25041" pt_clust_5="78.37838" pt_clust_6="38.52381"></scales>
<clustering>
<clus scale="   38.524">  2  6  1 -1</clus>
<clus scale="   51.250">  2  4  1 -1</clus>
<clus scale="   78.378">  2  5  1 -1</clus>
<clus scale="   78.378">  1  3  2 -1</clus>
</clustering>
</event>
<event>
 6    0  0.3042851E+002  0.6953573E+03  0.7546771E-02  0.9725205E-01
         21   -1    0    0  505  501  0.00000000000E+00  0.00000000000E+00  0.55347372147E+03  0.55347372147E+03  0.00000000000E+00 0.  1.
         21   -1    0    0  504  502 -0.00000000000E+00 -0.00000000000E+00 -0.95142750206E+03  0.95142750206E+03  0.00000000000E+00 0.  1.
         21    1    1    2  503  502 -0.40213954102E+03 -0.13025647807E+03 -0.27812725789E+03  0.50600171157E+03  0.00000000000E+00 0.  1.
         21    1    1    2  504  506  0.56153552599E+03  0.11296808733E+03  0.33837057100E+02  0.57378470016E+03  0.00000000000E+00 0.  1.
         21    1    1    2  505  503 -0.24133721035E+03  0.10770614535E+03 -0.14813587824E+03  0.30296617182E+03  0.00000000000E+00 0.  1.
         21    1    1    2  506  501  0.81941225378E+02 -0.90417754614E+02 -0.55277015624E+01  0.12214863999E+03  0.00000000000E+00 0.  1.
<scales pt_clust_3="687.55274" pt_clust_4="121.19805" pt_clust_5="190.68493" pt_clust_6="121.19805"></scales>
<clustering>
<clus scale="  121.198">  4  6 -1 -1</clus>
<clus scale="  190.685">  3  5 -1 -1</clus>
<clus scale="  687.553">  2  3  1 -1</clus>
<clus scale="  695.357">  1  3  2 -1</clus>
</clustering>
</event>
<event>
 6    0  0.3042851E+002  0.1206139E+03  0.7546771E-02  0.1242088E+00
         21   -1    0    0  506  501  0.00000000000E+00  0.00000000000E+00  0.48885322244E+02  0.48885322244E+02  0.00000000000E+00 0.  1.
         21   -1    0    0  505  502 -0.00000000000E+00 -0.00000000000E+00 -0.61175870947E+03  0.61175870947E+03  0.00000000000E+00 0. -1.
         21    1    1    2  503  501  0.50788031299E+02  0.40616214716E+02 -0.80318553038E+02  0.10334491271E+03  0.00000000000E+00 0.  1.
         21    1    1    2  504  502 -0.48846585212E+02 -0.54486447867E+02 -0.26880556895E+03  0.27858786008E+03  0.00000000000E+00 0. -1.
         21    1    1    2  505  503 -0.64950699321E+01  0.73488686478E+02 -0.20714164286E+02  0.76627994726E+02  0.00000000000E+00 0.  1.
         21    1    1    2  506  504  0.45536238454E+01 -0.59618453327E+02 -0.19303510096E+03  0.20208326420E+03  0.00000000000E+00 0. -1.
<scales pt_clust_3="65.03154" pt_clust_4="47.54153" pt_clust_5="108.54302" pt_clust_6="47.54153"></scales>
<clustering>
<clus scale="   47.542">  4  6 -1 -1</clus>
<clus scale="   65.032">  1  3  2 -1</clus>
<clus scale="  108.543">  1  5  2 -1</clus>
<clus scale="   65.032">  1  3  2 -1</clus>
</clustering>
</event>
<event>
 6    0  0.3042851E+002  0.1322105E+03  0.7546771E-02  0.1224212E+00
         21   -1    0    0  503  501  0.00000000000E+00  0.00000000000E+00  0.12139116284E+03  0.12139116284E+03  0.00000000000E+00 0.  1.
         21   -1    0    0  506  502 -0.00000000000E+00 -0.00000000000E+00 -0.61377128624E+03  0.61377128624E+03  0.00000000000E+00 0.  1.
         21    1    1    2  503  504  0.36344349114E+02 -0.18004400828E+01 -0.20147098768E+03  0.20473082859E+03  0.00000000000E+00 0.  1.
         21    1    1    2  504  502  0.73454632828E+02  0.61876334704E+02 -0.33750237315E+03  0.35090186058E+03  0.00000000000E+00 0.  1.
         21    1    1    2  505  501 -0.12147619478E+01 -0.64210393683E+02  0.10800763407E+02  0.65123780554E+02  0.00000000000E+00 0.  1.
         21    1    1    2  506  505 -0.10858421999E+03  0.41344990613E+01  0.35792474024E+02  0.11440597935E+03  0.00000000000E+00 0.  1.
<scales pt_clust_3="31.20744" pt_clust_4="31.20744" pt_clust_5="64.22188" pt_clust_6="122.10296"></scales>
<clustering>
<clus scale="   31.207">  3  4 -1 -1</clus>
<clus scale="   64.222">  1  5  2 -1</clus>
<clus scale="  122.103">  1  6  2 -1</clus>
<clus scale="   64.222">  1  3  2 -1</clus>
</clustering>
</event>
<event>
 6    0  0.3042851E+002  0.3205293E+03  0.7546771E-02  0.1075406E+00
         21   -1    0    0  506  501  0.00000000000E+00  0.00000000000E+00  0.23694685682E+03  0.23694685682E+03  0.00000000000E+00 0. -1.
         21   -1    0    0  503  502 -0.00000000000E+00 -0.00000000000E+00 -0.74787424260E+03  0.74787424260E+03  0.00000000000E+00 0. -1.
         21    1    1    2  503  505  0.83210240536E+02  0.15903719823E+03 -0.24389774583E+03  0.30282484206E+03  0.00000000000E+00 0. -1.
         21    1    1    2  504  502 -0.47384198627E+02 -0.13891903346E+03 -0.28973635162E+02  0.14961026593E+03  0.00000000000E+00 0.  1.
         21    1    1    2  505  501  0.27798279754E+01  0.12535278470E+03 -0.33205398971E+03  0.35493788211E+03  0.00000000000E+00 0. -1.
         21    1    1    2  506  504 -0.38605869884E+02 -0.14547094946E+03  0.93997984922E+02  0.17744810931E+03  0.00000000000E+00 0. -1.
<scales pt_clust_3="317.69702" pt_clust_4="118.77988" pt_clust_5="94.03883" pt_clust_6="118.77988"></scales>
<clustering>
<clus scale="   94.039">  3  5 -1 -1</clus>
<clus scale="  118.780">  4  6 -1 -1</clus>
<clus scale="  317.697">  2  3  1 -1</clus>
<clus scale="  320.529">  1  3  2 -1</clus>
</clustering>
</event>
<event>
 6    0  0.3042851E+002  0.1543131E+03  0.7546771E-02  0.1195271E+00
         21   -1    0    0  504  501  0.00000000000E+00  0.00000000000E+00  0.12630102183E+04  0.12630102183E+04  0.00000000000E+00 0.  1.
         21   -1    0    0  506  502 -0.00000000000E+00 -0.00000000000E+00 -0.13662088995E+03  0.13662088995E+03  0.00000000000E+00 0.  1.
         21    1    1    2  503  505  0.68921012228E+02  0.48196401832E+02  0.54103853272E+03  0.54753601979E+03  0.00000000000E+00 0.  1.
         21    1    1    2  504  503  0.30994550756E+02  0.59146225185E+02  0.53294912779E+03  0.53711610565E+03  0.00000000000E+00 0.  1.
         21    1    1    2  505  502  0.85072679511E+02 -0.20706149535E+01  0.56409806059E+02  0.10209659380E+03  0.00000000000E+00 0.  1.
         21    1    1    2  506  501 -0.18498824249E+03 -0.10527201206E+03 -0.40081382124E+01  0.21288238903E+03  0.00000000000E+00 0.  1.
<scales pt_clust_3="34.68478" pt_clust_4="34.68478" pt_clust_5="85.09787" pt_clust_6="149.32298"></scales>
<clustering>
<clus scale="   34.685">  3  4 -1 -1</clus>
<clus scale="   85.098">  2  5  1 -1</clus>
<clus scale="  149.323">  2  6  1 -1</clus>
<clus scale="  154.313">  1  3  2 -1</clus>
</clustering>
</event>
<event>
 6    0  0.3042851E+002  0.1231484E+03  0.7546771E-02  0.1237992E+00
         21   -1    0    0  504  501  0.00000000000E+00  0.00000000000E+00  0.18066321333E+03  0.18066321333E+03  0.00000000000E+00 0. -1.
         21   -1    0    0  505  502 -0.00000000000E+00 -0.00000000000E+00 -0.17653468393E+03  0.17653468393E+03  0.00000000000E+00 0.  1.
         21    1    1    2  503  506 -0.83373246015E+02 -0.78638857407E+01  0.71837693922E+02  0.11033400708E+03  0.00000000000E+00 0. -1.
         21    1    1    2  504  502  0.29888329029E+02  0.47160247896E+02 -0.24025873948E+02  0.60783581769E+02  0.00000000000E+00 0.  1.
         21    1    1    2  505  503  0.76319232938E+02  0.31874759629E+01 -0.90798322717E+02  0.11865547070E+03  0.00000000000E+00 0.  1.
         21    1    1    2  506  501 -0.22834315952E+02 -0.42483838118E+02  0.47115032142E+02  0.67424837708E+02  0.00000000000E+00 0. -1.
<scales pt_clust_3="45.74611" pt_clust_4="55.83369" pt_clust_5="107.38721" pt_clust_6="45.74611"></scales>
<clustering>
<clus scale="   45.746">  3  6 -1 -1</clus>
<clus scale="   55.834">  2  4  1 -1</clus>
<clus scale="  107.387">  2  5  1 -1</clus>
<clus scale="  123.148">  1  3  2 -1</clus>
</clustering>
</event>
<event>
 6    0  0.3042851E+002  0.9035748E+02  0.7546771E-02  0.1301988E+00
         21   -1    0    0  505  501  0.00000000000E+00  0.00000000000E+00  0.10932616513E+04  0.10932616513E+04  0.00000000000E+00 0.  1.
         21   -1    0    0  506  502 -0.00000000000E+00 -0.00000000000E+00 -0.58593618959E+02  0.58593618959E+02  0.00000000000E+00 0.  1.
         21    1    1    2  503  504  0.70758832340E+02  0.65854011148E+01  0.39033011854E+02  0.81078701743E+02  0.00000000000E+00 0.  1.
         21    1    1    2  504  501 -0.35531294098E+02 -0.87076488647E+02  0.46726775301E+03  0.47663816542E+03  0.00000000000E+00 0.  1.
         21    1    1    2  505  502 -0.61611340286E+02  0.34958498287E+02  0.53626609533E+03  0.54092455930E+03  0.00000000000E+00 0.  1.
         21    1    1    2  506  503  0.26383802044E+02  0.45532589246E+02 -0.78988278199E+01  0.53213843825E+02  0.00000000000E+00 0.  1.
<scales pt_clust_3="90.35748" pt_clust_4="14000.00000" pt_clust_5="70.93344" pt_clust_6="52.62435"></scales>
<clustering>
<clus scale="   52.624">  2  6  1 -1</clus>
<clus scale="   70.933">  1  5  2 -1</clus>
<clus scale="   90.357">  2  3  1 -1</clus>
<clus scale="   70.933">  1  3  2 -1</clus>
</clustering>
</event>
<event>
 6    0  0.3042851E+002  0.8942479E+02  0.7546771E-02  0.1304251E+00
         21   -1    0    0  506  501  0.00000000000E+00  0.00000000000E+00  0.11478765410E+03  0.11478765410E+03  0.00000000000E+00 0. -1.
         21   -1    0    0  505  502 -0.00000000000E+00 -0.00000000000E+00 -0.29315700418E+03  0.29315700418E+03  0.00000000000E+00 0.  1.
         21    1    1    2  503  501 -0.85072469064E+02  0.14382247797E+02 -0.17907144897E+03  0.19877313169E+03  0.00000000000E+00 0.  1.
         21    1    1    2  504  502  0.35802961938E+02 -0.49184075765E+00 -0.18392906213E+02  0.40254105254E+02  0.00000000000E+00 0. -1.
         21    1    1    2  505  503 -0.26436915055E+02  0.36024378700E+02 -0.40581989168E+02  0.60361943169E+02  0.00000000000E+00 0. -1.
         21    1    1    2  506  504  0.75706422181E+02 -0.49914785738E+02  0.59676994269E+02  0.10855547817E+03  0.00000000000E+00 0. -1.
<scales pt_clust_3="89.42479" pt_clust_4="35.80634" pt_clust_5="40.92267" pt_clust_6="14000.00000"></scales>
<clustering>
<clus scale="   35.806">  2  4  1 -1</clus>
<clus scale="   40.923">  2  5  1 -1</clus>
<clus scale="   89.425">  2  3  1 -1</clus>
<clus scale="   89.425">  1  3  2 -1</clus>
</clustering>
</event>
<event>
 6    0  0.3042851E+002  0.9806717E+02  0.7546771E-02  0.1284414E+00
         21   -1    0    0  504  501  0.00000000000E+00  0.00000000000E+00  0.19629678806E+03  0.19629678806E+03  0.00000000000E+00 0.  1.
         21   -1    0    0  501  502 -0.00000000000E+00 -0.00000000000E+00 -0.29613332948E+03  0.29613332948E+03  0.00000000000E+00 0.  1.
         21    1    1    2  503  505  0.10227159540E+03 -0.30272347814E+02  0.55997000722E+02  0.12046392969E+03  0.00000000000E+00 0.  1.
         21    1    1    2  504  503 -0.39876876846E+02 -0.30265099412E+02  0.92536621183E+02  0.10521011268E+03  0.00000000000E+00 0.  1.
         21    1    1    2  505  506 -0.54032120972E+02  0.23360281140E+02 -0.13957749286E+03  0.15148283515E+03  0.00000000000E+00 0.  1.
         21    1    1    2  506  502 -0.83625975796E+01  0.37177166086E+02 -0.10879267047E+03  0.11527324001E+03  0.00000000000E+00 0.  1.
<scales pt_clust_3="87.77236" pt_clust_4="50.06138" pt_clust_5="35.19202" pt_clust_6="35.19202"></scales>
<clustering>
<clus scale="   35.192">  5  6 -1 -1</clus>
<clus scale="   50.061">  1  4  2 -1</clus>
<clus scale="   87.772">  1  3  2 -1</clus>
<clus scale="   50.061">  1  3  2 -1</clus>
</clustering>
</event>
<event>
 6    0  0.3042851E+002  0.1898055E+03  0.7546771E-02  0.1158637E+00
         21   -1    0    0  502  501  0.00000000000E+00  0.00000000000E+00  0.30935732792E+03  0.30935732792E+03  0.00000000000E+00 0.  1.
         21   -1    0    0  504  502 -0.00000000000E+00 -0.00000000000E+00 -0.49999244153E+03  0.49999244153E+03  0.00000000000E+00 0. -1.
         21    1    1    2  503  505 -0.33139923592E+02 -0.93341471929E+02  0.17911264262E+03  0.20467589908E+03  0.00000000000E+00 0.  1.
         21    1    1    2  504  506  0.64528415612E+02  0.80239577256E+01 -0.17312976306E+03  0.18493840914E+03  0.00000000000E+00 0. -1.
         21    1    1    2  505  501  0.21167576032E+02 -0.80032380823E+02  0.65386095418E+02  0.10549213112E+03  0.00000000000E+00 0.  1.
         21    1    1    2  506  503 -0.52556068051E+02  0.16534989503E+03 -0.26200408859E+03  0.31424333010E+03  0.00000000000E+00 0. -1.
<scales pt_clust_3="72.81462" pt_clust_4="65.02538" pt_clust_5="72.81462" pt_clust_6="172.63656"></scales>
<clustering>
<clus scale="   65.025">  2  4  1 -1</clus>
<clus scale="   72.815">  3  5 -1 -1</clus>
<clus scale="  172.637">  2  6  1 -1</clus>
<clus scale="  189.805">  1  3  2 -1</clus>
</clustering>
</event>
<event>
 6    0  0.3042851E+002  0.1464593E+03  0.7546771E-02  0.1204892E+00
         21   -1    0    0  505  501  0.00000000000E+00  0.00000000000E+00  0.89090240639E+02  0.89090240639E+02  0.00000000000E+00 0.  1.
         21   -1    0    0  504  502 -0.00000000000E+00 -0.00000000000E+00 -0.29031091810E+03  0.29031091810E+03  0.00000000000E+00 0. -1.
         21    1    1    2  503  501 -0.16627265078E+02 -0.68408241722E+02 -0.70001159757E+02  0.99278979884E+02  0.00000000000E+00 0. -1.
         21    1    1    2  504  503  0.13638823731E+02 -0.70527133890E+02 -0.11108197400E+03  0.13228491628E+03  0.00000000000E+00 0. -1.
         21    1    1    2  505  506 -0.79416306806E+01  0.48401135670E+02 -0.27705111618E+02  0.56332163475E+02  0.00000000000E+00 0. -1.
         21    1    1    2  506  502  0.10930072027E+02  0.90534239941E+02  0.75675679187E+01  0.91505099096E+02  0.00000000000E+00 0.  1.
<scales pt_clust_3="38.58046" pt_clust_4="144.32857" pt_clust_5="33.91374" pt_clust_6="33.91374"></scales>
<clustering>
<clus scale="   33.914">  5  6 -1 -1</clus>
<clus scale="   38.580">  3  4 -1 -1</clus>
<clus scale="  144.329">  2  3  1 -1</clus>
<clus scale="  146.459">  1  3  2 -1</clus>
</clustering>
</event>
<event>
 6    0  0.3042851E+002  0.1334577E+03  0.7546771E-02  0.1222413E+00
         21   -1    0    0  505  501  0.00000000000E+00  0.00000000000E+00  0.22513015584E+03  0.22513015584E+03  0.00000000000E+00 0. -1.
         21   -1    0    0  501  502 -0.00000000000E+00 -0.00000000000E+00 -0.15949673866E+03  0.15949673866E+03  0.00000000000E+00 0.  1.
         21    1    1    2  503  506 -0.71050399850E+02  0.39012263435E+02  0.56444564314E+02  0.98772996602E+02  0.00000000000E+00 0. -1.
         21    1    1    2  504  502  0.29342485363E+02 -0.41647150857E+02  0.50211160549E+01  0.51192560282E+02  0.00000000000E+00 0.  1.
         21    1    1    2  505  503 -0.31851616411E+02  0.43307311827E+02  0.96087688792E+02  0.11010400839E+03  0.00000000000E+00 0. -1.
         21    1    1    2  506  504  0.73559530898E+02 -0.40672424404E+02 -0.91919951976E+02  0.12455732923E+03  0.00000000000E+00 0.  1.
<scales pt_clust_3="44.59249" pt_clust_4="50.94572" pt_clust_5="44.59249" pt_clust_6="121.70776"></scales>
<clustering>
<clus scale="   44.592">  3  5 -1 -1</clus>
<clus scale="   50.946">  2  4  1 -1</clus>
<clus scale="  121.708">  2  6  1 -1</clus>
<clus scale="  133.458">  1  3  2 -1</clus>
</clustering>
</event>
<event>
 6    0  0.3042851E+002  0.1374738E+03  0.7546771E-02  0.1216769E+00
         21   -1    0    0  506  501  0.00000000000E+00  0.00000000000E+00  0.10722594663E+04  0.10722594663E+04  0.00000000000E+00 0. -1.
         21   -1    0    0  503  502 -0.00000000000E+00 -0.00000000000E+00 -0.34282144753E+03  0.34282144753E+03  0.00000000000E+00 0.  1.
         21    1    1    2  503  504 -0.38020507327E+02  0.78554308116E+02 -0.26752937978E+03  0.28140417081E+03  0.00000000000E+00 0.  1.
         21    1    1    2  504  501  0.87188256923E+01  0.41492378352E+02 -0.56979788196E+02  0.71023458418E+02  0.00000000000E+00 0. -1.
         21    1    1    2  505  502  0.32278548080E+02 -0.29272801541E+02  0.27532368160E+03  0.27875066139E+03  0.00000000000E+00 0. -1.
         21    1    1    2  506  505 -0.29768664451E+01 -0.90773884927E+02  0.77862350519E+03  0.78390262326E+03  0.00000000000E+00 0. -1.
<scales pt_clust_3="41.99007" pt_clust_4="41.99007" pt_clust_5="38.92215" pt_clust_6="135.74731"></scales>
<clustering>
<clus scale="   38.922">  5  6 -1 -1</clus>
<clus scale="   41.990">  3  4 -1 -1</clus>
<clus scale="  135.747">  1  5  2 -1</clus>
<clus scale="  135.747">  1  3  2 -1</clus>
</clustering>
</event>
<event>
 6    0  0.3042851E+002  0.1156025E+03  0.7546771E-02  0.1250533E+00
         21   -1    0    0  503  501  0.00000000000E+00  0.00000000000E+00  0.25638089396E+04  0.25638089396E+04  0.00000000000E+00 0.  1.
         21   -1    0    0  506  502 -0.00000000000E+00 -0.00000000000E+00 -0.43452893115E+02  0.43452893115E+02  0.00000000000E+00 0.  1.
         21    1    1    2  503  505  0.10556921194E+02  0.32537345153E+02  0.18192833306E+04  0.18196048924E+04  0.00000000000E+00 0.  1.
         21    1    1    2  504  501 -0.27007972911E+02  0.20919408389E+02  0.37546198952E+03  0.37701294119E+03  0.00000000000E+00 0.  1.
         21    1    1    2  505  502  0.79644319602E+02 -0.10700750322E+03  0.90047980162E+02  0.16094241865E+03  0.00000000000E+00 0.  1.
         21    1    1    2  506  504 -0.63193267885E+02  0.53550749678E+02  0.23556274616E+03  0.24970158044E+03  0.00000000000E+00 0.  1.
<scales pt_clust_3="51.33615" pt_clust_4="34.16215" pt_clust_5="115.60255" pt_clust_6="14000.00000"></scales>
<clustering>
<clus scale="   34.162">  1  4  2 -1</clus>
<clus scale="   51.336">  1  3  2 -1</clus>
<clus scale="  115.603">  2  5  1 -1</clus>
<clus scale="   34.162">  1  3  2 -1</clus>
</clustering>
</event>
<event>
 6    0  0.3042851E+002  0.1568977E+03  0.7546771E-02  0.1192244E+00
         21   -1    0    0  504  501  0.00000000000E+00  0.00000000000E+00  0.11953455278E+04  0.11953455278E+04  0.00000000000E+00 0.  1.
         21   -1    0    0  503  502 -0.00000000000E+00 -0.00000000000E+00 -0.60170876118E+02  0.60170876118E+02  0.00000000000E+00 0.  1.
         21    1    1    2  503  506  0.84184932518E+02  0.93698836525E+02  0.21954364477E+03  0.25311259706E+03  0.00000000000E+00 0.  1.
         21    1    1    2  504  505 -0.29183495458E+02  0.16854198802E+02  0.17436088745E+03  0.17758789231E+03  0.00000000000E+00 0.  1.
         21    1    1    2  505  502 -0.96036271761E+02 -0.16024750849E+03  0.17856793052E+03  0.25843516649E+03  0.00000000000E+00 0.  1.
         21    1    1    2  506  501  0.41034834700E+02  0.49694473166E+02  0.56270218891E+03  0.56638074802E+03  0.00000000000E+00 0.  1.
<scales pt_clust_3="156.89775" pt_clust_4="33.70075" pt_clust_5="14000.00000" pt_clust_6="64.05480"></scales>
<clustering>
<clus scale="   33.701">  1  4  2 -1</clus>
<clus scale="   64.055">  1  6  2 -1</clus>
<clus scale="  156.898">  1  3  2 -1</clus>
<clus scale="   33.701">  1  3  2 -1</clus>
</clustering>
</event>
<event>
 6    0  0.3042851E+002  0.1193323E+03  0.7546771E-02  0.1244203E+00
         21   -1    0    0  506  501  0.00000000000E+00  0.00000000000E+00  0.13943052754E+04  0.13943052754E+04  0.00000000000E+00 0. -1.
         21   -1    0    0  505  502 -0.00000000000E+00 -0.00000000000E+00 -0.18572869465E+02  0.18572869465E+02  0.00000000000E+00 0. -1.
         21    1    1    2  503  501 -0.38908971720E+02  0.48711298917E+02  0.39019755210E+03  0.39514659101E+03  0.00000000000E+00 0.  1.
         21    1    1    2  504  502  0.73392265486E+02  0.25868933295E+02  0.31767901857E+03  0.32707122341E+03  0.00000000000E+00 0. -1.
         21    1    1    2  505  503 -0.72655442459E+02 -0.80837099481E+02  0.27189410713E+03  0.29281368729E+03  0.00000000000E+00 0. -1.
         21    1    1    2  506  504  0.38172148693E+02  0.62568672695E+01  0.39596172812E+03  0.39784664314E+03  0.00000000000E+00 0. -1.
<scales pt_clust_3="62.34339" pt_clust_4="36.93287" pt_clust_5="107.21980" pt_clust_6="36.93287"></scales>
<clustering>
<clus scale="   36.933">  4  6 -1 -1</clus>
<clus scale="   62.343">  1  3  2 -1</clus>
<clus scale="  107.220">  2  5  1 -1</clus>
<clus scale="   62.343">  1  3  2 -1</clus>
</clustering>
</event>
<event>
 6    0  0.3042851E+002  0.1329030E+03  0.7546771E-02  0.1223211E+00
         21   -1    0    0  502  501  0.00000000000E+00  0.00000000000E+00  0.51249515179E+03  0.51249515179E+03  0.00000000000E+00 0. -1.
         21   -1    0    0  503  502 -0.00000000000E+00 -0.00000000000E+00 -0.19699657684E+03  0.19699657684E+03  0.00000000000E+00 0. -1.
         21    1    1    2  503  506  0.11160219814E+02  0.40231678181E+02 -0.22423911482E+02  0.47391668484E+02  0.00000000000E+00 0. -1.
         21    1    1    2  504  505  0.35218076477E+02 -0.90565666939E+02  0.38160205320E+03  0.39377986229E+03  0.00000000000E+00 0. -1.
         21    1    1    2  505  501 -0.29329516804E+02 -0.32557989640E+02  0.95702904669E+02  0.10525820257E+03  0.00000000000E+00 0.  1.
         21    1    1    2  506  504 -0.17048779488E+02  0.82891978399E+02 -0.13938247144E+03  0.16306199529E+03  0.00000000000E+00 0. -1.
<scales pt_clust_3="37.92470" pt_clust_4="121.44087" pt_clust_5="43.82058" pt_clust_6="37.92470"></scales>
<clustering>
<clus scale="   37.925">  3  6 -1 -1</clus>
<clus scale="   43.821">  1  5  2 -1</clus>
<clus scale="  121.441">  1  4  2 -1</clus>
<clus scale="   43.821">  1  3  2 -1</clus>
</clustering>
</event>
<event>
 6    0  0.3042851E+002  0.5762077E+02  0.7546771E-02  0.1408096E+00
         21   -1    0    0  503  501  0.00000000000E+00  0.00000000000E+00  0.75773976348E+03  0.75773976348E+03  0.00000000000E+00 0.  1.
         21   -1    0    0  504  502 -0.00000000000E+00 -0.00000000000E+00 -0.86489812210E+03  0.86489812210E+03  0.00000000000E+00 0.  1.
         21    1    1    2  503  505 -0.90690071309E+02 -0.97338714001E+01  0.64475664119E+03  0.65117629230E+03  0.00000000000E+00 0.  1.
         21    1    1    2  504  506  0.63642697225E+02  0.73478083438E+02 -0.72806596504E+03  0.73452669870E+03  0.00000000000E+00 0.  1.
         21    1    1    2  505  502 -0.13369770050E+02 -0.46647831791E+02 -0.12098061176E+03  0.13034983461E+03  0.00000000000E+00 0. -1.
         21    1    1    2  506  501  0.40417144134E+02 -0.17096380248E+02  0.97131576990E+02  0.10658505996E+03  0.00000000000E+00 0.  1.
<scales pt_clust_3="14000.00000" pt_clust_4="57.62077" pt_clust_5="48.56483" pt_clust_6="43.88430"></scales>
<clustering>
<clus scale="   43.884">  1  6  2 -1</clus>
<clus scale="   48.565">  2  5  1 -1</clus>
<clus scale="   57.621">  2  4  1 -1</clus>
<clus scale="   43.884">  1  3  2 -1</clus>
</clustering>
</event>
<event>
 6    0  0.3042851E+002  0.1258294E+03  0.7546771E-02  0.1233779E+00
         21   -1    0    0  504  501  0.00000000000E+00  0.00000000000E+00  0.27079327726E+03  0.27079327726E+03  0.00000000000E+00 0. -1.
         21   -1    0    0  503  502 -0.00000000000E+00 -0.00000000000E+00 -0.35024983311E+03  0.35024983311E+03  0.00000000000E+00 0. -1.
         21    1    1    2  503  506 -0.73217967979E+02 -0.67716125958E+02 -0.16038256711E+03  0.18886215180E+03  0.00000000000E+00 0. -1.
         21    1    1    2  504  505  0.75872981158E+02  0.75617015913E+02  0.87125628283E+02  0.13807793984E+03  0.00000000000E+00 0. -1.
         21    1    1    2  505  502  0.10584072872E+03 -0.74841118027E+02 -0.74462340339E+02  0.14949278555E+03  0.00000000000E+00 0. -1.
         21    1    1    2  506  501 -0.10849574190E+03  0.66940228071E+02  0.68262723323E+02  0.14461023318E+03  0.00000000000E+00 0. -1.
<scales pt_clust_3="99.73136" pt_clust_4="92.66458" pt_clust_5="125.82935" pt_clust_6="14000.00000"></scales>
<clustering>
<clus scale="   99.731">  2  3  1 -1</clus>
<clus scale="   92.665">  1  4  2 -1</clus>
<clus scale="  125.829">  2  5  1 -1</clus>
<clus scale="   92.665">  1  3  2 -1</clus>
</clustering>
</event>
<event>
 6    0  0.3042851E+002  0.1055310E+03  0.7546771E-02  0.1269077E+00
         21   -1    0    0  506  501  0.00000000000E+00  0.00000000000E+00  0.59820187543E+03  0.59820187543E+03  0.00000000000E+00 0.  1.
         21   -1    0    0  505  502 -0.00000000000E+00 -0.00000000000E+00 -0.20286501266E+03  0.20286501266E+03  0.00000000000E+00 0.  1.
         21    1    1    2  503  501  0.40716724436E+01  0.11168357272E+03  0.47976222330E+03  0.49260693239E+03  0.00000000000E+00 0.  1.
         21    1    1    2  504  503  0.48895353747E+02 -0.56067419753E+02 -0.13304414688E+03  0.15243049628E+03  0.00000000000E+00 0.  1.
         21    1    1    2  505  504 -0.21169796959E+02 -0.48439981623E+02 -0.36926693052E+02  0.64483895530E+02  0.00000000000E+00 0. -1.
         21    1    1    2  506  502 -0.31797229232E+02 -0.71761713395E+01  0.85545479407E+02  0.91545563896E+02  0.00000000000E+00 0.  1.
<scales pt_clust_3="105.53098" pt_clust_4="14000.00000" pt_clust_5="53.39065" pt_clust_6="32.59695"></scales>
<clustering>
<clus scale="   32.597">  1  6  2 -1</clus>
<clus scale="   53.391">  2  5  1 -1</clus>
<clus scale="  105.531">  1  3  2 -1</clus>
<clus scale="   32.597">  1  3  2 -1</clus>
</clustering>
</event>
<event>
 6    0  0.3042851E+002  0.1450648E+03  0.7546771E-02  0.1206672E+00
         21   -1    0    0  506  501  0.00000000000E+00  0.00000000000E+00  0.32700048400E+04  0.32700048400E+04  0.00000000000E+00 0. -1.
         21   -1    0    0  505  502 -0.00000000000E+00 -0.00000000000E+00 -0.63735201700E+01  0.63735201700E+01  0.00000000000E+00 0. -1.
         21    1    1    2  503  502  0.74946710779E+02 -0.32946527109E+02  0.81010271688E+03  0.81422901876E+03  0.00000000000E+00 0. -1.
         21    1    1    2  504  501 -0.23885552620E+02  0.42032115628E+02  0.34468346005E+03  0.34805733149E+03  0.00000000000E+00 0. -1.
         21    1    1    2  505  504 -0.90365122304E+02  0.22254506489E+02  0.10732215799E+04  0.10772491253E+04  0.00000000000E+00 0. -1.
         21    1    1    2  506  503  0.39303964145E+02 -0.31340095007E+02  0.10356235629E+04  0.10368428846E+04  0.00000000000E+00 0. -1.
<scales pt_clust_3="140.57628" pt_clust_4="44.76634" pt_clust_5="44.76634" pt_clust_6="39.76862"></scales>
<clustering>
<clus scale="   39.769">  3  6 -1 -1</clus>
<clus scale="   44.766">  4  5 -1 -1</clus>
<clus scale="  140.576">  1  3  2 -1</clus>
<clus scale="  140.576">  1  3  2 -1</clus>
</clustering>
</event>
<event>
 6    0  0.3042851E+002  0.8649854E+02  0.7546771E-02  0.1311560E+00
         21   -1    0    0  503  501  0.00000000000E+00  0.00000000000E+00  0.18197574588E+03  0.18197574588E+03  0.00000000000E+00 0.  1.
         21   -1    0    0  505  502 -0.00000000000E+00 -0.00000000000E+00 -0.33658146366E+03  0.33658146366E+03  0.00000000000E+00 0. -1.
         21    1    1    2  503  504 -0.23058478031E+02  0.37536937180E+02 -0.78027124544E+01  0.44739215277E+02  0.00000000000E+00 0. -1.
         21    1    1    2  504  506  0.32015401376E+02 -0.30665474140E+02 -0.88172099089E+01  0.45200668358E+02  0.00000000000E+00 0.  1.
         21    1    1    2  505  501  0.69926226158E+02 -0.42967795888E+02  0.12620730226E+03  0.15054631092E+03  0.00000000000E+00 0.  1.
         21    1    1    2  506  502 -0.78883149502E+02  0.36096332848E+02 -0.26419309767E+03  0.27807101499E+03  0.00000000000E+00 0. -1.
<scales pt_clust_3="44.05355" pt_clust_4="39.61026" pt_clust_5="14000.00000" pt_clust_6="86.49854"></scales>
<clustering>
<clus scale="   44.054">  1  3  2 -1</clus>
<clus scale="   39.610">  1  4  2 -1</clus>
<clus scale="   86.499">  2  6  1 -1</clus>
<clus scale="   44.054">  1  3  2 -1</clus>
</clustering>
</event>
<event>
 6    0  0.3042851E+002  0.7138708E+02  0.7546771E-02  0.1355439E+00
         21   -1    0    0  505  501  0.00000000000E+00  0.00000000000E+00  0.16842815358E+04  0.16842815358E+04  0.00000000000E+00 0. -1.
         21   -1    0    0  506  502 -0.00000000000E+00 -0.00000000000E+00 -0.34885188530E+02  0.34885188530E+02  0.00000000000E+00 0. -1.
         21    1    1    2  503  502  0.51009134215E+01 -0.92535674769E+02  0.81130369451E+02  0.12317064289E+03  0.00000000000E+00 0. -1.
         21    1    1    2  504  501 -0.17841006649E+01  0.45143396900E+02  0.33717868613E+03  0.34019196886E+03  0.00000000000E+00 0. -1.
         21    1    1    2  505  503 -0.53853992371E+02  0.77333883582E+01  0.11547599119E+04  0.11560408781E+04  0.00000000000E+00 0. -1.
         21    1    1    2  506  504  0.50537179614E+02  0.39658889511E+02  0.76327379786E+02  0.99763234438E+02  0.00000000000E+00 0. -1.
<scales pt_clust_3="71.38708" pt_clust_4="45.17864" pt_clust_5="14000.00000" pt_clust_6="66.01564"></scales>
<clustering>
<clus scale="   45.179">  1  4  2 -1</clus>
<clus scale="   66.016">  2  6  1 -1</clus>
<clus scale="   71.387">  2  3  1 -1</clus>
<clus scale="   45.179">  1  3  2 -1</clus>
</clustering>
</event>
<event>
 6    0  0.3042851E+002  0.1151747E+03  0.7546771E-02  0.1251277E+00
         21   -1    0    0  506  501  0.00000000000E+00  0.00000000000E+00  0.11390501512E+03  0.11390501512E+03  0.00000000000E+00 0.  1.
         21   -1    0    0  504  502 -0.00000000000E+00 -0.00000000000E+00 -0.75804287907E+03  0.75804287907E+03  0.00000000000E+00 0. -1.
         21    1    1    2  503  501 -0.29938865886E+02 -0.63190686680E+02 -0.31563192946E+03  0.32328457042E+03  0.00000000000E+00 0. -1.
         21    1    1    2  504  503 -0.20143434032E+01 -0.46509036946E+02 -0.37433402037E+03  0.37721758563E+03  0.00000000000E+00 0. -1.
         21    1    1    2  505  502 -0.32758897381E+02  0.74090728697E+02 -0.59724047291E+01  0.81229619319E+02  0.00000000000E+00 0.  1.
         21    1    1    2  506  505  0.64712106669E+02  0.35608994928E+02  0.51800490607E+02  0.90216118828E+02  0.00000000000E+00 0. -1.
<scales pt_clust_3="32.58883" pt_clust_4="32.58883" pt_clust_5="108.02770" pt_clust_6="73.86242"></scales>
<clustering>
<clus scale="   32.589">  3  4 -1 -1</clus>
<clus scale="   73.862">  1  6  2 -1</clus>
<clus scale="  108.028">  1  5  2 -1</clus>
<clus scale="   73.862">  1  3  2 -1</clus>
</clustering>
</event>
<event>
 6    0  0.3042851E+002  0.1596473E+03  0.7546771E-02  0.1189096E+00
         21   -1    0    0  503  501  0.00000000000E+00  0.00000000000E+00  0.54746503680E+03  0.54746503680E+03  0.00000000000E+00 0.  1.
         21   -1    0    0  506  502 -0.00000000000E+00 -0.00000000000E+00 -0.85996860399E+03  0.85996860399E+03  0.00000000000E+00 0.  1.
         21    1    1    2  503  505  0.54336623219E+02 -0.16722120419E+03  0.44575685991E+02  0.18139016383E+03  0.00000000000E+00 0.  1.
         21    1    1    2  504  501 -0.97296649725E+02  0.12455641709E+03  0.41845765308E+03  0.44731168832E+03  0.00000000000E+00 0.  1.
         21    1    1    2  505  502  0.12325137527E+02  0.37269705031E+02 -0.41127148474E+03  0.41314062265E+03  0.00000000000E+00 0.  1.
         21    1    1    2  506  504  0.30634888980E+02  0.53950820627E+01 -0.36426542152E+03  0.36559116599E+03  0.00000000000E+00 0.  1.
<scales pt_clust_3="14000.00000" pt_clust_4="159.64729" pt_clust_5="56.35135" pt_clust_6="31.10632"></scales>
<clustering>
<clus scale="   31.106">  2  6  1 -1</clus>
<clus scale="   56.351">  2  5  1 -1</clus>
<clus scale="  159.647">  1  4  2 -1</clus>
<clus scale="  159.647">  1  3  2 -1</clus>
</clustering>
</event>
<event>
 6    0  0.3042851E+002  0.1327340E+03  0.7546771E-02  0.1223454E+00
         21   -1    0    0  505  501  0.00000000000E+00  0.00000000000E+00  0.10498941371E+04  0.10498941371E+04  0.00000000000E+00 0.  1.
         21   -1    0    0  503  502 -0.00000000000E+00 -0.00000000000E+00 -0.16942135734E+03  0.16942135734E+03  0.00000000000E+00 0.  1.
         21    1    1    2  503  504  0.35659797673E+02 -0.32863484427E+02  0.42691057901E+02  0.64607710093E+02  0.00000000000E+00 0. -1.
         21    1    1    2  504  501  0.11659175985E+03 -0.64666424406E+02  0.92415676126E+03  0.93372431921E+03  0.00000000000E+00 0.  1.
         21    1    1    2  505  506 -0.11178227568E+03  0.40959439846E+02 -0.93061484132E+02  0.15110722252E+03  0.00000000000E+00 0.  1.
         21    1    1    2  506  502 -0.40469281842E+02  0.56570468986E+02  0.66864446944E+01  0.69876242578E+02  0.00000000000E+00 0. -1.
<scales pt_clust_3="48.49361" pt_clust_4="14000.00000" pt_clust_5="132.73401" pt_clust_6="60.12194"></scales>
<clustering>
<clus scale="   48.494">  2  3  1 -1</clus>
<clus scale="   60.122">  2  6  1 -1</clus>
<clus scale="  132.734">  2  5  1 -1</clus>
<clus scale="  132.734">  1  3  2 -1</clus>
</clustering>
</event>
<event>
 6    0  0.3042851E+002  0.8270627E+02  0.7546771E-02  0.1321542E+00
         21   -1    0    0  505  501  0.00000000000E+00  0.00000000000E+00  0.31309267367E+03  0.31309267367E+03  0.00000000000E+00 0. -1.
         21   -1    0    0  506  502 -0.00000000000E+00 -0.00000000000E+00 -0.46638274816E+03  0.46638274816E+03  0.00000000000E+00 0. -1.
         21    1    1    2  503  502  0.71976009285E+02 -0.15695300005E+02 -0.36813731964E+03  0.37543571283E+03  0.00000000000E+00 0. -1.
         21    1    1    2  504  501  0.33525574623E+02  0.40126030914E+02  0.14392123152E+03  0.15312538455E+03  0.00000000000E+00 0. -1.
         21    1    1    2  505  503 -0.10298455599E+03  0.54841558945E+01  0.14099398871E+03  0.17468600285E+03  0.00000000000E+00 0. -1.
         21    1    1    2  506  504 -0.25170279197E+01 -0.29914886804E+02 -0.70067975084E+02  0.76228321603E+02  0.00000000000E+00 0. -1.
<scales pt_clust_3="82.70627" pt_clust_4="52.00110" pt_clust_5="14000.00000" pt_clust_6="30.02059"></scales>
<clustering>
<clus scale="   30.021">  2  6  1 -1</clus>
<clus scale="   52.001">  1  4  2 -1</clus>
<clus scale="   82.706">  2  3  1 -1</clus>
<clus scale="   52.001">  1  3  2 -1</clus>
</clustering>
</event>
<event>
 6    0  0.3042851E+002  0.1444783E+03  0.7546771E-02  0.1207427E+00
         21   -1    0    0  505  501  0.00000000000E+00  0.00000000000E+00  0.23892514762E+03  0.23892514762E+03  0.00000000000E+00 0. -1.
         21   -1    0    0  501  502 -0.00000000000E+00 -0.00000000000E+00 -0.23317275679E+03  0.23317275679E+03  0.00000000000E+00 0. -1.
         21    1    1    2  503  504 -0.51299503304E+02  0.77322531861E+02  0.16601997101E+03  0.19019212325E+03  0.00000000000E+00 0. -1.
         21    1    1    2  504  506  0.55707153296E+02 -0.67392379845E+02 -0.10628104930E+03  0.13762514752E+03  0.00000000000E+00 0. -1.
         21    1    1    2  505  503  0.51143576482E+00  0.42509266596E+02  0.25019166595E+02  0.49328065137E+02  0.00000000000E+00 0.  1.
         21    1    1    2  506  502 -0.49190857571E+01 -0.52439418612E+02 -0.79005697488E+02  0.94952568499E+02  0.00000000000E+00 0.  1.
<scales pt_clust_3="42.45876" pt_clust_4="140.57459" pt_clust_5="42.45876" pt_clust_6="41.23100"></scales>
<clustering>
<clus scale="   41.231">  4  6 -1 -1</clus>
<clus scale="   42.459">  3  5 -1 -1</clus>
<clus scale="  140.575">  2  4  1 -1</clus>
<clus scale="  144.478">  1  3  2 -1</clus>
</clustering>
</event>
<event>
 6    0  0.3042851E+002  0.5669038E+02  0.7546771E-02  0.1412270E+00
         21   -1    0    0  505  501  0.00000000000E+00  0.00000000000E+00  0.49874548519E+03  0.49874548519E+03  0.00000000000E+00 0. -1.
         21   -1    0    0  506  502 -0.00000000000E+00 -0.00000000000E+00 -0.58243194238E+02  0.58243194238E+02  0.00000000000E+00 0.  1.
         21    1    1    2  503  501 -0.93790708735E+01 -0.72969522009E+02  0.20035268948E+03  0.21343317056E+03  0.00000000000E+00 0. -1.
         21    1    1    2  504  502 -0.37639819186E+02  0.27074079479E+02  0.24973070119E+02  0.52663231947E+02  0.00000000000E+00 0.  1.
         21    1    1    2  505  504 -0.33491627293E+02  0.41356069741E+02  0.20236152160E+03  0.20924196287E+03  0.00000000000E+00 0. -1.
         21    1    1    2  506  503  0.80510517352E+02  0.45393727880E+01  0.12815009756E+02  0.81650314052E+02  0.00000000000E+00 0.  1.
<scales pt_clust_3="55.74213" pt_clust_4="46.36552" pt_clust_5="56.69038" pt_clust_6="14000.00000"></scales>
<clustering>
<clus scale="   46.366">  2  4  1 -1</clus>
<clus scale="   56.690">  1  5  2 -1</clus>
<clus scale="   55.742">  1  3  2 -1</clus>
<clus scale="   56.690">  1  3  2 -1</clus>
</clustering>
</event>
<event>
 6    0  0.3042851E+002  0.2360235E+03  0.7546771E-02  0.1122471E+00
         21   -1    0    0  506  501  0.00000000000E+00  0.00000000000E+00  0.59485317672E+03  0.59485317672E+03  0.00000000000E+00 0. -1.
         21   -1    0    0  504  502 -0.00000000000E+00 -0.00000000000E+00 -0.36293740384E+03  0.36293740384E+03  0.00000000000E+00 0. -1.
         21    1    1    2  503  501 -0.31805778044E+02  0.22212996481E+03  0.30898524253E+03  0.38187067037E+03  0.00000000000E+00 0. -1.
         21    1    1    2  504  503  0.63673986675E+02 -0.24437915642E+02 -0.75394819571E+02  0.10166595850E+03  0.00000000000E+00 0. -1.
         21    1    1    2  505  502 -0.62999288874E+02  0.60534178950E+02 -0.15091664622E+03  0.17438214165E+03  0.00000000000E+00 0. -1.
         21    1    1    2  506  505  0.31131080243E+02 -0.25822622811E+03  0.14924199614E+03  0.29987181004E+03  0.00000000000E+00 0. -1.
<scales pt_clust_3="14000.00000" pt_clust_4="68.20255" pt_clust_5="52.52117" pt_clust_6="236.02351"></scales>
<clustering>
<clus scale="   68.203">  2  4  1 -1</clus>
<clus scale="   52.521">  2  5  1 -1</clus>
<clus scale="  236.024">  2  6  1 -1</clus>
<clus scale="  236.024">  1  3  2 -1</clus>
</clustering>
</event>
<event>
 6    0  0.3042851E+002  0.1014898E+03  0.7546771E-02  0.1277194E+00
         21   -1    0    0  504  501  0.00000000000E+00  0.00000000000E+00  0.82631661749E+02  0.82631661749E+02  0.00000000000E+00 0. -1.
         21   -1    0    0  505  502 -0.00000000000E+00 -0.00000000000E+00 -0.65304172089E+03  0.65304172089E+03  0.00000000000E+00 0. -1.
         21    1    1    2  503  501  0.71217304292E+02  0.41381535253E+02  0.18425494555E+02  0.84402812395E+02  0.00000000000E+00 0. -1.
         21    1    1    2  504  506 -0.62972887124E+02 -0.64076582609E+02 -0.68486650479E+02  0.11296820015E+03  0.00000000000E+00 0. -1.
         21    1    1    2  505  503  0.26159771411E+02  0.60308960950E+02 -0.42619480087E+03  0.43123486953E+03  0.00000000000E+00 0. -1.
         21    1    1    2  506  502 -0.34404188580E+02 -0.37613913594E+02 -0.94154102346E+02  0.10706750056E+03  0.00000000000E+00 0. -1.
<scales pt_clust_3="90.33128" pt_clust_4="34.84926" pt_clust_5="65.73815" pt_clust_6="34.84926"></scales>
<clustering>
<clus scale="   34.849">  4  6 -1 -1</clus>
<clus scale="   65.738">  2  5  1 -1</clus>
<clus scale="   90.331">  1  3  2 -1</clus>
<clus scale="   90.331">  1  3  2 -1</clus>
</clustering>
</event>
<event>
 6    0  0.3042851E+002  0.3773841E+03  0.7546771E-02  0.1051905E+00
         21   -1    0    0  503  501  0.00000000000E+00  0.00000000000E+00  0.94600027902E+03  0.94600027902E+03  0.00000000000E+00 0. -1.
         21   -1    0    0  505  502 -0.00000000000E+00 -0.00000000000E+00 -0.47224068603E+03  0.47224068603E+03  0.00000000000E+00 0. -1.
         21    1    1    2  503  506  0.10406859137E+03  0.67654299797E+02  0.38109115983E+03  0.40079651707E+03  0.00000000000E+00 0. -1.
         21    1    1    2  504  501 -0.23037385751E+03 -0.13908810847E+03 -0.19340283192E+03  0.33139443498E+03  0.00000000000E+00 0. -1.
         21    1    1    2  505  504 -0.94618414562E+02 -0.73106476470E+01 -0.15773458553E+03  0.18408228980E+03  0.00000000000E+00 0. -1.
         21    1    1    2  506  502  0.22092368070E+03  0.78744456320E+02  0.44380585062E+03  0.50196772320E+03  0.00000000000E+00 0. -1.
<scales pt_clust_3="62.89983" pt_clust_4="73.61328" pt_clust_5="73.61328" pt_clust_6="366.78086"></scales>
<clustering>
<clus scale="   62.900">  3  6 -1 -1</clus>
<clus scale="   73.613">  4  5 -1 -1</clus>
<clus scale="  366.781">  1  3  2 -1</clus>
<clus scale="  366.781">  1  3  2 -1</clus>
</clustering>
</event>
<event>
 6    0  0.3042851E+002  0.7824837E+02  0.7546771E-02  0.1334097E+00
         21   -1    0    0  503  501  0.00000000000E+00  0.00000000000E+00  0.84095589950E+02  0.84095589950E+02  0.00000000000E+00 0. -1.
         21   -1    0    0  504  502 -0.00000000000E+00 -0.00000000000E+00 -0.15419865202E+04  0.15419865202E+04  0.00000000000E+00 0.  1.
         21    1    1    2  503  505 -0.84579197215E+01  0.68078031693E+02 -0.22800808138E+02  0.72291297242E+02  0.00000000000E+00 0. -1.
         21    1    1    2  504  506  0.32645257424E+02 -0.46441840288E+02 -0.18902386601E+03  0.19736407800E+03  0.00000000000E+00 0.  1.
         21    1    1    2  505  502 -0.88072260274E+02 -0.19761520327E+02 -0.12806027785E+04  0.12837798554E+04  0.00000000000E+00 0.  1.
         21    1    1    2  506  501  0.63884922571E+02 -0.18746710784E+01  0.34536522428E+02  0.72646879527E+02  0.00000000000E+00 0. -1.
<scales pt_clust_3="78.24837" pt_clust_4="56.76757" pt_clust_5="14000.00000" pt_clust_6="64.39587"></scales>
<clustering>
<clus scale="   56.768">  2  4  1 -1</clus>
<clus scale="   64.396">  1  6  2 -1</clus>
<clus scale="   78.248">  1  3  2 -1</clus>
<clus scale="   64.396">  1  3  2 -1</clus>
</clustering>
</event>
<event>
 6    0  0.3042851E+002  0.1147765E+03  0.7546771E-02  0.1251972E+00
         21   -1    0    0  505  501  0.00000000000E+00  0.00000000000E+00  0.44372487554E+03  0.44372487554E+03  0.00000000000E+00 0.  1.
         21   -1    0    0  504  502 -0.00000000000E+00 -0.00000000000E+00 -0.90059791858E+03  0.90059791858E+03  0.00000000000E+00 0.  1.
         21    1    1    2  503  502  0.27692506477E+02  0.59212422791E+02 -0.57309186006E+03  0.57680782414E+03  0.00000000000E+00 0.  1.
         21    1    1    2  504  501  0.56528855452E+02  0.33549508254E+02  0.64230404340E+02  0.91905526735E+02  0.00000000000E+00 0.  1.
         21    1    1    2  505  506 -0.13027441379E+03 -0.10290563012E+03  0.34286093280E+03  0.38093911697E+03  0.00000000000E+00 0.  1.
         21    1    1    2  506  503  0.46053051863E+02  0.10143699071E+02 -0.29087252013E+03  0.29467032627E+03  0.00000000000E+00 0.  1.
<scales pt_clust_3="44.87173" pt_clust_4="65.73493" pt_clust_5="101.89510" pt_clust_6="44.87173"></scales>
<clustering>
<clus scale="   44.872">  3  6 -1 -1</clus>
<clus scale="   65.735">  1  4  2 -1</clus>
<clus scale="  101.895">  1  5  2 -1</clus>
<clus scale="   65.735">  1  3  2 -1</clus>
</clustering>
</event>
<event>
 6    0  0.3042851E+002  0.1329028E+03  0.7546771E-02  0.1223211E+00
         21   -1    0    0  505  501  0.00000000000E+00  0.00000000000E+00  0.42069315048E+02  0.42069315048E+02  0.00000000000E+00 0. -1.
         21   -1    0    0  504  502 -0.00000000000E+00 -0.00000000000E+00 -0.19978993287E+04  0.19978993287E+04  0.00000000000E+00 0. -1.
         21    1    1    2  503  502  0.20458950075E+02 -0.23551271016E+02 -0.14440475549E+03  0.14773613103E+03  0.00000000000E+00 0. -1.
         21    1    1    2  504  506  0.44744436496E+02 -0.94070583787E+02 -0.15796904045E+04  0.15831213199E+04  0.00000000000E+00 0. -1.
         21    1    1    2  505  503 -0.15723692193E+02 -0.35240117281E+02 -0.76588796160E+02  0.85760970490E+02  0.00000000000E+00 0. -1.
         21    1    1    2  506  501 -0.49479694378E+02  0.15286197208E+03 -0.15514605746E+03  0.22335022232E+03  0.00000000000E+00 0. -1.
<scales pt_clust_3="31.19665" pt_clust_4="132.90282" pt_clust_5="39.18583" pt_clust_6="14000.00000"></scales>
<clustering>
<clus scale="   31.197">  2  3  1 -1</clus>
<clus scale="   39.186">  1  5  2 -1</clus>
<clus scale="  132.903">  2  4  1 -1</clus>
<clus scale="   39.186">  1  3  2 -1</clus>
</clustering>
</event>
<event>
 6    0  0.3042851E+002  0.1037539E+03  0.7546771E-02  0.1272594E+00
         21   -1    0    0  505  501  0.00000000000E+00  0.00000000000E+00  0.65449115371E+03  0.65449115371E+03  0.00000000000E+00 0.  1.
         21   -1    0    0  506  502 -0.00000000000E+00 -0.00000000000E+00 -0.46483628508E+03  0.46483628508E+03  0.00000000000E+00 0.  1.
         21    1    1    2  503  502 -0.81805169275E+02  0.75707247143E+01 -0.24194294343E+03  0.25551084022E+03  0.00000000000E+00 0.  1.
         21    1    1    2  504  501 -0.70341082232E+01 -0.52766392751E+02  0.15471462383E+02  0.55435882159E+02  0.00000000000E+00 0.  1.
         21    1    1    2  505  503  0.69863239223E+02  0.78032657055E+02  0.60588398414E+03  0.61487020581E+03  0.00000000000E+00 0.  1.
         21    1    1    2  506  504  0.18976038276E+02 -0.32836989018E+02 -0.18975763446E+03  0.19351051060E+03  0.00000000000E+00 0.  1.
<scales pt_clust_3="103.75391" pt_clust_4="55.45629" pt_clust_5="14000.00000" pt_clust_6="37.92569"></scales>
<clustering>
<clus scale="   37.926">  2  6  1 -1</clus>
<clus scale="   55.456">  2  4  1 -1</clus>
<clus scale="  103.754">  2  3  1 -1</clus>
<clus scale="  103.754">  1  3  2 -1</clus>
</clustering>
</event>
<event>
 6    0  0.3042851E+002  0.8733528E+02  0.7546771E-02  0.1309436E+00
         21   -1    0    0  506  501  0.00000000000E+00  0.00000000000E+00  0.72248856071E+03  0.72248856071E+03  0.00000000000E+00 0.  1.
         21   -1    0    0  505  502 -0.00000000000E+00 -0.00000000000E+00 -0.16363336691E+03  0.16363336691E+03  0.00000000000E+00 0. -1.
         21    1    1    2  503  504  0.43811269550E+02 -0.10299174777E+03  0.38948809078E+02  0.11850627484E+03  0.00000000000E+00 0. -1.
         21    1    1    2  504  501  0.94890960084E+02  0.63291909590E+02  0.52523495622E+03  0.53747736637E+03  0.00000000000E+00 0.  1.
         21    1    1    2  505  503 -0.72186398284E+02  0.45617581348E+02 -0.88830440712E+02  0.12321804666E+03  0.00000000000E+00 0. -1.
         21    1    1    2  506  502 -0.66515831349E+02 -0.59177431669E+01  0.83501869215E+02  0.10692023974E+03  0.00000000000E+00 0. -1.
<scales pt_clust_3="14000.00000" pt_clust_4="69.87336" pt_clust_5="87.33528" pt_clust_6="66.77856"></scales>
<clustering>
<clus scale="   66.779">  1  6  2 -1</clus>
<clus scale="   69.873">  1  4  2 -1</clus>
<clus scale="   87.335">  2  5  1 -1</clus>
<clus scale="   66.779">  1  3  2 -1</clus>
</clustering>
</event>
<event>
 6    0  0.3042851E+002  0.9206273E+02  0.7546771E-02  0.1297932E+00
         21   -1    0    0  503  501  0.00000000000E+00  0.00000000000E+00  0.67205513110E+03  0.67205513110E+03  0.00000000000E+00 0. -1.
         21   -1    0    0  506  502 -0.00000000000E+00 -0.00000000000E+00 -0.22755073334E+03  0.22755073334E+03  0.00000000000E+00 0.  1.
         21    1    1    2  503  505 -0.46499313614E+02 -0.81054013440E+02  0.10849010199E+03  0.14318533965E+03  0.00000000000E+00 0.  1.
         21    1    1    2  504  501  0.25767033839E+02  0.88564642531E+02  0.52415905803E+03  0.53221269625E+03  0.00000000000E+00 0. -1.
         21    1    1    2  505  502 -0.18992951149E+02  0.44029811797E+02 -0.12350201187E+03  0.13248435174E+03  0.00000000000E+00 0.  1.
         21    1    1    2  506  504  0.39725230925E+02 -0.51540440887E+02 -0.64642750389E+02  0.91723476802E+02  0.00000000000E+00 0.  1.
<scales pt_clust_3="92.06273" pt_clust_4="14000.00000" pt_clust_5="47.95161" pt_clust_6="30.05490"></scales>
<clustering>
<clus scale="   47.952">  2  5  1 -1</clus>
<clus scale="   30.055">  2  6  1 -1</clus>
<clus scale="   92.063">  2  3  1 -1</clus>
<clus scale="   92.063">  1  3  2 -1</clus>
</clustering>
</event>
<event>
 6    0  0.3042851E+002  0.7872879E+02  0.7546771E-02  0.1332698E+00
         21   -1    0    0  504  501  0.00000000000E+00  0.00000000000E+00  0.11284632609E+04  0.11284632609E+04  0.00000000000E+00 0. -1.
         21   -1    0    0  503  502 -0.00000000000E+00 -0.00000000000E+00 -0.63075874369E+02  0.63075874369E+02  0.00000000000E+00 0. -1.
         21    1    1    2  503  501 -0.17913865424E+02 -0.95653997160E+02  0.37779039747E+02  0.10439276599E+03  0.00000000000E+00 0. -1.
         21    1    1    2  504  506  0.41110370660E+02 -0.26905675857E+01  0.76497966587E+03  0.76608823965E+03  0.00000000000E+00 0. -1.
         21    1    1    2  505  502 -0.37620962237E+02  0.33506556181E+02  0.22636039642E+00  0.50379334511E+02  0.00000000000E+00 0.  1.
         21    1    1    2  506  505  0.14424457000E+02  0.64838008565E+02  0.26240232048E+03  0.27067879509E+03  0.00000000000E+00 0. -1.
<scales pt_clust_3="78.72879" pt_clust_4="41.19832" pt_clust_5="48.14614" pt_clust_6="14000.00000"></scales>
<clustering>
<clus scale="   41.198">  1  4  2 -1</clus>
<clus scale="   48.146">  2  5  1 -1</clus>
<clus scale="   78.729">  2  3  1 -1</clus>
<clus scale="   41.198">  1  3  2 -1</clus>
</clustering>
</event>
<event>
 6    0  0.3042851E+002  0.3167647E+03  0.7546771E-02  0.1077148E+00
         21   -1    0    0  506  501  0.00000000000E+00  0.00000000000E+00  0.50942987176E+03  0.50942987176E+03  0.00000000000E+00 0.  1.
         21   -1    0    0  504  502 -0.00000000000E+00 -0.00000000000E+00 -0.31548069096E+03  0.31548069096E+03  0.00000000000E+00 0.  1.
         21    1    1    2  503  501 -0.10456515940E+03 -0.20538887108E+03 -0.27475093109E+02  0.23210631543E+03  0.00000000000E+00 0.  1.
         21    1    1    2  504  503 -0.29750056504E+02 -0.12463545738E+03 -0.44302573783E+01  0.12821345592E+03  0.00000000000E+00 0.  1.
         21    1    1    2  505  502  0.19884529752E+02  0.53670472718E+02 -0.35529082185E+02  0.67366385135E+02  0.00000000000E+00 0.  1.
         21    1    1    2  506  505  0.11443068615E+03  0.27635385574E+03  0.26138361348E+03  0.39722440624E+03  0.00000000000E+00 0.  1.
<scales pt_clust_3="32.12075" pt_clust_4="32.12075" pt_clust_5="57.23560" pt_clust_6="313.82180"></scales>
<clustering>
<clus scale="   32.121">  3  4 -1 -1</clus>
<clus scale="   57.236">  2  5  1 -1</clus>
<clus scale="  313.822">  1  6  2 -1</clus>
<clus scale="  313.822">  1  3  2 -1</clus>
</clustering>
</event>
<event>
 6    0  0.3042851E+002  0.9509344E+02  0.7546771E-02  0.1290966E+00
         21   -1    0    0  503  501  0.00000000000E+00  0.00000000000E+00  0.12722456274E+04  0.12722456274E+04  0.00000000000E+00 0.  1.
         21   -1    0    0  504  502 -0.00000000000E+00 -0.00000000000E+00 -0.21718307666E+03  0.21718307666E+03  0.00000000000E+00 0. -1.
         21    1    1    2  503  505 -0.45489355413E+02  0.22740542579E+02  0.43020987428E+03  0.43320543586E+03  0.00000000000E+00 0.  1.
         21    1    1    2  504  506 -0.38236165843E+02  0.53894925866E+02 -0.17068660038E+03  0.18303164470E+03  0.00000000000E+00 0. -1.
         21    1    1    2  505  502 -0.50166734078E+02 -0.20595830373E+02 -0.96005488476E+01  0.55073223757E+02  0.00000000000E+00 0. -1.
         21    1    1    2  506  501  0.13389225533E+03 -0.56039638073E+02  0.80513982568E+03  0.81811839973E+03  0.00000000000E+00 0.  1.
<scales pt_clust_3="50.85680" pt_clust_4="95.09344" pt_clust_5="55.14437" pt_clust_6="14000.00000"></scales>
<clustering>
<clus scale="   50.857">  1  3  2 -1</clus>
<clus scale="   55.144">  2  5  1 -1</clus>
<clus scale="   95.093">  2  4  1 -1</clus>
<clus scale="   50.857">  1  3  2 -1</clus>
</clustering>
</event>
<event>
 6    0  0.3042851E+002  0.2630483E+03  0.7546771E-02  0.1105325E+00
         21   -1    0    0  503  501  0.00000000000E+00  0.00000000000E+00  0.13660240556E+03  0.13660240556E+03  0.00000000000E+00 0.  1.
         21   -1    0    0  506  502 -0.00000000000E+00 -0.00000000000E+00 -0.17196154173E+04  0.17196154173E+04  0.00000000000E+00 0. -1.
         21    1    1    2  503  502 -0.14799158336E+02  0.32660811746E+02 -0.12510086522E+03  0.13013827335E+03  0.00000000000E+00 0.  1.
         21    1    1    2  504  501  0.13408640930E+03 -0.98947054385E+01  0.21817755208E+02  0.13620970890E+03  0.00000000000E+00 0.  1.
         21    1    1    2  505  504  0.10588233727E+03 -0.64146943515E+02 -0.37172180973E+02  0.12925815544E+03  0.00000000000E+00 0.  1.
         21    1    1    2  506  505 -0.22516958824E+03  0.41380837207E+02 -0.14425577207E+04  0.14606116851E+04  0.00000000000E+00 0. -1.
<scales pt_clust_3="35.85727" pt_clust_4="80.93034" pt_clust_5="80.93034" pt_clust_6="249.04649"></scales>
<clustering>
<clus scale="   35.857">  2  3  1 -1</clus>
<clus scale="   80.930">  4  5 -1 -1</clus>
<clus scale="  249.046">  2  6  1 -1</clus>
<clus scale="  263.048">  1  3  2 -1</clus>
</clustering>
</event>
<event>
 6    0  0.3042851E+002  0.1195502E+03  0.7546771E-02  0.1243841E+00
         21   -1    0    0  506  501  0.00000000000E+00  0.00000000000E+00  0.14668183632E+04  0.14668183632E+04  0.00000000000E+00 0.  1.
         21   -1    0    0  504  502 -0.00000000000E+00 -0.00000000000E+00 -0.23097606661E+03  0.23097606661E+03  0.00000000000E+00 0.  1.
         21    1    1    2  503  505 -0.41669190225E+02  0.35578823492E+02 -0.73227914228E+02  0.91457648763E+02  0.00000000000E+00 0.  1.
         21    1    1    2  504  503 -0.62308518308E+02  0.81371930270E+01 -0.11971035295E+03  0.13520034751E+03  0.00000000000E+00 0.  1.
         21    1    1    2  505  501  0.18283731253E+03  0.19650371762E+02  0.12673858629E+04  0.12806570757E+04  0.00000000000E+00 0.  1.
         21    1    1    2  506  502 -0.78859603995E+02 -0.63366388281E+02  0.16139470078E+03  0.19047935780E+03  0.00000000000E+00 0.  1.
<scales pt_clust_3="35.26486" pt_clust_4="35.26486" pt_clust_5="113.42851" pt_clust_6="101.16391"></scales>
<clustering>
<clus scale="   35.265">  3  4 -1 -1</clus>
<clus scale="  101.164">  1  6  2 -1</clus>
<clus scale="  113.429">  1  5  2 -1</clus>
<clus scale="  101.164">  1  3  2 -1</clus>
</clustering>
</event>
<event>
 6    0  0.3042851E+002  0.7586620E+02  0.7546771E-02  0.1341209E+00
         21   -1    0    0  506  501  0.00000000000E+00  0.00000000000E+00  0.12154998235E+04  0.12154998235E+04  0.00000000000E+00 0.  1.
         21   -1    0    0  503  502 -0.00000000000E+00 -0.00000000000E+00 -0.27362562513E+02  0.27362562513E+02  0.00000000000E+00 0.  1.
         21    1    1    2  503  505  0.87135403148E+01  0.29224937058E+02  0.80621161042E+02  0.86196254783E+02  0.00000000000E+00 0. -1.
         21    1    1    2  504  501 -0.71050097227E+02 -0.94791685408E+02  0.18912833401E+03  0.22316609658E+03  0.00000000000E+00 0.  1.
         21    1    1    2  505  504  0.68063452496E+02 -0.81536071569E+01  0.20217237217E+03  0.21347782776E+03  0.00000000000E+00 0.  1.
         21    1    1    2  506  502 -0.57268955836E+01  0.73720355507E+02  0.71621539380E+03  0.72002220693E+03  0.00000000000E+00 0.  1.
<scales pt_clust_3="30.49627" pt_clust_4="14000.00000" pt_clust_5="70.08235" pt_clust_6="75.86620"></scales>
<clustering>
<clus scale="   30.496">  2  3  1 -1</clus>
<clus scale="   70.082">  2  5  1 -1</clus>
<clus scale="   75.866">  1  6  2 -1</clus>
<clus scale="   75.866">  1  3  2 -1</clus>
</clustering>
</event>
<event>
 6    0  0.3042851E+002  0.2177406E+03  0.7546771E-02  0.1135579E+00
         21   -1    0    0  505  501  0.00000000000E+00  0.00000000000E+00  0.66530021596E+03  0.66530021596E+03  0.00000000000E+00 0.  1.
         21   -1    0    0  506  502 -0.00000000000E+00 -0.00000000000E+00 -0.35608457995E+03  0.35608457995E+03  0.00000000000E+00 0.  1.
         21    1    1    2  503  502 -0.14508792718E+03 -0.44759152187E+02 -0.27884868342E+03  0.31750665594E+03  0.00000000000E+00 0.  1.
         21    1    1    2  504  503 -0.46311780484E+02 -0.19541415409E+02 -0.22311855578E+02  0.54995152760E+02  0.00000000000E+00 0.  1.
         21    1    1    2  505  504  0.33400157073E+02 -0.22018820088E+02  0.12073691575E+03  0.12719198778E+03  0.00000000000E+00 0. -1.
         21    1    1    2  506  501  0.15799955059E+03  0.86319387684E+02  0.48963925927E+03  0.52169099944E+03  0.00000000000E+00 0.  1.
<scales pt_clust_3="48.95350" pt_clust_4="48.95350" pt_clust_5="40.00499" pt_clust_6="200.29843"></scales>
<clustering>
<clus scale="   40.005">  1  5  2 -1</clus>
<clus scale="   48.954">  3  4 -1 -1</clus>
<clus scale="  200.298">  1  6  2 -1</clus>
<clus scale="   40.005">  1  3  2 -1</clus>
</clustering>
</event>
<event>
 6    0  0.3042851E+002  0.8897452E+02  0.7546771E-02  0.1305354E+00
         21   -1    0    0  503  501  0.00000000000E+00  0.00000000000E+00  0.35664534181E+03  0.35664534181E+03  0.00000000000E+00 0. -1.
         21   -1    0    0  506  502 -0.00000000000E+00 -0.00000000000E+00 -0.14953526034E+03  0.14953526034E+03  0.00000000000E+00 0. -1.
         21    1    1    2  503  504  0.10201267768E+02 -0.32985488281E+02  0.83829452579E+02  0.90661377779E+02  0.00000000000E+00 0. -1.
         21    1    1    2  504  502  0.57893677700E+02 -0.50443950702E+02  0.56873599599E+02  0.95555619465E+02  0.00000000000E+00 0. -1.
         21    1    1    2  505  501 -0.67119777278E+02 -0.14476960093E+02  0.16640391980E+03  0.18001364226E+03  0.00000000000E+00 0. -1.
         21    1    1    2  506  505 -0.97516818952E+00  0.97906399077E+02 -0.99996890511E+02  0.13994996265E+03  0.00000000000E+00 0. -1.
<scales pt_clust_3="34.52692" pt_clust_4="88.97452" pt_clust_5="70.29245" pt_clust_6="14000.00000"></scales>
<clustering>
<clus scale="   34.527">  1  3  2 -1</clus>
<clus scale="   70.292">  1  5  2 -1</clus>
<clus scale="   88.975">  1  4  2 -1</clus>
<clus scale="   34.527">  1  3  2 -1</clus>
</clustering>
</event>
<event>
 6    0  0.3042851E+002  0.1184820E+03  0.7546771E-02  0.1245622E+00
         21   -1    0    0  503  501  0.00000000000E+00  0.00000000000E+00  0.92937392428E+03  0.92937392428E+03  0.00000000000E+00 0.  1.
         21   -1    0    0  506  502 -0.00000000000E+00 -0.00000000000E+00 -0.29877528473E+03  0.29877528473E+03  0.00000000000E+00 0.  1.
         21    1    1    2  503  502 -0.12086649253E+03  0.15098353532E+02  0.87340989776E+03  0.88186252829E+03  0.00000000000E+00 0.  1.
         21    1    1    2  504  505  0.37055205152E+02  0.28956113600E+02  0.19978272893E+02  0.51094775971E+02  0.00000000000E+00 0.  1.
         21    1    1    2  505  501  0.60939246843E+02 -0.22361910909E+02 -0.55162075137E+02  0.85185100802E+02  0.00000000000E+00 0.  1.
         21    1    1    2  506  504  0.22872040539E+02 -0.21692556224E+02 -0.20762745597E+03  0.21000680395E+03  0.00000000000E+00 0.  1.
<scales pt_clust_3="14000.00000" pt_clust_4="48.13686" pt_clust_5="118.48199" pt_clust_6="31.52296"></scales>
<clustering>
<clus scale="   31.523">  2  6  1 -1</clus>
<clus scale="   48.137">  2  4  1 -1</clus>
<clus scale="  118.482">  2  5  1 -1</clus>
<clus scale="  118.482">  1  3  2 -1</clus>
</clustering>
</event>
<event>
 6    0  0.3042851E+002  0.1216726E+03  0.7546771E-02  0.1240363E+00
         21   -1    0    0  503  501  0.00000000000E+00  0.00000000000E+00  0.75675267640E+03  0.75675267640E+03  0.00000000000E+00 0.  1.
         21   -1    0    0  506  502 -0.00000000000E+00 -0.00000000000E+00 -0.26770535029E+03  0.26770535029E+03  0.00000000000E+00 0. -1.
         21    1    1    2  503  502  0.10368320522E+03  0.18007656541E+02 -0.59270423121E+02  0.12077858169E+03  0.00000000000E+00 0. -1.
         21    1    1    2  504  501 -0.61239730079E+02 -0.40486497207E+01  0.29140562731E+03  0.29779848175E+03  0.00000000000E+00 0.  1.
         21    1    1    2  505  504 -0.56775071100E+02  0.13745030548E+02  0.42800255656E+03  0.43197051171E+03  0.00000000000E+00 0.  1.
         21    1    1    2  506  505  0.14331595958E+02 -0.27704037369E+02 -0.17109043464E+03  0.17391045154E+03  0.00000000000E+00 0. -1.
<scales pt_clust_3="117.52062" pt_clust_4="30.74518" pt_clust_5="30.74518" pt_clust_6="31.19148"></scales>
<clustering>
<clus scale="   30.745">  4  5 -1 -1</clus>
<clus scale="   31.191">  2  6  1 -1</clus>
<clus scale="  117.521">  2  3  1 -1</clus>
<clus scale="  121.673">  1  3  2 -1</clus>
</clustering>
</event>
<event>
 6    0  0.3042851E+002  0.1053020E+03  0.7546771E-02  0.1269526E+00
         21   -1    0    0  503  501  0.00000000000E+00  0.00000000000E+00  0.12203395927E+04  0.12203395927E+04  0.00000000000E+00 0.  1.
         21   -1    0    0  506  502 -0.00000000000E+00 -0.00000000000E+00 -0.52570292239E+02  0.52570292239E+02  0.00000000000E+00 0.  1.
         21    1    1    2  503  504  0.72882066483E+02 -0.13784892989E+03  0.96578405033E+03  0.97829083353E+03  0.00000000000E+00 0.  1.
         21    1    1    2  504  502  0.19189558032E+02  0.23979215390E+02  0.75034043869E+01  0.31615549743E+02  0.00000000000E+00 0. -1.
         21    1    1    2  505  501 -0.36883709061E+02  0.40242120185E+02  0.15228762043E+03  0.16177563342E+03  0.00000000000E+00 0. -1.
         21    1    1    2  506  505 -0.55187915454E+02  0.73627594316E+02  0.42194225274E+02  0.10122786822E+03  0.00000000000E+00 0.  1.
<scales pt_clust_3="14000.00000" pt_clust_4="30.71224" pt_clust_5="55.25397" pt_clust_6="105.30199"></scales>
<clustering>
<clus scale="   30.712">  2  4  1 -1</clus>
<clus scale="   55.254">  1  5  2 -1</clus>
<clus scale="  105.302">  2  6  1 -1</clus>
<clus scale="   55.254">  1  3  2 -1</clus>
</clustering>
</event>
<event>
 6    0  0.3042851E+002  0.1562380E+03  0.7546771E-02  0.1193011E+00
         21   -1    0    0  504  501  0.00000000000E+00  0.00000000000E+00  0.13327804092E+03  0.13327804092E+03  0.00000000000E+00 0.  1.
         21   -1    0    0  505  502 -0.00000000000E+00 -0.00000000000E+00 -0.45410952478E+03  0.45410952478E+03  0.00000000000E+00 0.  1.
         21    1    1    2  503  506 -0.26477932038E+02 -0.60019244613E+02  0.13362784339E+02  0.66947401848E+02  0.00000000000E+00 0.  1.
         21    1    1    2  504  502 -0.68377597801E+01  0.48530248522E+02 -0.43792471625E+02  0.65724581029E+02  0.00000000000E+00 0.  1.
         21    1    1    2  505  503  0.47265060000E+01  0.10325498422E+03 -0.33366729177E+03  0.34931045393E+03  0.00000000000E+00 0.  1.
         21    1    1    2  506  501  0.28589185819E+02 -0.91765988132E+02  0.43265495194E+02  0.10540512890E+03  0.00000000000E+00 0.  1.
<scales pt_clust_3="48.56289" pt_clust_4="49.00959" pt_clust_5="144.75800" pt_clust_6="48.56289"></scales>
<clustering>
<clus scale="   48.563">  3  6 -1 -1</clus>
<clus scale="   49.010">  2  4  1 -1</clus>
<clus scale="  144.758">  2  5  1 -1</clus>
<clus scale="  156.238">  1  3  2 -1</clus>
</clustering>
</event>
<event>
 6    0  0.3042851E+002  0.7716409E+02  0.7546771E-02  0.1337298E+00
         21   -1    0    0  503  501  0.00000000000E+00  0.00000000000E+00  0.49474611310E+03  0.49474611310E+03  0.00000000000E+00 0. -1.
         21   -1    0    0  505  502 -0.00000000000E+00 -0.00000000000E+00 -0.11472404994E+03  0.11472404994E+03  0.00000000000E+00 0. -1.
         21    1    1    2  503  506 -0.47752374333E+02  0.30352706629E+02  0.15068320640E+03  0.16095653061E+03  0.00000000000E+00 0. -1.
         21    1    1    2  504  501 -0.42831139205E+02 -0.26069274919E+01  0.28083498034E+03  0.28409433071E+03  0.00000000000E+00 0. -1.
         21    1    1    2  505  504  0.56638707562E+02  0.44811950002E+02 -0.42528178093E+02  0.83813483338E+02  0.00000000000E+00 0. -1.
         21    1    1    2  506  502  0.33944805976E+02 -0.72557729140E+02 -0.89679454906E+01  0.80605818382E+02  0.00000000000E+00 0. -1.
<scales pt_clust_3="14000.00000" pt_clust_4="42.91040" pt_clust_5="68.84001" pt_clust_6="77.16409"></scales>
<clustering>
<clus scale="   42.910">  1  4  2 -1</clus>
<clus scale="   68.840">  2  5  1 -1</clus>
<clus scale="   77.164">  2  6  1 -1</clus>
<clus scale="   42.910">  1  3  2 -1</clus>
</clustering>
</event>
<event>
 6    0  0.3042851E+002  0.8293757E+02  0.7546771E-02  0.1320916E+00
         21   -1    0    0  504  501  0.00000000000E+00  0.00000000000E+00  0.37657355437E+03  0.37657355437E+03  0.00000000000E+00 0.  1.
         21   -1    0    0  503  502 -0.00000000000E+00 -0.00000000000E+00 -0.96950646857E+02  0.96950646857E+02  0.00000000000E+00 0.  1.
         21    1    1    2  503  505 -0.45321388713E+02  0.38792613852E+02 -0.49502458804E+02  0.77520246336E+02  0.00000000000E+00 0.  1.
         21    1    1    2  504  506  0.48017411331E+02  0.39147585610E+02  0.17706782805E+03  0.18759323277E+03  0.00000000000E+00 0.  1.
         21    1    1    2  505  501  0.36500912555E+02 -0.83097516965E+02  0.14042063441E+03  0.16719888909E+03  0.00000000000E+00 0.  1.
         21    1    1    2  506  502 -0.39196935173E+02  0.51573175025E+01  0.11636903852E+02  0.41211833034E+02  0.00000000000E+00 0.  1.
<scales pt_clust_3="14000.00000" pt_clust_4="60.24428" pt_clust_5="82.93757" pt_clust_6="39.53477"></scales>
<clustering>
<clus scale="   39.535">  2  6  1 -1</clus>
<clus scale="   60.244">  1  4  2 -1</clus>
<clus scale="   82.938">  1  5  2 -1</clus>
<clus scale="   60.244">  1  3  2 -1</clus>
</clustering>
</event>
<event>
 6    0  0.3042851E+002  0.1014444E+03  0.7546771E-02  0.1277288E+00
         21   -1    0    0  505  501  0.00000000000E+00  0.00000000000E+00  0.63884774880E+03  0.63884774880E+03  0.00000000000E+00 0. -1.
         21   -1    0    0  506  502 -0.00000000000E+00 -0.00000000000E+00 -0.53030758506E+02  0.53030758506E+02  0.00000000000E+00 0. -1.
         21    1    1    2  503  502  0.28910900976E+02 -0.33777516272E+02  0.16475985575E+02  0.47415386758E+02  0.00000000000E+00 0. -1.
         21    1    1    2  504  501 -0.52365730975E+02 -0.20530529807E+02  0.13267981570E+03  0.14410970102E+03  0.00000000000E+00 0. -1.
         21    1    1    2  505  503  0.93174041912E+02  0.21267880443E+02  0.53549314842E+02  0.10955023480E+03  0.00000000000E+00 0. -1.
         21    1    1    2  506  504 -0.69719211913E+02  0.33040165636E+02  0.38311187418E+03  0.39080318473E+03  0.00000000000E+00 0. -1.
<scales pt_clust_3="44.46078" pt_clust_4="54.40371" pt_clust_5="101.44442" pt_clust_6="14000.00000"></scales>
<clustering>
<clus scale="   44.461">  2  3  1 -1</clus>
<clus scale="   54.404">  1  4  2 -1</clus>
<clus scale="  101.444">  2  5  1 -1</clus>
<clus scale="   54.404">  1  3  2 -1</clus>
</clustering>
</event>
<event>
 6    0  0.3042851E+002  0.1284142E+03  0.7546771E-02  0.1229828E+00
         21   -1    0    0  504  501  0.00000000000E+00  0.00000000000E+00  0.97988586203E+03  0.97988586203E+03  0.00000000000E+00 0. -1.
         21   -1    0    0  503  502 -0.00000000000E+00 -0.00000000000E+00 -0.12272603164E+03  0.12272603164E+03  0.00000000000E+00 0. -1.
         21    1    1    2  503  506 -0.41596424458E+02 -0.35425037020E+02  0.29696532274E+03  0.30194966250E+03  0.00000000000E+00 0. -1.
         21    1    1    2  504  505 -0.26291925288E+01  0.48932302126E+02 -0.18525760670E+02  0.52387848334E+02  0.00000000000E+00 0. -1.
         21    1    1    2  505  502  0.53521946412E+02  0.55360220317E+02 -0.65027572166E+02  0.10078659575E+03  0.00000000000E+00 0. -1.
         21    1    1    2  506  501 -0.92963294258E+01 -0.68867485423E+02  0.64374784049E+03  0.64748778709E+03  0.00000000000E+00 0. -1.
<scales pt_clust_3="48.75395" pt_clust_4="43.79742" pt_clust_5="128.37932" pt_clust_6="48.75395"></scales>
<clustering>
<clus scale="   43.797">  4  5 -1 -1</clus>
<clus scale="   48.754">  3  6 -1 -1</clus>
<clus scale="  128.379">  2  4  1 -1</clus>
<clus scale="  128.414">  1  3  2 -1</clus>
</clustering>
</event>
<event>
 6    0  0.3042851E+002  0.1391424E+03  0.7546771E-02  0.1214488E+00
         21   -1    0    0  505  501  0.00000000000E+00  0.00000000000E+00  0.27472805992E+03  0.27472805992E+03  0.00000000000E+00 0.  1.
         21   -1    0    0  506  502 -0.00000000000E+00 -0.00000000000E+00 -0.49657193916E+03  0.49657193916E+03  0.00000000000E+00 0. -1.
         21    1    1    2  503  502 -0.34951369283E+02  0.74054677834E+02  0.12963160497E+03  0.15332986183E+03  0.00000000000E+00 0.  1.
         21    1    1    2  504  501  0.58220229877E+02 -0.70989067182E+02 -0.36423169883E+03  0.37562451099E+03  0.00000000000E+00 0. -1.
         21    1    1    2  505  503  0.32540681280E+02  0.49566247188E+02  0.10608787230E+03  0.12153331004E+03  0.00000000000E+00 0.  1.
         21    1    1    2  506  504 -0.55809541874E+02 -0.52631857840E+02 -0.93331657678E+02  0.12081231621E+03  0.00000000000E+00 0. -1.
<scales pt_clust_3="58.32511" pt_clust_4="121.08860" pt_clust_5="58.32511" pt_clust_6="76.71256"></scales>
<clustering>
<clus scale="   58.325">  3  5 -1 -1</clus>
<clus scale="   76.713">  2  6  1 -1</clus>
<clus scale="  121.089">  2  4  1 -1</clus>
<clus scale="  139.142">  1  3  2 -1</clus>
</clustering>
</event>
<event>
 6    0  0.3042851E+002  0.1687506E+03  0.7546771E-02  0.1179157E+00
         21   -1    0    0  505  501  0.00000000000E+00  0.00000000000E+00  0.64840583120E+03  0.64840583120E+03  0.00000000000E+00 0.  1.
         21   -1    0    0  503  502 -0.00000000000E+00 -0.00000000000E+00 -0.18009421505E+03  0.18009421505E+03  0.00000000000E+00 0. -1.
         21    1    1    2  503  506 -0.50322859872E+02  0.56639668326E+02 -0.10751399759E+03  0.13152833129E+03  0.00000000000E+00 0. -1.
         21    1    1    2  504  502  0.11797151840E+03 -0.33350567064E+02  0.31850697117E+03  0.34128614118E+03  0.00000000000E+00 0.  1.
         21    1    1    2  505  504  0.32935867919E+02 -0.47166323975E+02  0.24489605302E+03  0.25156214003E+03  0.00000000000E+00 0.  1.
         21    1    1    2  506  501 -0.10058452645E+03  0.23877222713E+02  0.12422589552E+02  0.10412343375E+03  0.00000000000E+00 0. -1.
<scales pt_clust_3="75.76571" pt_clust_4="47.41051" pt_clust_5="47.41051" pt_clust_6="153.90474"></scales>
<clustering>
<clus scale="   47.411">  4  5 -1 -1</clus>
<clus scale="   75.766">  2  3  1 -1</clus>
<clus scale="  153.905">  2  6  1 -1</clus>
<clus scale="  168.751">  1  3  2 -1</clus>
</clustering>
</event>
<event>
 6    0  0.3042851E+002  0.3294270E+03  0.7546771E-02  0.1071391E+00
         21   -1    0    0  506  501  0.00000000000E+00  0.00000000000E+00  0.12671964330E+04  0.12671964330E+04  0.00000000000E+00 0.  1.
         21   -1    0    0  503  502 -0.00000000000E+00 -0.00000000000E+00 -0.92610651488E+02  0.92610651488E+02  0.00000000000E+00 0. -1.
         21    1    1    2  503  505  0.30107165680E+02 -0.80334066606E+02  0.13454322760E+03  0.15956780307E+03  0.00000000000E+00 0.  1.
         21    1    1    2  504  502 -0.50160879373E+02  0.13442305175E+03  0.16327352258E+03  0.21735665123E+03  0.00000000000E+00 0. -1.
         21    1    1    2  505  501  0.11648258602E+03 -0.20315672878E+03  0.67321469005E+03  0.71278248308E+03  0.00000000000E+00 0.  1.
         21    1    1    2  506  504 -0.96428872321E+02  0.14906774364E+03  0.20355434130E+03  0.27010014712E+03  0.00000000000E+00 0.  1.
<scales pt_clust_3="49.41913" pt_clust_4="31.08753" pt_clust_5="49.41913" pt_clust_6="321.01627"></scales>
<clustering>
<clus scale="   31.088">  4  6 -1 -1</clus>
<clus scale="   49.419">  3  5 -1 -1</clus>
<clus scale="  321.016">  2  4  1 -1</clus>
<clus scale="  329.427">  1  3  2 -1</clus>
</clustering>
</event>
<event>
 6    0  0.3042851E+002  0.2768781E+03  0.7546771E-02  0.1097406E+00
         21   -1    0    0  503  501  0.00000000000E+00  0.00000000000E+00  0.38567228281E+03  0.38567228281E+03  0.00000000000E+00 0. -1.
         21   -1    0    0  504  502 -0.00000000000E+00 -0.00000000000E+00 -0.99556470715E+03  0.99556470715E+03  0.00000000000E+00 0. -1.
         21    1    1    2  503  505 -0.33464462753E+02 -0.19095173103E+02  0.17334829701E+03  0.17757851216E+03  0.00000000000E+00 0. -1.
         21    1    1    2  504  501  0.34967541024E+03  0.11048502758E+03 -0.48700694427E+03  0.60963562692E+03  0.00000000000E+00 0. -1.
         21    1    1    2  505  506 -0.11707817002E+03  0.27839775003E+02  0.85251876811E+02  0.14747960357E+03  0.00000000000E+00 0. -1.
         21    1    1    2  506  502 -0.19913277746E+03 -0.11922962948E+03 -0.38148565389E+03  0.44654324732E+03  0.00000000000E+00 0. -1.
<scales pt_clust_3="38.52916" pt_clust_4="276.87807" pt_clust_5="136.69836" pt_clust_6="14000.00000"></scales>
<clustering>
<clus scale="   38.529">  1  3  2 -1</clus>
<clus scale="  136.698">  1  5  2 -1</clus>
<clus scale="  276.878">  1  4  2 -1</clus>
<clus scale="   38.529">  1  3  2 -1</clus>
</clustering>
</event>
<event>
 6    0  0.3042851E+002  0.1193482E+03  0.7546771E-02  0.1244176E+00
         21   -1    0    0  502  501  0.00000000000E+00  0.00000000000E+00  0.85230217702E+03  0.85230217702E+03  0.00000000000E+00 0. -1.
         21   -1    0    0  504  502 -0.00000000000E+00 -0.00000000000E+00 -0.11604416267E+03  0.11604416267E+03  0.00000000000E+00 0. -1.
         21    1    1    2  503  501  0.28126963583E+02  0.11633141791E+02  0.24802994468E+03  0.24989059511E+03  0.00000000000E+00 0. -1.
         21    1    1    2  504  506  0.14559465309E+02  0.28247131607E+02  0.39961151816E+00  0.31781097581E+02  0.00000000000E+00 0.  1.
         21    1    1    2  505  503  0.11005032020E+02  0.10119073336E+03  0.52206694490E+03  0.53189714250E+03  0.00000000000E+00 0. -1.
         21    1    1    2  506  505 -0.53691460912E+02 -0.14107100676E+03 -0.34238486736E+02  0.15477750449E+03  0.00000000000E+00 0. -1.
<scales pt_clust_3="30.43774" pt_clust_4="32.40226" pt_clust_5="14000.00000" pt_clust_6="119.34820"></scales>
<clustering>
<clus scale="   30.438">  1  3  2 -1</clus>
<clus scale="   32.402">  2  4  1 -1</clus>
<clus scale="  119.348">  2  6  1 -1</clus>
<clus scale="   30.438">  1  3  2 -1</clus>
</clustering>
</event>
<event>
 6    0  0.3042851E+002  0.1065070E+03  0.7546771E-02  0.1267179E+00
         21   -1    0    0  504  501  0.00000000000E+00  0.00000000000E+00  0.32304068359E+02  0.32304068359E+02  0.00000000000E+00 0.  1.
         21   -1    0    0  505  502 -0.00000000000E+00 -0.00000000000E+00 -0.19318678109E+04  0.19318678109E+04  0.00000000000E+00 0.  1.
         21    1    1    2  503  501  0.42414855518E+02 -0.84255323252E+02 -0.14137193387E+03  0.16995294393E+03  0.00000000000E+00 0.  1.
         21    1    1    2  504  506 -0.12696606874E+03  0.77242067929E+02 -0.34787959229E+03  0.37829476655E+03  0.00000000000E+00 0.  1.
         21    1    1    2  505  503  0.50270978177E+02  0.43945162353E+02 -0.10479722707E+04  0.10500972473E+04  0.00000000000E+00 0.  1.
         21    1    1    2  506  502  0.34280235041E+02 -0.36931907030E+02 -0.36233994565E+03  0.36582692148E+03  0.00000000000E+00 0.  1.
<scales pt_clust_3="106.50703" pt_clust_4="14000.00000" pt_clust_5="75.69287" pt_clust_6="50.38949"></scales>
<clustering>
<clus scale="   50.389">  2  6  1 -1</clus>
<clus scale="   75.693">  2  5  1 -1</clus>
<clus scale="  106.507">  1  3  2 -1</clus>
<clus scale="  106.507">  1  3  2 -1</clus>
</clustering>
</event>
<event>
 6    0  0.3042851E+002  0.4060241E+03  0.7546771E-02  0.1041713E+00
         21   -1    0    0  505  501  0.00000000000E+00  0.00000000000E+00  0.92365847480E+03  0.92365847480E+03  0.00000000000E+00 0. -1.
         21   -1    0    0  503  502 -0.00000000000E+00 -0.00000000000E+00 -0.46905346373E+03  0.46905346373E+03  0.00000000000E+00 0.  1.
         21    1    1    2  503  506 -0.11304283507E+03 -0.62256946599E+02  0.37149159248E+03  0.39326913589E+03  0.00000000000E+00 0. -1.
         21    1    1    2  504  502  0.23101644610E+03  0.19914030550E+03 -0.28755658107E+03  0.41918283238E+03  0.00000000000E+00 0.  1.
         21    1    1    2  505  504  0.86671903356E+02  0.28489081780E+02 -0.34177236648E+02  0.97425510606E+02  0.00000000000E+00 0.  1.
         21    1    1    2  506  501 -0.20464551438E+03 -0.16537244069E+03  0.40484723631E+03  0.48283445967E+03  0.00000000000E+00 0. -1.
<scales pt_clust_3="77.08437" pt_clust_4="404.19244" pt_clust_5="56.39036" pt_clust_6="77.08437"></scales>
<clustering>
<clus scale="   56.390">  4  5 -1 -1</clus>
<clus scale="   77.084">  3  6 -1 -1</clus>
<clus scale="  404.192">  2  4  1 -1</clus>
<clus scale="  406.024">  1  3  2 -1</clus>
</clustering>
</event>
<event>
 6    0  0.3042851E+002  0.3482950E+03  0.7546771E-02  0.1063317E+00
         21   -1    0    0  505  501  0.00000000000E+00  0.00000000000E+00  0.11746657003E+04  0.11746657003E+04  0.00000000000E+00 0.  1.
         21   -1    0    0  503  502 -0.00000000000E+00 -0.00000000000E+00 -0.12924584132E+03  0.12924584132E+03  0.00000000000E+00 0. -1.
         21    1    1    2  503  504  0.39238258822E+02  0.41580629270E+02  0.10098382919E+03  0.11604448907E+03  0.00000000000E+00 0. -1.
         21    1    1    2  504  501  0.81338410477E+02  0.27176972635E+03  0.71910555866E+03  0.77303785527E+03  0.00000000000E+00 0.  1.
         21    1    1    2  505  506 -0.80116716198E+02 -0.22844140695E+03  0.20804659605E+03  0.31919829378E+03  0.00000000000E+00 0. -1.
         21    1    1    2  506  502 -0.40459953101E+02 -0.84908948673E+02  0.17283875092E+02  0.95630903519E+02  0.00000000000E+00 0. -1.
<scales pt_clust_3="32.35272" pt_clust_4="343.39600" pt_clust_5="57.74470" pt_clust_6="57.74470"></scales>
<clustering>
<clus scale="   32.353">  3  4 -1 -1</clus>
<clus scale="   57.745">  5  6 -1 -1</clus>
<clus scale="  343.396">  1  3  2 -1</clus>
<clus scale="  343.396">  1  3  2 -1</clus>
</clustering>
</event>
<event>
 6    0  0.3042851E+002  0.1494569E+03  0.7546771E-02  0.1201142E+00
         21   -1    0    0  503  501  0.00000000000E+00  0.00000000000E+00  0.40919761214E+02  0.40919761214E+02  0.00000000000E+00 0.  1.
         21   -1    0    0  506  502 -0.00000000000E+00 -0.00000000000E+00 -0.29209550865E+04  0.29209550865E+04  0.00000000000E+00 0.  1.
         21    1    1    2  503  505  0.18071389051E+03  0.75865744903E+02 -0.32924931778E+03  0.38316867661E+03  0.00000000000E+00 0.  1.
         21    1    1    2  504  501 -0.32421198941E+02 -0.98378361632E+02 -0.25118592798E+03  0.27170536725E+03  0.00000000000E+00 0.  1.
         21    1    1    2  505  502 -0.13504489557E+02  0.32011900390E+02 -0.19526128807E+03  0.19832827238E+03  0.00000000000E+00 0.  1.
         21    1    1    2  506  504 -0.13478820202E+03 -0.94992836611E+01 -0.21043387915E+04  0.21086725315E+04  0.00000000000E+00 0.  1.
<scales pt_clust_3="149.45691" pt_clust_4="101.09453" pt_clust_5="34.74382" pt_clust_6="14000.00000"></scales>
<clustering>
<clus scale="   34.744">  2  5  1 -1</clus>
<clus scale="  101.095">  1  4  2 -1</clus>
<clus scale="  149.457">  1  3  2 -1</clus>
<clus scale="  101.095">  1  3  2 -1</clus>
</clustering>
</event>
<event>
 6    0  0.3042851E+002  0.1933242E+03  0.7546771E-02  0.1155497E+00
         21   -1    0    0  503  501  0.00000000000E+00  0.00000000000E+00  0.13584732485E+04  0.13584732485E+04  0.00000000000E+00 0. -1.
         21   -1    0    0  506  502 -0.00000000000E+00 -0.00000000000E+00 -0.11890442795E+04  0.11890442795E+04  0.00000000000E+00 0. -1.
         21    1    1    2  503  502 -0.68553081873E+02 -0.42923295264E+02  0.41871177911E+03  0.42645221101E+03  0.00000000000E+00 0. -1.
         21    1    1    2  504  501  0.52632315169E+02 -0.14258260625E+03  0.92170988963E+03  0.93415688236E+03  0.00000000000E+00 0. -1.
         21    1    1    2  505  504  0.19040859030E+02  0.75377554355E+02 -0.34829375438E+03  0.35686533784E+03  0.00000000000E+00 0.  1.
         21    1    1    2  506  505 -0.31200923266E+01  0.11012834716E+03 -0.82269894535E+03  0.83004309678E+03  0.00000000000E+00 0. -1.
<scales pt_clust_3="80.88222" pt_clust_4="185.77517" pt_clust_5="44.93880" pt_clust_6="44.93880"></scales>
<clustering>
<clus scale="   44.939">  5  6 -1 -1</clus>
<clus scale="   80.882">  1  3  2 -1</clus>
<clus scale="  185.775">  1  4  2 -1</clus>
<clus scale="   80.882">  1  3  2 -1</clus>
</clustering>
</event>
<event>
 6    0  0.3042851E+002  0.7170446E+02  0.7546771E-02  0.1354391E+00
         21   -1    0    0  506  501  0.00000000000E+00  0.00000000000E+00  0.14317967434E+03  0.14317967434E+03  0.00000000000E+00 0.  1.
         21   -1    0    0  503  502 -0.00000000000E+00 -0.00000000000E+00 -0.10230175883E+04  0.10230175883E+04  0.00000000000E+00 0. -1.
         21    1    1    2  503  505 -0.34677680412E+02 -0.31140349578E+02 -0.13575972391E+03  0.14353733147E+03  0.00000000000E+00 0. -1.
         21    1    1    2  504  502  0.10866706776E+03  0.29324353022E+02 -0.83750082149E+03  0.84503022152E+03  0.00000000000E+00 0. -1.
         21    1    1    2  505  501 -0.23025427982E+02  0.35735842992E+02  0.10681350004E+03  0.11496236166E+03  0.00000000000E+00 0.  1.
         21    1    1    2  506  504 -0.50963959363E+02 -0.33919846436E+02 -0.13390868561E+02  0.62667347933E+02  0.00000000000E+00 0. -1.
<scales pt_clust_3="46.07340" pt_clust_4="14000.00000" pt_clust_5="42.51142" pt_clust_6="71.70446"></scales>
<clustering>
<clus scale="   42.511">  1  5  2 -1</clus>
<clus scale="   46.073">  2  3  1 -1</clus>
<clus scale="   71.704">  1  6  2 -1</clus>
<clus scale="   42.511">  1  3  2 -1</clus>
</clustering>
</event>
<event>
 6    0  0.3042851E+002  0.2121844E+03  0.7546771E-02  0.1139848E+00
         21   -1    0    0  505  501  0.00000000000E+00  0.00000000000E+00  0.65295327135E+03  0.65295327135E+03  0.00000000000E+00 0. -1.
         21   -1    0    0  503  502 -0.00000000000E+00 -0.00000000000E+00 -0.14087037231E+03  0.14087037231E+03  0.00000000000E+00 0. -1.
         21    1    1    2  503  501  0.18165330277E+03 -0.11652176598E+02  0.24354356183E+03  0.30405124920E+03  0.00000000000E+00 0. -1.
         21    1    1    2  504  502 -0.14745443523E+03  0.26727820547E+02 -0.14618504991E+02  0.15056854768E+03  0.00000000000E+00 0. -1.
         21    1    1    2  505  506  0.26959405734E+02 -0.47316433368E+02  0.26097468914E+03  0.26659602922E+03  0.00000000000E+00 0. -1.
         21    1    1    2  506  504 -0.61158273275E+02  0.32240789418E+02  0.22183153059E+02  0.72607817567E+02  0.00000000000E+00 0. -1.
<scales pt_clust_3="205.59258" pt_clust_4="35.64415" pt_clust_5="54.45782" pt_clust_6="35.64415"></scales>
<clustering>
<clus scale="   35.644">  4  6 -1 -1</clus>
<clus scale="   54.458">  1  5  2 -1</clus>
<clus scale="  205.593">  1  3  2 -1</clus>
<clus scale="   54.458">  1  3  2 -1</clus>
</clustering>
</event>
<event>
 6    0  0.3042851E+002  0.1001406E+03  0.7546771E-02  0.1280000E+00
         21   -1    0    0  506  501  0.00000000000E+00  0.00000000000E+00  0.50863659404E+03  0.50863659404E+03  0.00000000000E+00 0.  1.
         21   -1    0    0  505  502 -0.00000000000E+00 -0.00000000000E+00 -0.23172479371E+04  0.23172479371E+04  0.00000000000E+00 0. -1.
         21    1    1    2  503  502 -0.24218581484E+02 -0.73526869303E+02 -0.14020792759E+04  0.14042147401E+04  0.00000000000E+00 0. -1.
         21    1    1    2  504  503 -0.75313555012E+02  0.57737504743E+02 -0.90326604313E+03  0.90823746658E+03  0.00000000000E+00 0. -1.
         21    1    1    2  505  501  0.28795414238E+02 -0.99383133066E+01  0.38679548699E+02  0.49234677211E+02  0.00000000000E+00 0.  1.
         21    1    1    2  506  504  0.70736722259E+02  0.25727677867E+02  0.45805442735E+03  0.46419764724E+03  0.00000000000E+00 0.  1.
<scales pt_clust_3="77.41381" pt_clust_4="100.14065" pt_clust_5="30.46221" pt_clust_6="14000.00000"></scales>
<clustering>
<clus scale="   30.462">  1  5  2 -1</clus>
<clus scale="   77.414">  2  3  1 -1</clus>
<clus scale="  100.141">  2  4  1 -1</clus>
<clus scale="   30.462">  1  3  2 -1</clus>
</clustering>
</event>
<event>
 6    0  0.3042851E+002  0.8183993E+02  0.7546771E-02  0.1323910E+00
         21   -1    0    0  505  501  0.00000000000E+00  0.00000000000E+00  0.64811028636E+03  0.64811028636E+03  0.00000000000E+00 0. -1.
         21   -1    0    0  503  502 -0.00000000000E+00 -0.00000000000E+00 -0.65583614683E+02  0.65583614683E+02  0.00000000000E+00 0. -1.
         21    1    1    2  503  504  0.63903663172E+02 -0.53595637640E+02  0.38501569408E+02  0.91861533777E+02  0.00000000000E+00 0. -1.
         21    1    1    2  504  501  0.26059827635E+02 -0.60484682646E+02  0.11107401858E+03  0.12913151844E+03  0.00000000000E+00 0. -1.
         21    1    1    2  505  506 -0.66881973218E+02  0.64181382975E+02  0.42752085388E+03  0.43745460194E+03  0.00000000000E+00 0. -1.
         21    1    1    2  506  502 -0.23081517589E+02  0.49898937311E+02  0.54302298136E+01  0.55246246885E+02  0.00000000000E+00 0. -1.
<scales pt_clust_3="53.04068" pt_clust_4="81.83993" pt_clust_5="14000.00000" pt_clust_6="54.97873"></scales>
<clustering>
<clus scale="   54.979">  2  6  1 -1</clus>
<clus scale="   53.041">  2  3  1 -1</clus>
<clus scale="   81.840">  2  4  1 -1</clus>
<clus scale="   81.840">  1  3  2 -1</clus>
</clustering>
</event>
<event>
 6    0  0.3042851E+002  0.1673921E+03  0.7546771E-02  0.1180595E+00
         21   -1    0    0  502  501  0.00000000000E+00  0.00000000000E+00  0.15954674201E+03  0.15954674201E+03  0.00000000000E+00 0. -1.
         21   -1    0    0  504  502 -0.00000000000E+00 -0.00000000000E+00 -0.48218056212E+03  0.48218056212E+03  0.00000000000E+00 0. -1.
         21    1    1    2  503  506  0.21442017069E+02 -0.10169397259E+03 -0.18252234596E+03  0.21003768931E+03  0.00000000000E+00 0. -1.
         21    1    1    2  504  503  0.29431243753E+02 -0.42287719804E+02 -0.18535408610E+03  0.19238135718E+03  0.00000000000E+00 0. -1.
         21    1    1    2  505  501  0.27007784865E+02 -0.20379658473E+02  0.46399374141E+02  0.57425193456E+02  0.00000000000E+00 0. -1.
         21    1    1    2  506  505 -0.77881045688E+02  0.16436135087E+03 -0.11567621915E+01  0.18188306418E+03  0.00000000000E+00 0. -1.
<scales pt_clust_3="40.15762" pt_clust_4="40.15762" pt_clust_5="33.83417" pt_clust_6="157.26069"></scales>
<clustering>
<clus scale="   33.834">  1  5  2 -1</clus>
<clus scale="   40.158">  3  4 -1 -1</clus>
<clus scale="  157.261">  1  6  2 -1</clus>
<clus scale="   33.834">  1  3  2 -1</clus>
</clustering>
</event>
<event>
 6    0  0.3042851E+002  0.1980358E+03  0.7546771E-02  0.1151407E+00
         21   -1    0    0  502  501  0.00000000000E+00  0.00000000000E+00  0.44159562086E+02  0.44159562086E+02  0.00000000000E+00 0. -1.
         21   -1    0    0  506  502 -0.00000000000E+00 -0.00000000000E+00 -0.11666920591E+04  0.11666920591E+04  0.00000000000E+00 0. -1.
         21    1    1    2  503  501 -0.18002805406E+02 -0.37980187267E+02 -0.49779042718E+02  0.65150201237E+02  0.00000000000E+00 0. -1.
         21    1    1    2  504  503 -0.18026520250E+03  0.46876203509E+00 -0.34791248127E+03  0.39184034707E+03  0.00000000000E+00 0. -1.
         21    1    1    2  505  504  0.11896948192E+03  0.11882277795E+02 -0.49931575945E+03  0.51343076825E+03  0.00000000000E+00 0. -1.
         21    1    1    2  506  505  0.79298525984E+02  0.25629147436E+02 -0.22552521353E+03  0.24043030457E+03  0.00000000000E+00 0. -1.
<scales pt_clust_3="42.03089" pt_clust_4="192.41470" pt_clust_5="39.11280" pt_clust_6="39.11280"></scales>
<clustering>
<clus scale="   39.113">  5  6 -1 -1</clus>
<clus scale="   42.031">  1  3  2 -1</clus>
<clus scale="  192.415">  1  4  2 -1</clus>
<clus scale="   42.031">  1  3  2 -1</clus>
</clustering>
</event>
<event>
 6    0  0.3042851E+002  0.9005750E+02  0.7546771E-02  0.1302713E+00
         21   -1    0    0  505  501  0.00000000000E+00  0.00000000000E+00  0.16865798200E+04  0.16865798200E+04  0.00000000000E+00 0. -1.
         21   -1    0    0  503  502 -0.00000000000E+00 -0.00000000000E+00 -0.72765041063E+02  0.72765041063E+02  0.00000000000E+00 0. -1.
         21    1    1    2  503  506  0.68552044144E+02  0.92559785243E+02  0.92503769590E+02  0.14772827755E+03  0.00000000000E+00 0. -1.
         21    1    1    2  504  502 -0.32284636185E+02 -0.76164952258E+02 -0.60150153324E+01  0.82943222119E+02  0.00000000000E+00 0. -1.
         21    1    1    2  505  504 -0.78696714341E+01 -0.30856884928E+02  0.67256048416E+03  0.67331395643E+03  0.00000000000E+00 0. -1.
         21    1    1    2  506  501 -0.28397736525E+02  0.14462051943E+02  0.85476554048E+03  0.85535940492E+03  0.00000000000E+00 0. -1.
<scales pt_clust_3="14000.00000" pt_clust_4="90.05750" pt_clust_5="31.84461" pt_clust_6="36.89637"></scales>
<clustering>
<clus scale="   31.845">  1  5  2 -1</clus>
<clus scale="   36.896">  1  6  2 -1</clus>
<clus scale="   90.058">  2  4  1 -1</clus>
<clus scale="   31.845">  1  3  2 -1</clus>
</clustering>
</event>
<event>
 6    0  0.3042851E+002  0.1073437E+03  0.7546771E-02  0.1265569E+00
         21   -1    0    0  503  501  0.00000000000E+00  0.00000000000E+00  0.22910954411E+03  0.22910954411E+03  0.00000000000E+00 0. -1.
         21   -1    0    0  505  502 -0.00000000000E+00 -0.00000000000E+00 -0.20865124147E+03  0.20865124147E+03  0.00000000000E+00 0.  1.
         21    1    1    2  503  506 -0.40927374776E+02 -0.10251384833E+03  0.70506027235E+02  0.13097800954E+03  0.00000000000E+00 0. -1.
         21    1    1    2  504  501 -0.33695234024E+02  0.11254623224E+03  0.62872540329E+02  0.13324781242E+03  0.00000000000E+00 0.  1.
         21    1    1    2  505  504  0.79803087932E+02  0.34146215683E+02 -0.81587594781E+02  0.11912612019E+03  0.00000000000E+00 0.  1.
         21    1    1    2  506  502 -0.51804791315E+01 -0.44178599590E+02 -0.31332670137E+02  0.54408843432E+02  0.00000000000E+00 0. -1.
<scales pt_clust_3="107.34374" pt_clust_4="14000.00000" pt_clust_5="77.02355" pt_clust_6="44.48130"></scales>
<clustering>
<clus scale="   44.481">  2  6  1 -1</clus>
<clus scale="   77.024">  2  5  1 -1</clus>
<clus scale="  107.344">  1  3  2 -1</clus>
<clus scale="  107.344">  1  3  2 -1</clus>
</clustering>
</event>
<event>
 6    0  0.3042851E+002  0.5904167E+02  0.7546771E-02  0.1401898E+00
         21   -1    0    0  506  501  0.00000000000E+00  0.00000000000E+00  0.82825987052E+02  0.82825987052E+02  0.00000000000E+00 0. -1.
         21   -1    0    0  503  502 -0.00000000000E+00 -0.00000000000E+00 -0.53957651079E+03  0.53957651079E+03  0.00000000000E+00 0. -1.
         21    1    1    2  503  505 -0.54433985819E+01  0.60739640032E+02 -0.20207969128E+03  0.21108087570E+03  0.00000000000E+00 0. -1.
         21    1    1    2  504  502 -0.51822333600E+02 -0.57637582024E+02 -0.27908134126E+03  0.28964467915E+03  0.00000000000E+00 0. -1.
         21    1    1    2  505  501  0.62612639579E+02  0.36222026532E+02 -0.46563910394E+01  0.72484893728E+02  0.00000000000E+00 0. -1.
         21    1    1    2  506  504 -0.53469073976E+01 -0.39324084540E+02  0.29066899844E+02  0.49192049258E+02  0.00000000000E+00 0. -1.
<scales pt_clust_3="57.00541" pt_clust_4="14000.00000" pt_clust_5="59.04167" pt_clust_6="39.68593"></scales>
<clustering>
<clus scale="   39.686">  1  6  2 -1</clus>
<clus scale="   57.005">  2  3  1 -1</clus>
<clus scale="   59.042">  1  5  2 -1</clus>
<clus scale="   39.686">  1  3  2 -1</clus>
</clustering>
</event>
<event>
 6    0  0.3042851E+002  0.1311997E+03  0.7546771E-02  0.1225686E+00
         21   -1    0    0  504  501  0.00000000000E+00  0.00000000000E+00  0.22466507779E+02  0.22466507779E+02  0.00000000000E+00 0.  1.
         21   -1    0    0  501  502 -0.00000000000E+00 -0.00000000000E+00 -0.10227763844E+04  0.10227763844E+04  0.00000000000E+00 0.  1.
         21    1    1    2  503  505 -0.33950901133E+02  0.55712509763E+02 -0.33318359546E+03  0.33951120117E+03  0.00000000000E+00 0.  1.
         21    1    1    2  504  506  0.37812115883E+01 -0.68054721148E+02 -0.14475248065E+03  0.15999694774E+03  0.00000000000E+00 0.  1.
         21    1    1    2  505  502  0.34382100120E+01  0.64581087992E+02 -0.43924644964E+03  0.44398196105E+03  0.00000000000E+00 0. -1.
         21    1    1    2  506  503  0.26731479533E+02 -0.52238876608E+02 -0.83127350837E+02  0.10175278220E+03  0.00000000000E+00 0.  1.
<scales pt_clust_3="42.37885" pt_clust_4="128.77773" pt_clust_5="42.37885" pt_clust_6="31.90200"></scales>
<clustering>
<clus scale="   31.902">  4  6 -1 -1</clus>
<clus scale="   42.379">  3  5 -1 -1</clus>
<clus scale="  128.778">  1  4  2 -1</clus>
<clus scale="  128.778">  1  3  2 -1</clus>
</clustering>
</event>
<event>
 6    0  0.3042851E+002  0.1626835E+03  0.7546771E-02  0.1185700E+00
         21   -1    0    0  503  501  0.00000000000E+00  0.00000000000E+00  0.25674370575E+03  0.25674370575E+03  0.00000000000E+00 0.  1.
         21   -1    0    0  505  502 -0.00000000000E+00 -0.00000000000E+00 -0.18088932122E+03  0.18088932122E+03  0.00000000000E+00 0.  1.
         21    1    1    2  503  504  0.10583978348E+03  0.89387634556E+02  0.40290234054E+02  0.14427581896E+03  0.00000000000E+00 0.  1.
         21    1    1    2  504  502  0.52818216596E+02 -0.28043432864E+02 -0.64312197458E+02  0.87819456119E+02  0.00000000000E+00 0.  1.
         21    1    1    2  505  506 -0.11713224591E+03 -0.16832877613E+02  0.72608846437E+02  0.13883570644E+03  0.00000000000E+00 0.  1.
         21    1    1    2  506  501 -0.41525754161E+02 -0.44511324078E+02  0.27267501496E+02  0.66702045454E+02  0.00000000000E+00 0.  1.
<scales pt_clust_3="152.08848" pt_clust_4="59.80132" pt_clust_5="41.41970" pt_clust_6="41.41970"></scales>
<clustering>
<clus scale="   41.420">  5  6 -1 -1</clus>
<clus scale="   59.801">  2  4  1 -1</clus>
<clus scale="  152.088">  2  3  1 -1</clus>
<clus scale="  162.683">  1  3  2 -1</clus>
</clustering>
</event>
<event>
 6    0  0.3042851E+002  0.9818629E+02  0.7546771E-02  0.1284157E+00
         21   -1    0    0  506  501  0.00000000000E+00  0.00000000000E+00  0.12244588904E+04  0.12244588904E+04  0.00000000000E+00 0.  1.
         21   -1    0    0  503  502 -0.00000000000E+00 -0.00000000000E+00 -0.87441076529E+02  0.87441076529E+02  0.00000000000E+00 0.  1.
         21    1    1    2  503  505  0.93045459236E+01  0.41591840699E+02 -0.29391416265E+02  0.51771721409E+02  0.00000000000E+00 0.  1.
         21    1    1    2  504  502  0.82309283155E+01 -0.13698001651E+03  0.68633850574E+02  0.15343362913E+03  0.00000000000E+00 0.  1.
         21    1    1    2  505  501  0.28315409108E+02  0.36533759124E+02  0.17817598733E+03  0.18407379067E+03  0.00000000000E+00 0.  1.
         21    1    1    2  506  504 -0.45850883347E+02  0.58854416685E+02  0.91959939223E+03  0.92262082573E+03  0.00000000000E+00 0.  1.
<scales pt_clust_3="42.61990" pt_clust_4="98.18629" pt_clust_5="48.66291" pt_clust_6="14000.00000"></scales>
<clustering>
<clus scale="   42.620">  2  3  1 -1</clus>
<clus scale="   48.663">  1  5  2 -1</clus>
<clus scale="   98.186">  2  4  1 -1</clus>
<clus scale="   48.663">  1  3  2 -1</clus>
</clustering>
</event>
<event>
 6    0  0.3042851E+002  0.1149081E+03  0.7546771E-02  0.1251742E+00
         21   -1    0    0  505  501  0.00000000000E+00  0.00000000000E+00  0.56066745146E+03  0.56066745146E+03  0.00000000000E+00 0.  1.
         21   -1    0    0  504  502 -0.00000000000E+00 -0.00000000000E+00 -0.11996789767E+04  0.11996789767E+04  0.00000000000E+00 0. -1.
         21    1    1    2  503  502 -0.31014214295E+02  0.21482893266E+02 -0.11737102261E+03  0.12328565666E+03  0.00000000000E+00 0.  1.
         21    1    1    2  504  501  0.56815701395E+02 -0.22166647064E+02  0.19442018744E+03  0.20376111860E+03  0.00000000000E+00 0.  1.
         21    1    1    2  505  506 -0.74859212158E+01 -0.82784131847E+02  0.35207348128E+03  0.36175266098E+03  0.00000000000E+00 0.  1.
         21    1    1    2  506  503 -0.18315565884E+02  0.83467885645E+02 -0.10681341714E+04  0.10715469920E+04  0.00000000000E+00 0. -1.
<scales pt_clust_3="37.72792" pt_clust_4="60.82795" pt_clust_5="14000.00000" pt_clust_6="114.90812"></scales>
<clustering>
<clus scale="   37.728">  2  3  1 -1</clus>
<clus scale="   60.828">  1  4  2 -1</clus>
<clus scale="  114.908">  2  6  1 -1</clus>
<clus scale="   60.828">  1  3  2 -1</clus>
</clustering>
</event>
<event>
 6    0  0.3042851E+002  0.1317879E+03  0.7546771E-02  0.1224827E+00
         21   -1    0    0  506  501  0.00000000000E+00  0.00000000000E+00  0.17486194506E+04  0.17486194506E+04  0.00000000000E+00 0. -1.
         21   -1    0    0  505  502 -0.00000000000E+00 -0.00000000000E+00 -0.88334802844E+02  0.88334802844E+02  0.00000000000E+00 0. -1.
         21    1    1    2  503  504  0.27499168821E+02  0.53011174171E+02  0.33388900677E+01  0.59812515912E+02  0.00000000000E+00 0. -1.
         21    1    1    2  504  502  0.33201291775E+02  0.57051049302E+02 -0.35179497064E+02  0.74798028154E+02  0.00000000000E+00 0. -1.
         21    1    1    2  505  501 -0.76216909122E+02 -0.13599157162E+03  0.14401971159E+04  0.14486098362E+04  0.00000000000E+00 0. -1.
         21    1    1    2  506  503  0.15516448527E+02  0.25929348147E+02  0.25192813882E+03  0.25373387318E+03  0.00000000000E+00 0. -1.
<scales pt_clust_3="34.47786" pt_clust_4="34.47786" pt_clust_5="126.72847" pt_clust_6="30.21740"></scales>
<clustering>
<clus scale="   30.217">  1  6  2 -1</clus>
<clus scale="   34.478">  3  4 -1 -1</clus>
<clus scale="  126.728">  1  5  2 -1</clus>
<clus scale="   30.217">  1  3  2 -1</clus>
</clustering>
</event>
<event>
 6    0  0.3042851E+002  0.9090443E+02  0.7546771E-02  0.1300676E+00
         21   -1    0    0  504  501  0.00000000000E+00  0.00000000000E+00  0.11570604716E+03  0.11570604716E+03  0.00000000000E+00 0.  1.
         21   -1    0    0  505  502 -0.00000000000E+00 -0.00000000000E+00 -0.83334344538E+03  0.83334344538E+03  0.00000000000E+00 0. -1.
         21    1    1    2  503  502 -0.55121624658E+02 -0.36017889454E+02 -0.63823233417E+03  0.64161997650E+03  0.00000000000E+00 0. -1.
         21    1    1    2  504  503  0.11993954005E+03  0.23702505772E+02  0.57076738754E+02  0.13492611369E+03  0.00000000000E+00 0.  1.
         21    1    1    2  505  506 -0.15199888055E+02 -0.26336530243E+02 -0.87954995452E+02  0.93063046625E+02  0.00000000000E+00 0. -1.
         21    1    1    2  506  501 -0.49618027339E+02  0.38651913925E+02 -0.48526807351E+02  0.79440355731E+02  0.00000000000E+00 0. -1.
<scales pt_clust_3="90.90443" pt_clust_4="14000.00000" pt_clust_5="30.40805" pt_clust_6="62.58866"></scales>
<clustering>
<clus scale="   30.408">  2  5  1 -1</clus>
<clus scale="   62.589">  1  6  2 -1</clus>
<clus scale="   90.904">  2  3  1 -1</clus>
<clus scale="   62.589">  1  3  2 -1</clus>
</clustering>
</event>
<event>
 6    0  0.3042851E+002  0.1223293E+03  0.7546771E-02  0.1239303E+00
         21   -1    0    0  505  501  0.00000000000E+00  0.00000000000E+00  0.44535516555E+03  0.44535516555E+03  0.00000000000E+00 0. -1.
         21   -1    0    0  506  502 -0.00000000000E+00 -0.00000000000E+00 -0.25026544118E+03  0.25026544118E+03  0.00000000000E+00 0. -1.
         21    1    1    2  503  504  0.40963383138E+02 -0.37106732691E+02 -0.64480982423E+02  0.84927648404E+02  0.00000000000E+00 0. -1.
         21    1    1    2  504  501 -0.21364874459E+02 -0.22176507723E+02  0.10897951390E+03  0.11324658849E+03  0.00000000000E+00 0. -1.
         21    1    1    2  505  502 -0.77326399097E+02  0.76496742114E+02  0.30920496088E+03  0.32777863168E+03  0.00000000000E+00 0. -1.
         21    1    1    2  506  503  0.57727890418E+02 -0.17213501701E+02 -0.15861376799E+03  0.16966773815E+03  0.00000000000E+00 0. -1.
<scales pt_clust_3="46.58368" pt_clust_4="30.79376" pt_clust_5="112.28345" pt_clust_6="46.58368"></scales>
<clustering>
<clus scale="   30.794">  1  4  2 -1</clus>
<clus scale="   46.584">  3  6 -1 -1</clus>
<clus scale="  112.283">  1  5  2 -1</clus>
<clus scale="   30.794">  1  3  2 -1</clus>
</clustering>
</event>
<event>
 6    0  0.3128742E+002  0.1132629E+03  0.7546771E-02  0.1254644E+00
         21   -1    0    0  506  501  0.00000000000E+00  0.00000000000E+00  0.63047303108E+03  0.63047303108E+03  0.00000000000E+00 0.  1.
         21   -1    0    0  504  502 -0.00000000000E+00 -0.00000000000E+00 -0.55760993127E+03  0.55760993127E+03  0.00000000000E+00 0.  1.
         21    1    1    2  503  502  0.37274497245E+01 -0.69611711668E+02 -0.55620300268E+02  0.89181287750E+02  0.00000000000E+00 0.  1.
         21    1    1    2  504  505 -0.58516166298E+01  0.13969603374E+03 -0.46745937586E+03  0.48792160369E+03  0.00000000000E+00 0.  1.
         21    1    1    2  505  501 -0.28003205448E+02 -0.13446049154E+02  0.36752701921E+02  0.48122103567E+02  0.00000000000E+00 0.  1.
         21    1    1    2  506  503  0.30127372353E+02 -0.56638272919E+02  0.55919007402E+03  0.56285796735E+03  0.00000000000E+00 0.  1.
<scales pt_clust_3="113.26289" pt_clust_4="14000.00000" pt_clust_5="31.06406" pt_clust_6="69.55034"></scales>
<clustering>
<clus scale="   31.064">  1  5  2 -1</clus>
<clus scale="   69.550">  1  6  2 -1</clus>
<clus scale="  113.263">  1  3  2 -1</clus>
<clus scale="   31.064">  1  3  2 -1</clus>
</clustering>
</event>
<event>
 6    0  0.3042851E+002  0.1447706E+03  0.7546771E-02  0.1207050E+00
         21   -1    0    0  504  501  0.00000000000E+00  0.00000000000E+00  0.53118850370E+02  0.53118850370E+02  0.00000000000E+00 0.  1.
         21   -1    0    0  506  502 -0.00000000000E+00 -0.00000000000E+00 -0.12082503388E+04  0.12082503388E+04  0.00000000000E+00 0.  1.
         21    1    1    2  503  501 -0.83372413624E+02 -0.23742660371E+02 -0.48355855679E+02  0.99262087695E+02  0.00000000000E+00 0.  1.
         21    1    1    2  504  505  0.16411859296E+03  0.83419377439E+02 -0.54482842273E+03  0.57509278843E+03  0.00000000000E+00 0.  1.
         21    1    1    2  505  502  0.36322476429E+02 -0.17269054669E+02 -0.20674978311E+03  0.21062529611E+03  0.00000000000E+00 0.  1.
         21    1    1    2  506  503 -0.11706865576E+03 -0.42407662399E+02 -0.35519742695E+03  0.37638901698E+03  0.00000000000E+00 0.  1.
<scales pt_clust_3="84.47970" pt_clust_4="144.77055" pt_clust_5="40.21868" pt_clust_6="14000.00000"></scales>
<clustering>
<clus scale="   40.219">  2  5  1 -1</clus>
<clus scale="   84.480">  1  3  2 -1</clus>
<clus scale="  144.771">  1  4  2 -1</clus>
<clus scale="   84.480">  1  3  2 -1</clus>
</clustering>
</event>
<event>
 6    0  0.3042851E+002  0.9780567E+02  0.7546771E-02  0.1284979E+00
         21   -1    0    0  503  501  0.00000000000E+00  0.00000000000E+00  0.12743609559E+04  0.12743609559E+04  0.00000000000E+00 0.  1.
         21   -1    0    0  504  502 -0.00000000000E+00 -0.00000000000E+00 -0.11104568884E+04  0.11104568884E+04  0.00000000000E+00 0.  1.
         21    1    1    2  503  505 -0.59933536972E+02 -0.36998993919E+00  0.10392315748E+04  0.10409584198E+04  0.00000000000E+00 0.  1.
         21    1    1    2  504  501  0.14071513446E+02 -0.29522758349E+02  0.12423359634E+03  0.12846628823E+03  0.00000000000E+00 0.  1.
         21    1    1    2  505  506  0.12559689711E+03 -0.26012410549E+02  0.66786230903E+02  0.14460852915E+03  0.00000000000E+00 0.  1.
         21    1    1    2  506  502 -0.79734873579E+02  0.55905158837E+02 -0.10663473346E+04  0.10707846071E+04  0.00000000000E+00 0.  1.
<scales pt_clust_3="54.42209" pt_clust_4="32.70475" pt_clust_5="97.80567" pt_clust_6="14000.00000"></scales>
<clustering>
<clus scale="   32.705">  1  4  2 -1</clus>
<clus scale="   54.422">  1  3  2 -1</clus>
<clus scale="   97.806">  1  5  2 -1</clus>
<clus scale="   32.705">  1  3  2 -1</clus>
</clustering>
</event>
<event>
 6    0  0.3042851E+002  0.1088702E+03  0.7546771E-02  0.1262677E+00
         21   -1    0    0  506  501  0.00000000000E+00  0.00000000000E+00  0.57727578091E+03  0.57727578091E+03  0.00000000000E+00 0. -1.
         21   -1    0    0  504  502 -0.00000000000E+00 -0.00000000000E+00 -0.61452256857E+03  0.61452256857E+03  0.00000000000E+00 0.  1.
         21    1    1    2  503  501  0.11954209877E+02  0.34574703222E+02  0.40911277366E+03  0.41074514581E+03  0.00000000000E+00 0. -1.
         21    1    1    2  504  503  0.78053448266E+02  0.31266084635E+02  0.14476508549E+03  0.16741218239E+03  0.00000000000E+00 0. -1.
         21    1    1    2  505  502 -0.40030855212E+02  0.34066199118E+02 -0.21034944154E+03  0.21681757966E+03  0.00000000000E+00 0.  1.
         21    1    1    2  506  505 -0.49976802931E+02 -0.99906986975E+02 -0.38077520526E+03  0.39682344162E+03  0.00000000000E+00 0.  1.
<scales pt_clust_3="36.58296" pt_clust_4="14000.00000" pt_clust_5="52.82522" pt_clust_6="108.87017"></scales>
<clustering>
<clus scale="   36.583">  1  3  2 -1</clus>
<clus scale="   52.825">  2  5  1 -1</clus>
<clus scale="  108.870">  2  6  1 -1</clus>
<clus scale="   36.583">  1  3  2 -1</clus>
</clustering>
</event>
<event>
 6    0  0.3042851E+002  0.9892663E+02  0.7546771E-02  0.1282569E+00
         21   -1    0    0  506  501  0.00000000000E+00  0.00000000000E+00  0.80016223079E+03  0.80016223079E+03  0.00000000000E+00 0. -1.
         21   -1    0    0  505  502 -0.00000000000E+00 -0.00000000000E+00 -0.84981875293E+02  0.84981875293E+02  0.00000000000E+00 0.  1.
         21    1    1    2  503  501 -0.16350870953E+03  0.10838964623E+02  0.52060394972E+03  0.54578480531E+03  0.00000000000E+00 0. -1.
         21    1    1    2  504  502  0.72333554091E+02  0.19502458614E+02  0.12978479126E+03  0.14985520005E+03  0.00000000000E+00 0.  1.
         21    1    1    2  505  503  0.92130742608E+02  0.20698935812E+02 -0.14162997360E+02  0.95483559692E+02  0.00000000000E+00 0.  1.
         21    1    1    2  506  504 -0.95558716693E+00 -0.51040359048E+02  0.78954611872E+02  0.94020541024E+02  0.00000000000E+00 0. -1.
<scales pt_clust_3="14000.00000" pt_clust_4="72.76949" pt_clust_5="98.92663" pt_clust_6="51.04930"></scales>
<clustering>
<clus scale="   51.049">  1  6  2 -1</clus>
<clus scale="   72.769">  1  4  2 -1</clus>
<clus scale="   98.927">  2  5  1 -1</clus>
<clus scale="   51.049">  1  3  2 -1</clus>
</clustering>
</event>
<event>
 6    0  0.3042851E+002  0.7823674E+02  0.7546771E-02  0.1334131E+00
         21   -1    0    0  503  501  0.00000000000E+00  0.00000000000E+00  0.80306980181E+03  0.80306980181E+03  0.00000000000E+00 0. -1.
         21   -1    0    0  506  502 -0.00000000000E+00 -0.00000000000E+00 -0.14374974233E+03  0.14374974233E+03  0.00000000000E+00 0.  1.
         21    1    1    2  503  502 -0.36775717367E+02 -0.33672316547E+02 -0.36229764855E+02  0.61635007511E+02  0.00000000000E+00 0.  1.
         21    1    1    2  504  505  0.12333106576E+03  0.24488659635E+02  0.81945182692E+02  0.15008417371E+03  0.00000000000E+00 0.  1.
         21    1    1    2  505  501 -0.43049498361E+02 -0.21243555700E+02  0.66171504996E+03  0.66345410942E+03  0.00000000000E+00 0. -1.
         21    1    1    2  506  504 -0.43505850029E+02  0.30427212612E+02 -0.48110408313E+02  0.71646253510E+02  0.00000000000E+00 0.  1.
<scales pt_clust_3="54.04422" pt_clust_4="78.23674" pt_clust_5="48.00571" pt_clust_6="14000.00000"></scales>
<clustering>
<clus scale="   48.006">  1  5  2 -1</clus>
<clus scale="   54.044">  2  3  1 -1</clus>
<clus scale="   78.237">  1  4  2 -1</clus>
<clus scale="   48.006">  1  3  2 -1</clus>
</clustering>
</event>
<event>
 6    0  0.3042851E+002  0.1121084E+03  0.7546771E-02  0.1256714E+00
         21   -1    0    0  503  501  0.00000000000E+00  0.00000000000E+00  0.80259734674E+03  0.80259734674E+03  0.00000000000E+00 0.  1.
         21   -1    0    0  506  502 -0.00000000000E+00 -0.00000000000E+00 -0.38536224980E+02  0.38536224980E+02  0.00000000000E+00 0.  1.
         21    1    1    2  503  502 -0.94601743727E+01 -0.54243568995E+02  0.47228266031E+02  0.72542186270E+02  0.00000000000E+00 0. -1.
         21    1    1    2  504  505  0.32575035292E+02  0.36597298354E+02  0.23383145350E+03  0.23890927947E+03  0.00000000000E+00 0.  1.
         21    1    1    2  505  501  0.66190614025E+02 -0.60102418440E+01  0.40001042825E+03  0.40549434410E+03  0.00000000000E+00 0.  1.
         21    1    1    2  506  504 -0.89305474944E+02  0.23656512485E+02  0.82990973979E+02  0.12418776188E+03  0.00000000000E+00 0.  1.
<scales pt_clust_3="55.06233" pt_clust_4="45.51558" pt_clust_5="45.51558" pt_clust_6="98.78270"></scales>
<clustering>
<clus scale="   45.516">  4  5 -1 -1</clus>
<clus scale="   55.062">  2  3  1 -1</clus>
<clus scale="   98.783">  2  6  1 -1</clus>
<clus scale="  112.108">  1  3  2 -1</clus>
</clustering>
</event>
<event>
 6    0  0.3042851E+002  0.8032458E+02  0.7546771E-02  0.1328133E+00
         21   -1    0    0  502  501  0.00000000000E+00  0.00000000000E+00  0.21953478889E+03  0.21953478889E+03  0.00000000000E+00 0. -1.
         21   -1    0    0  506  502 -0.00000000000E+00 -0.00000000000E+00 -0.20224190094E+03  0.20224190094E+03  0.00000000000E+00 0. -1.
         21    1    1    2  503  505 -0.75088261957E+02 -0.35410863361E+01 -0.76596116523E+02  0.10732078756E+03  0.00000000000E+00 0. -1.
         21    1    1    2  504  501  0.54270500349E+02 -0.18348846335E+02  0.13173002589E+03  0.14364806678E+03  0.00000000000E+00 0. -1.
         21    1    1    2  505  504  0.47183406320E+02 -0.36514976766E+02  0.38600171480E+02  0.71060471420E+02  0.00000000000E+00 0. -1.
         21    1    1    2  506  503 -0.26365644712E+02  0.58404909437E+02 -0.76441192893E+02  0.99747364067E+02  0.00000000000E+00 0. -1.
<scales pt_clust_3="80.32458" pt_clust_4="57.28846" pt_clust_5="14000.00000" pt_clust_6="58.82342"></scales>
<clustering>
<clus scale="   57.288">  1  4  2 -1</clus>
<clus scale="   58.823">  2  6  1 -1</clus>
<clus scale="   80.325">  2  3  1 -1</clus>
<clus scale="   57.288">  1  3  2 -1</clus>
</clustering>
</event>
<event>
 6    0  0.3042851E+002  0.1868540E+03  0.7546771E-02  0.1161330E+00
         21   -1    0    0  505  501  0.00000000000E+00  0.00000000000E+00  0.10484591430E+03  0.10484591430E+03  0.00000000000E+00 0.  1.
         21   -1    0    0  503  502 -0.00000000000E+00 -0.00000000000E+00 -0.19913826066E+04  0.19913826066E+04  0.00000000000E+00 0. -1.
         21    1    1    2  503  501 -0.11047524396E+03 -0.11166678897E+03  0.16884998913E+02  0.15798529829E+03  0.00000000000E+00 0.  1.
         21    1    1    2  504  502  0.11163958419E+03  0.22148479825E+02 -0.37924518063E+03  0.39595562750E+03  0.00000000000E+00 0. -1.
         21    1    1    2  505  506 -0.49391546862E+02 -0.14910918097E+02 -0.91839626036E+02  0.10533934351E+03  0.00000000000E+00 0.  1.
         21    1    1    2  506  504  0.48227206636E+02  0.10442922724E+03 -0.14323368846E+04  0.14369482516E+04  0.00000000000E+00 0. -1.
<scales pt_clust_3="14000.00000" pt_clust_4="109.44267" pt_clust_5="51.59322" pt_clust_6="186.85403"></scales>
<clustering>
<clus scale="   51.593">  1  5  2 -1</clus>
<clus scale="  109.443">  2  4  1 -1</clus>
<clus scale="  186.854">  2  6  1 -1</clus>
<clus scale="   51.593">  1  3  2 -1</clus>
</clustering>
</event>
<event>
 6    0  0.3042851E+002  0.1477851E+03  0.7546771E-02  0.1203221E+00
         21   -1    0    0  506  501  0.00000000000E+00  0.00000000000E+00  0.30615161603E+03  0.30615161603E+03  0.00000000000E+00 0. -1.
         21   -1    0    0  503  502 -0.00000000000E+00 -0.00000000000E+00 -0.91173377245E+03  0.91173377245E+03  0.00000000000E+00 0. -1.
         21    1    1    2  503  505 -0.61944977028E+02  0.19297535028E+03 -0.73286503689E+03  0.76037347947E+03  0.00000000000E+00 0. -1.
         21    1    1    2  504  501 -0.38107592076E+02 -0.75203205890E+02  0.18805879177E+03  0.20609177545E+03  0.00000000000E+00 0. -1.
         21    1    1    2  505  504  0.18443182561E+02 -0.54030257645E+02  0.66301072719E+02  0.87494296773E+02  0.00000000000E+00 0. -1.
         21    1    1    2  506  502  0.81609386542E+02 -0.63741886740E+02 -0.12707698401E+03  0.16392583678E+03  0.00000000000E+00 0. -1.
<scales pt_clust_3="132.03999" pt_clust_4="54.62207" pt_clust_5="54.62207" pt_clust_6="103.55250"></scales>
<clustering>
<clus scale="   54.622">  4  5 -1 -1</clus>
<clus scale="  103.552">  2  6  1 -1</clus>
<clus scale="  132.040">  2  3  1 -1</clus>
<clus scale="  147.785">  1  3  2 -1</clus>
</clustering>
</event>
<event>
 6    0  0.3042851E+002  0.1503427E+03  0.7546771E-02  0.1200052E+00
         21   -1    0    0  506  501  0.00000000000E+00  0.00000000000E+00  0.18722527011E+04  0.18722527011E+04  0.00000000000E+00 0.  1.
         21   -1    0    0  505  502 -0.00000000000E+00 -0.00000000000E+00 -0.14890191499E+03  0.14890191499E+03  0.00000000000E+00 0.  1.
         21    1    1    2  503  502 -0.34179429309E+02  0.48156632593E+02 -0.24680370786E+02  0.64003244860E+02  0.00000000000E+00 0.  1.
         21    1    1    2  504  501  0.63560463403E+02 -0.47455633051E+02  0.13911945264E+04  0.13934540465E+04  0.00000000000E+00 0.  1.
         21    1    1    2  505  504  0.33410773349E+02 -0.48444676036E+02  0.44299297993E+03  0.44688471297E+03  0.00000000000E+00 0. -1.
         21    1    1    2  506  503 -0.62791807444E+02  0.47743676494E+02 -0.86156349381E+02  0.11681261176E+03  0.00000000000E+00 0.  1.
<scales pt_clust_3="36.80365" pt_clust_4="54.49361" pt_clust_5="54.49361" pt_clust_6="142.86216"></scales>
<clustering>
<clus scale="   36.804">  3  6 -1 -1</clus>
<clus scale="   54.494">  4  5 -1 -1</clus>
<clus scale="  142.862">  2  3  1 -1</clus>
<clus scale="  150.343">  1  3  2 -1</clus>
</clustering>
</event>
<event>
 6    0  0.3042851E+002  0.1928249E+03  0.7546771E-02  0.1155938E+00
         21   -1    0    0  505  501  0.00000000000E+00  0.00000000000E+00  0.49170498320E+03  0.49170498320E+03  0.00000000000E+00 0. -1.
         21   -1    0    0  506  502 -0.00000000000E+00 -0.00000000000E+00 -0.24269389175E+03  0.24269389175E+03  0.00000000000E+00 0. -1.
         21    1    1    2  503  502  0.15108568986E+03  0.92237018043E+01 -0.16110255976E+03  0.22105654733E+03  0.00000000000E+00 0. -1.
         21    1    1    2  504  503 -0.82475907716E+02  0.13246162144E+02  0.11730565626E+03  0.14400817045E+03  0.00000000000E+00 0. -1.
         21    1    1    2  505  504 -0.10119857981E+03  0.28716139646E+02  0.29011168898E+03  0.30859449333E+03  0.00000000000E+00 0. -1.
         21    1    1    2  506  501  0.32588797661E+02 -0.51186003595E+02  0.26963059604E+01  0.60739663836E+02  0.00000000000E+00 0. -1.
<scales pt_clust_3="183.89752" pt_clust_4="51.67789" pt_clust_5="51.67789" pt_clust_6="60.67979"></scales>
<clustering>
<clus scale="   51.678">  4  5 -1 -1</clus>
<clus scale="   60.680">  2  6  1 -1</clus>
<clus scale="  183.898">  2  3  1 -1</clus>
<clus scale="  192.825">  1  3  2 -1</clus>
</clustering>
</event>
<event>
 6    0  0.3042851E+002  0.9186715E+02  0.7546771E-02  0.1298392E+00
         21   -1    0    0  503  501  0.00000000000E+00  0.00000000000E+00  0.32789372849E+03  0.32789372849E+03  0.00000000000E+00 0.  1.
         21   -1    0    0  506  502 -0.00000000000E+00 -0.00000000000E+00 -0.39321993834E+03  0.39321993834E+03  0.00000000000E+00 0. -1.
         21    1    1    2  503  505  0.31362257850E+02  0.44775061962E+02  0.17550146343E+03  0.18381828271E+03  0.00000000000E+00 0.  1.
         21    1    1    2  504  502  0.12639167583E+03 -0.70126572327E+02 -0.15953045441E+03  0.21527321651E+03  0.00000000000E+00 0. -1.
         21    1    1    2  505  504 -0.72572921621E+02  0.38517286168E+02  0.95110390734E+02  0.12568371697E+03  0.00000000000E+00 0.  1.
         21    1    1    2  506  501 -0.85181012057E+02 -0.13165775803E+02 -0.17640760961E+03  0.19633845063E+03  0.00000000000E+00 0. -1.
<scales pt_clust_3="54.66624" pt_clust_4="14000.00000" pt_clust_5="91.86715" pt_clust_6="83.69106"></scales>
<clustering>
<clus scale="   54.666">  1  3  2 -1</clus>
<clus scale="   83.691">  2  6  1 -1</clus>
<clus scale="   91.867">  1  5  2 -1</clus>
<clus scale="   54.666">  1  3  2 -1</clus>
</clustering>
</event>
<event>
 6    0  0.3042851E+002  0.2072149E+03  0.7546771E-02  0.1143791E+00
         21   -1    0    0  505  501  0.00000000000E+00  0.00000000000E+00  0.28445951496E+03  0.28445951496E+03  0.00000000000E+00 0.  1.
         21   -1    0    0  503  502 -0.00000000000E+00 -0.00000000000E+00 -0.14898670282E+03  0.14898670282E+03  0.00000000000E+00 0. -1.
         21    1    1    2  503  504 -0.12403507271E+03 -0.40210124723E+01 -0.15400095674E+01  0.12410978782E+03  0.00000000000E+00 0. -1.
         21    1    1    2  504  501 -0.69435768372E+02  0.33689220949E+01  0.43437538881E+02  0.81972528017E+02  0.00000000000E+00 0. -1.
         21    1    1    2  505  506  0.63862579099E+02  0.26437602053E+02  0.58725203789E+02  0.90697438616E+02  0.00000000000E+00 0. -1.
         21    1    1    2  506  502  0.12960826199E+03 -0.25785511676E+02  0.34850079037E+02  0.13666646332E+03  0.00000000000E+00 0.  1.
<scales pt_clust_3="201.77839" pt_clust_4="42.88490" pt_clust_5="53.66720" pt_clust_6="53.66720"></scales>
<clustering>
<clus scale="   42.885">  3  4 -1 -1</clus>
<clus scale="   53.667">  5  6 -1 -1</clus>
<clus scale="  201.778">  2  3  1 -1</clus>
<clus scale="  207.215">  1  3  2 -1</clus>
</clustering>
</event>
<event>
 6    0  0.3042851E+002  0.1247677E+03  0.7546771E-02  0.1235433E+00
         21   -1    0    0  502  501  0.00000000000E+00  0.00000000000E+00  0.16306822411E+03  0.16306822411E+03  0.00000000000E+00 0.  1.
         21   -1    0    0  504  502 -0.00000000000E+00 -0.00000000000E+00 -0.29114468283E+03  0.29114468283E+03  0.00000000000E+00 0.  1.
         21    1    1    2  503  506 -0.37516619846E+02  0.72327043009E+02 -0.73197179494E+01  0.81806333410E+02  0.00000000000E+00 0.  1.
         21    1    1    2  504  505  0.48278027361E+02 -0.84563270261E+02 -0.13967344410E+03  0.17026563244E+03  0.00000000000E+00 0.  1.
         21    1    1    2  505  503 -0.12442549138E+02 -0.41940333312E+02 -0.78953764139E+02  0.90263533385E+02  0.00000000000E+00 0.  1.
         21    1    1    2  506  501  0.16811416233E+01  0.54176560565E+02  0.97870467467E+02  0.11187740770E+03  0.00000000000E+00 0.  1.
<scales pt_clust_3="113.03419" pt_clust_4="35.40578" pt_clust_5="35.40578" pt_clust_6="54.20264"></scales>
<clustering>
<clus scale="   35.406">  4  5 -1 -1</clus>
<clus scale="   54.203">  1  6  2 -1</clus>
<clus scale="  113.034">  1  3  2 -1</clus>
<clus scale="   54.203">  1  3  2 -1</clus>
</clustering>
</event>
<event>
 6    0  0.3042851E+002  0.8777656E+02  0.7546771E-02  0.1308327E+00
         21   -1    0    0  505  501  0.00000000000E+00  0.00000000000E+00  0.55448592127E+03  0.55448592127E+03  0.00000000000E+00 0. -1.
         21   -1    0    0  504  502 -0.00000000000E+00 -0.00000000000E+00 -0.41825870543E+02  0.41825870543E+02  0.00000000000E+00 0. -1.
         21    1    1    2  503  502  0.17184539674E+02 -0.44544634011E+02  0.36909563995E+02  0.60347731832E+02  0.00000000000E+00 0. -1.
         21    1    1    2  504  506 -0.77127145214E+02  0.57914828468E+02  0.13198832149E+03  0.16347367034E+03  0.00000000000E+00 0. -1.
         21    1    1    2  505  503  0.91777253550E+02 -0.26708617194E+02  0.16726539309E+03  0.19265026921E+03  0.00000000000E+00 0. -1.
         21    1    1    2  506  501 -0.31834648009E+02  0.13338422737E+02  0.17649677216E+03  0.17984012044E+03  0.00000000000E+00 0. -1.
<scales pt_clust_3="44.77147" pt_clust_4="87.77656" pt_clust_5="14000.00000" pt_clust_6="34.51606"></scales>
<clustering>
<clus scale="   34.516">  1  6  2 -1</clus>
<clus scale="   44.771">  2  3  1 -1</clus>
<clus scale="   87.777">  2  4  1 -1</clus>
<clus scale="   34.516">  1  3  2 -1</clus>
</clustering>
</event>
<event>
 6    0  0.3042851E+002  0.1240955E+03  0.7546771E-02  0.1236490E+00
         21   -1    0    0  505  501  0.00000000000E+00  0.00000000000E+00  0.89132318328E+03  0.89132318328E+03  0.00000000000E+00 0. -1.
         21   -1    0    0  504  502 -0.00000000000E+00 -0.00000000000E+00 -0.10888421590E+03  0.10888421590E+03  0.00000000000E+00 0. -1.
         21    1    1    2  503  506 -0.33176921759E+02  0.62064093938E+02 -0.20991676888E+02  0.73439161163E+02  0.00000000000E+00 0. -1.
         21    1    1    2  504  501  0.12821377847E+03 -0.74425795464E+02  0.70082088964E+03  0.71632945728E+03  0.00000000000E+00 0. -1.
         21    1    1    2  505  503 -0.46599197183E+02  0.16838501685E+01  0.14049098787E+03  0.14802715360E+03  0.00000000000E+00 0.  1.
         21    1    1    2  506  502 -0.48437659529E+02  0.10677851357E+02 -0.37881233239E+02  0.62411627137E+02  0.00000000000E+00 0. -1.
<scales pt_clust_3="46.26607" pt_clust_4="111.18725" pt_clust_5="46.62961" pt_clust_6="46.26607"></scales>
<clustering>
<clus scale="   46.266">  3  6 -1 -1</clus>
<clus scale="   46.630">  1  5  2 -1</clus>
<clus scale="  111.187">  1  4  2 -1</clus>
<clus scale="   46.630">  1  3  2 -1</clus>
</clustering>
</event>
<event>
 6    0  0.3042851E+002  0.1440340E+03  0.7546771E-02  0.1208002E+00
         21   -1    0    0  505  501  0.00000000000E+00  0.00000000000E+00  0.78426317333E+03  0.78426317333E+03  0.00000000000E+00 0.  1.
         21   -1    0    0  503  502 -0.00000000000E+00 -0.00000000000E+00 -0.16225401779E+03  0.16225401779E+03  0.00000000000E+00 0. -1.
         21    1    1    2  503  504  0.25290499342E+02 -0.98606849992E+02  0.39319973474E+03  0.40616370053E+03  0.00000000000E+00 0.  1.
         21    1    1    2  504  501  0.23378680114E+02 -0.26250719810E+02  0.34909071177E+03  0.35085607878E+03  0.00000000000E+00 0.  1.
         21    1    1    2  505  506  0.44429943769E+01  0.35705872167E+02 -0.84991082744E+01  0.36971399050E+02  0.00000000000E+00 0.  1.
         21    1    1    2  506  502 -0.53112173833E+02  0.89151697635E+02 -0.11178218270E+03  0.15252601276E+03  0.00000000000E+00 0. -1.
<scales pt_clust_3="131.38580" pt_clust_4="35.15200" pt_clust_5="34.75423" pt_clust_6="34.75423"></scales>
<clustering>
<clus scale="   34.754">  5  6 -1 -1</clus>
<clus scale="   35.152">  1  4  2 -1</clus>
<clus scale="  131.386">  1  3  2 -1</clus>
<clus scale="   35.152">  1  3  2 -1</clus>
</clustering>
</event>
<event>
 6    0  0.3042851E+002  0.1121326E+03  0.7546771E-02  0.1256671E+00
         21   -1    0    0  503  501  0.00000000000E+00  0.00000000000E+00  0.42856997253E+03  0.42856997253E+03  0.00000000000E+00 0.  1.
         21   -1    0    0  506  502 -0.00000000000E+00 -0.00000000000E+00 -0.20950787931E+03  0.20950787931E+03  0.00000000000E+00 0.  1.
         21    1    1    2  503  502  0.42947615719E+02  0.63146796925E+01 -0.29084108547E+02  0.52251873130E+02  0.00000000000E+00 0.  1.
         21    1    1    2  504  505 -0.51315812013E+02 -0.67288897947E+02  0.17596781460E+03  0.19525823958E+03  0.00000000000E+00 0.  1.
         21    1    1    2  505  501 -0.33109163667E+02 -0.18286204028E+02  0.21703978193E+03  0.22031084612E+03  0.00000000000E+00 0.  1.
         21    1    1    2  506  504  0.41477359961E+02  0.79260422282E+02 -0.14486139476E+03  0.17025689302E+03  0.00000000000E+00 0.  1.
<scales pt_clust_3="41.46121" pt_clust_4="112.13256" pt_clust_5="37.82330" pt_clust_6="14000.00000"></scales>
<clustering>
<clus scale="   37.823">  1  5  2 -1</clus>
<clus scale="   41.461">  2  3  1 -1</clus>
<clus scale="  112.133">  1  4  2 -1</clus>
<clus scale="   37.823">  1  3  2 -1</clus>
</clustering>
</event>
<event>
 6    0  0.3042851E+002  0.8624140E+02  0.7546771E-02  0.1312218E+00
         21   -1    0    0  503  501  0.00000000000E+00  0.00000000000E+00  0.40424819325E+03  0.40424819325E+03  0.00000000000E+00 0. -1.
         21   -1    0    0  505  502 -0.00000000000E+00 -0.00000000000E+00 -0.34717588605E+03  0.34717588605E+03  0.00000000000E+00 0.  1.
         21    1    1    2  503  502 -0.20371947914E+02  0.10034790694E+03 -0.27649600701E+03  0.29484701216E+03  0.00000000000E+00 0.  1.
         21    1    1    2  504  506  0.31144416162E+02 -0.82363082207E+02  0.11864962093E+03  0.14775447376E+03  0.00000000000E+00 0. -1.
         21    1    1    2  505  504  0.35124117527E+02 -0.15016977407E+02 -0.36737202207E+02  0.52998445906E+02  0.00000000000E+00 0. -1.
         21    1    1    2  506  501 -0.45896585774E+02 -0.29678473208E+01  0.25165589548E+03  0.25582414748E+03  0.00000000000E+00 0. -1.
<scales pt_clust_3="14000.00000" pt_clust_4="86.24140" pt_clust_5="38.19965" pt_clust_6="45.75763"></scales>
<clustering>
<clus scale="   38.200">  2  5  1 -1</clus>
<clus scale="   45.758">  1  6  2 -1</clus>
<clus scale="   86.241">  1  4  2 -1</clus>
<clus scale="   45.758">  1  3  2 -1</clus>
</clustering>
</event>
<event>
 6    0  0.3042851E+002  0.2282373E+03  0.7546771E-02  0.1127887E+00
         21   -1    0    0  503  501  0.00000000000E+00  0.00000000000E+00  0.64727777330E+03  0.64727777330E+03  0.00000000000E+00 0.  1.
         21   -1    0    0  504  502 -0.00000000000E+00 -0.00000000000E+00 -0.52882331820E+03  0.52882331820E+03  0.00000000000E+00 0.  1.
         21    1    1    2  503  502 -0.17757416152E+03  0.68460650341E+02 -0.36914168944E+03  0.41531317143E+03  0.00000000000E+00 0.  1.
         21    1    1    2  504  506  0.15242391308E+01  0.64947341432E+02 -0.10590115035E+03  0.12423982497E+03  0.00000000000E+00 0.  1.
         21    1    1    2  505  501  0.34525656729E+02 -0.63354391447E+02  0.19256255105E+03  0.20563593061E+03  0.00000000000E+00 0.  1.
         21    1    1    2  506  505  0.14152426566E+03 -0.70053600326E+02  0.40093474383E+03  0.43091216448E+03  0.00000000000E+00 0.  1.
<scales pt_clust_3="218.92710" pt_clust_4="64.96523" pt_clust_5="43.61386" pt_clust_6="43.61386"></scales>
<clustering>
<clus scale="   43.614">  5  6 -1 -1</clus>
<clus scale="   64.965">  2  4  1 -1</clus>
<clus scale="  218.927">  2  3  1 -1</clus>
<clus scale="  228.237">  1  3  2 -1</clus>
</clustering>
</event>
<event>
 6    0  0.3042851E+002  0.1905103E+03  0.7546771E-02  0.1158002E+00
         21   -1    0    0  504  501  0.00000000000E+00  0.00000000000E+00  0.48117414360E+03  0.48117414360E+03  0.00000000000E+00 0.  1.
         21   -1    0    0  506  502 -0.00000000000E+00 -0.00000000000E+00 -0.34698076975E+03  0.34698076975E+03  0.00000000000E+00 0.  1.
         21    1    1    2  503  502  0.67838662413E+02  0.19403065957E+03 -0.26586086225E+03  0.33605353598E+03  0.00000000000E+00 0.  1.
         21    1    1    2  504  505 -0.57582784980E+02 -0.10369158148E+03  0.34241534488E+03  0.36237548152E+03  0.00000000000E+00 0.  1.
         21    1    1    2  505  503  0.50822500861E+00 -0.58835737607E+02  0.72412878898E+02  0.93303415494E+02  0.00000000000E+00 0.  1.
         21    1    1    2  506  501 -0.10764102441E+02 -0.31503340488E+02 -0.14773987678E+02  0.36422480354E+02  0.00000000000E+00 0.  1.
<scales pt_clust_3="174.37322" pt_clust_4="54.28085" pt_clust_5="54.28085" pt_clust_6="33.29154"></scales>
<clustering>
<clus scale="   33.292">  2  6  1 -1</clus>
<clus scale="   54.281">  4  5 -1 -1</clus>
<clus scale="  174.373">  2  3  1 -1</clus>
<clus scale="  190.510">  1  3  2 -1</clus>
</clustering>
</event>
<event>
 6    0  0.3042851E+002  0.1379210E+03  0.7546771E-02  0.1216154E+00
         21   -1    0    0  505  501  0.00000000000E+00  0.00000000000E+00  0.10073823970E+04  0.10073823970E+04  0.00000000000E+00 0.  1.
         21   -1    0    0  506  502 -0.00000000000E+00 -0.00000000000E+00 -0.13966477019E+04  0.13966477019E+04  0.00000000000E+00 0. -1.
         21    1    1    2  503  504 -0.55798475261E+02  0.30118204904E+02  0.35729125993E+03  0.36287411113E+03  0.00000000000E+00 0.  1.
         21    1    1    2  504  501 -0.46716905396E+02  0.53472981429E+02  0.63405873617E+03  0.63802218607E+03  0.00000000000E+00 0.  1.
         21    1    1    2  505  502 -0.36104635797E+02 -0.38450010886E+02 -0.90043843642E+02  0.10435440499E+03  0.00000000000E+00 0.  1.
         21    1    1    2  506  503  0.13862001645E+03 -0.45141175447E+02 -0.12905714574E+04  0.12987793967E+04  0.00000000000E+00 0. -1.
<scales pt_clust_3="36.86282" pt_clust_4="36.86282" pt_clust_5="52.74418" pt_clust_6="132.28948"></scales>
<clustering>
<clus scale="   36.863">  3  4 -1 -1</clus>
<clus scale="   52.744">  2  5  1 -1</clus>
<clus scale="  132.289">  2  6  1 -1</clus>
<clus scale="  137.921">  1  3  2 -1</clus>
</clustering>
</event>
<event>
 6    0  0.3042851E+002  0.2521414E+03  0.7546771E-02  0.1111959E+00
         21   -1    0    0  505  501  0.00000000000E+00  0.00000000000E+00  0.76621664722E+03  0.76621664722E+03  0.00000000000E+00 0. -1.
         21   -1    0    0  506  502 -0.00000000000E+00 -0.00000000000E+00 -0.35013065201E+03  0.35013065201E+03  0.00000000000E+00 0.  1.
         21    1    1    2  503  501 -0.21903328432E+02  0.63243755255E+02  0.14090442085E+03  0.15599225683E+03  0.00000000000E+00 0.  1.
         21    1    1    2  504  503  0.27295008475E+02  0.16507028519E+02 -0.39050106793E+02  0.50422319648E+02  0.00000000000E+00 0.  1.
         21    1    1    2  505  502 -0.20519893685E+03  0.19917300348E+02  0.54870134037E+03  0.58615395884E+03  0.00000000000E+00 0. -1.
         21    1    1    2  506  504  0.19980725681E+03 -0.99668084122E+02 -0.23446965922E+03  0.32377876391E+03  0.00000000000E+00 0.  1.
<scales pt_clust_3="66.92928" pt_clust_4="30.98904" pt_clust_5="238.43888" pt_clust_6="30.98904"></scales>
<clustering>
<clus scale="   30.989">  4  6 -1 -1</clus>
<clus scale="   66.929">  1  3  2 -1</clus>
<clus scale="  238.439">  1  5  2 -1</clus>
<clus scale="   66.929">  1  3  2 -1</clus>
</clustering>
</event>
<event>
 6    0  0.4266080E+002  0.9956596E+02  0.7546771E-02  0.1281211E+00
         21   -1    0    0  503  501  0.00000000000E+00  0.00000000000E+00  0.14566161549E+04  0.14566161549E+04  0.00000000000E+00 0. -1.
         21   -1    0    0  505  502 -0.00000000000E+00 -0.00000000000E+00 -0.22466992324E+03  0.22466992324E+03  0.00000000000E+00 0.  1.
         21    1    1    2  503  504  0.40041611869E+00 -0.33333857679E+02  0.35490876277E+02  0.48691977776E+02  0.00000000000E+00 0.  1.
         21    1    1    2  504  502 -0.32299751910E+02 -0.29191654963E+01 -0.34028488397E+02  0.47007802791E+02  0.00000000000E+00 0.  1.
         21    1    1    2  505  506 -0.57567354926E+02  0.80231898062E+02 -0.16189980698E+03  0.18963835403E+03  0.00000000000E+00 0.  1.
         21    1    1    2  506  501  0.89466690717E+02 -0.43978874887E+02  0.13923836507E+04  0.13959479435E+04  0.00000000000E+00 0. -1.
<scales pt_clust_3="33.44706" pt_clust_4="32.43140" pt_clust_5="14000.00000" pt_clust_6="99.56596"></scales>
<clustering>
<clus scale="   32.431">  2  4  1 -1</clus>
<clus scale="   33.447">  2  3  1 -1</clus>
<clus scale="   99.566">  1  6  2 -1</clus>
<clus scale="   99.566">  1  3  2 -1</clus>
</clustering>
</event>
<event>
 6    0  0.3042851E+002  0.1254234E+03  0.7546771E-02  0.1234409E+00
         21   -1    0    0  502  501  0.00000000000E+00  0.00000000000E+00  0.39348465873E+03  0.39348465873E+03  0.00000000000E+00 0.  1.
         21   -1    0    0  506  502 -0.00000000000E+00 -0.00000000000E+00 -0.14270252320E+03  0.14270252320E+03  0.00000000000E+00 0. -1.
         21    1    1    2  503  505 -0.11122386703E+02  0.61482032474E+02  0.13067579392E+03  0.14484443697E+03  0.00000000000E+00 0.  1.
         21    1    1    2  504  503  0.18045448886E+02 -0.75822737207E+02 -0.90876944367E+02  0.11972194753E+03  0.00000000000E+00 0. -1.
         21    1    1    2  505  501  0.83780674508E+01  0.64945425656E+02  0.20866911820E+03  0.21870276912E+03  0.00000000000E+00 0.  1.
         21    1    1    2  506  504 -0.15301129634E+02 -0.50604720923E+02  0.23141677632E+01  0.52918028310E+02  0.00000000000E+00 0. -1.
<scales pt_clust_3="31.19896" pt_clust_4="121.28835" pt_clust_5="31.19896" pt_clust_6="52.86740"></scales>
<clustering>
<clus scale="   31.199">  3  5 -1 -1</clus>
<clus scale="   52.867">  2  6  1 -1</clus>
<clus scale="  121.288">  2  4  1 -1</clus>
<clus scale="  125.423">  1  3  2 -1</clus>
</clustering>
</event>
<event>
 6    0  0.3042851E+002  0.3127515E+03  0.7546771E-02  0.1079034E+00
         21   -1    0    0  506  501  0.00000000000E+00  0.00000000000E+00  0.18970365329E+03  0.18970365329E+03  0.00000000000E+00 0. -1.
         21   -1    0    0  503  502 -0.00000000000E+00 -0.00000000000E+00 -0.13019017359E+04  0.13019017359E+04  0.00000000000E+00 0. -1.
         21    1    1    2  503  501  0.18242465898E+03 -0.30238925739E+03 -0.84427821855E+03  0.91516322560E+03  0.00000000000E+00 0. -1.
         21    1    1    2  504  502  0.28238426143E+02  0.46746635400E+02 -0.83586327181E+02  0.99846535863E+02  0.00000000000E+00 0.  1.
         21    1    1    2  505  504 -0.75116422414E+02 -0.17727471039E+02 -0.15108894790E+03  0.16966027915E+03  0.00000000000E+00 0. -1.
         21    1    1    2  506  505 -0.13554666271E+03  0.27337009303E+03 -0.33244589030E+02  0.30693534862E+03  0.00000000000E+00 0. -1.
<scales pt_clust_3="14000.00000" pt_clust_4="54.61370" pt_clust_5="72.29995" pt_clust_6="312.75148"></scales>
<clustering>
<clus scale="   54.614">  2  4  1 -1</clus>
<clus scale="   72.300">  2  5  1 -1</clus>
<clus scale="  312.751">  1  6  2 -1</clus>
<clus scale="  312.751">  1  3  2 -1</clus>
</clustering>
</event>
<event>
 6    0  0.3042851E+002  0.1632780E+03  0.7546771E-02  0.1185045E+00
         21   -1    0    0  506  501  0.00000000000E+00  0.00000000000E+00  0.43579304669E+03  0.43579304669E+03  0.00000000000E+00 0. -1.
         21   -1    0    0  505  502 -0.00000000000E+00 -0.00000000000E+00 -0.65228873235E+03  0.65228873235E+03  0.00000000000E+00 0. -1.
         21    1    1    2  503  504 -0.11767274996E+03 -0.12566315554E+03 -0.21855747898E+02  0.17353898253E+03  0.00000000000E+00 0. -1.
         21    1    1    2  504  502  0.44317246972E+02 -0.57651208549E+02 -0.38792805532E+03  0.39468450226E+03  0.00000000000E+00 0. -1.
         21    1    1    2  505  501  0.40915634643E+02  0.20684746657E+02 -0.14014999202E+03  0.14745836078E+03  0.00000000000E+00 0. -1.
         21    1    1    2  506  503  0.32439868344E+02  0.16262961743E+03  0.33343810957E+03  0.37239993345E+03  0.00000000000E+00 0. -1.
<scales pt_clust_3="14000.00000" pt_clust_4="86.53271" pt_clust_5="45.84701" pt_clust_6="163.27799"></scales>
<clustering>
<clus scale="   45.847">  2  5  1 -1</clus>
<clus scale="   86.533">  2  4  1 -1</clus>
<clus scale="  163.278">  1  6  2 -1</clus>
<clus scale="  163.278">  1  3  2 -1</clus>
</clustering>
</event>
<event>
 6    0  0.3042851E+002  0.1379435E+03  0.7546771E-02  0.1216123E+00
         21   -1    0    0  503  501  0.00000000000E+00  0.00000000000E+00  0.14832462922E+02  0.14832462922E+02  0.00000000000E+00 0. -1.
         21   -1    0    0  504  502 -0.00000000000E+00 -0.00000000000E+00 -0.30389419142E+04  0.30389419142E+04  0.00000000000E+00 0.  1.
         21    1    1    2  503  506 -0.72430110279E+02  0.41601952826E+02 -0.27104779187E+03  0.28362607220E+03  0.00000000000E+00 0. -1.
         21    1    1    2  504  501  0.10739625325E+03 -0.22202819590E+02 -0.13649708332E+04  0.13693693059E+04  0.00000000000E+00 0.  1.
         21    1    1    2  505  502  0.24584625319E+02 -0.22654529833E+02 -0.12489230459E+04  0.12493704039E+04  0.00000000000E+00 0.  1.
         21    1    1    2  506  505 -0.59550768288E+02  0.32553965960E+01 -0.13916778033E+03  0.15140859517E+03  0.00000000000E+00 0. -1.
<scales pt_clust_3="33.23746" pt_clust_4="132.21643" pt_clust_5="33.43100" pt_clust_6="33.23746"></scales>
<clustering>
<clus scale="   33.237">  3  6 -1 -1</clus>
<clus scale="   33.431">  2  5  1 -1</clus>
<clus scale="  132.216">  2  4  1 -1</clus>
<clus scale="  137.943">  1  3  2 -1</clus>
</clustering>
</event>
<event>
 6    0  0.3042851E+002  0.1599758E+03  0.7546771E-02  0.1188724E+00
         21   -1    0    0  502  501  0.00000000000E+00  0.00000000000E+00  0.66387468670E+03  0.66387468670E+03  0.00000000000E+00 0. -1.
         21   -1    0    0  503  502 -0.00000000000E+00 -0.00000000000E+00 -0.67912476449E+03  0.67912476449E+03  0.00000000000E+00 0. -1.
         21    1    1    2  503  506 -0.19511445499E+02  0.39078702652E+02 -0.26051333089E+03  0.26414964902E+03  0.00000000000E+00 0.  1.
         21    1    1    2  504  501 -0.29724847773E+02  0.44956126525E+01  0.15343763941E+03  0.15635500086E+03  0.00000000000E+00 0. -1.
         21    1    1    2  505  504 -0.42318698167E+02 -0.14866313375E+03  0.48305384974E+03  0.50718105377E+03  0.00000000000E+00 0. -1.
         21    1    1    2  506  505  0.91554991438E+02  0.10508881845E+03 -0.39122823605E+03  0.41531374754E+03  0.00000000000E+00 0. -1.
<scales pt_clust_3="43.74073" pt_clust_4="30.06289" pt_clust_5="14000.00000" pt_clust_6="159.97577"></scales>
<clustering>
<clus scale="   30.063">  1  4  2 -1</clus>
<clus scale="   43.741">  2  3  1 -1</clus>
<clus scale="  159.976">  2  6  1 -1</clus>
<clus scale="   30.063">  1  3  2 -1</clus>
</clustering>
</event>
<event>
 6    0  0.3042851E+002  0.1408787E+03  0.7546771E-02  0.1212151E+00
         21   -1    0    0  506  501  0.00000000000E+00  0.00000000000E+00  0.46682958011E+03  0.46682958011E+03  0.00000000000E+00 0. -1.
         21   -1    0    0  504  502 -0.00000000000E+00 -0.00000000000E+00 -0.14576916573E+03  0.14576916573E+03  0.00000000000E+00 0. -1.
         21    1    1    2  503  502  0.93661083178E+02 -0.74481012824E+02 -0.68823882432E+02  0.13804545109E+03  0.00000000000E+00 0. -1.
         21    1    1    2  504  501 -0.27455560226E+02  0.91513435054E+02  0.12064471623E+03  0.15389497762E+03  0.00000000000E+00 0. -1.
         21    1    1    2  505  503 -0.10990754212E+01 -0.32659039750E+02 -0.94675772866E+01  0.34021403026E+02  0.00000000000E+00 0.  1.
         21    1    1    2  506  505 -0.65106447530E+02  0.15626617520E+02  0.27870715787E+03  0.28663691412E+03  0.00000000000E+00 0. -1.
<scales pt_clust_3="30.60791" pt_clust_4="128.12522" pt_clust_5="30.60791" pt_clust_6="66.95551"></scales>
<clustering>
<clus scale="   30.608">  3  5 -1 -1</clus>
<clus scale="   66.956">  1  6  2 -1</clus>
<clus scale="  128.125">  1  4  2 -1</clus>
<clus scale="   66.956">  1  3  2 -1</clus>
</clustering>
</event>
<event>
 6    0  0.3042851E+002  0.1795235E+03  0.7546771E-02  0.1168265E+00
         21   -1    0    0  506  501  0.00000000000E+00  0.00000000000E+00  0.12517666862E+04  0.12517666862E+04  0.00000000000E+00 0.  1.
         21   -1    0    0  505  502 -0.00000000000E+00 -0.00000000000E+00 -0.99127478797E+03  0.99127478797E+03  0.00000000000E+00 0. -1.
         21    1    1    2  503  504  0.17791477856E+03  0.86141208287E+02 -0.77677213782E+03  0.80152912005E+03  0.00000000000E+00 0. -1.
         21    1    1    2  504  501 -0.14761291177E+03  0.47712570627E+02  0.10743649821E+04  0.10855073357E+04  0.00000000000E+00 0.  1.
         21    1    1    2  505  503 -0.61796373319E+01 -0.33309014243E+02 -0.17802370063E+03  0.18121842162E+03  0.00000000000E+00 0. -1.
         21    1    1    2  506  502 -0.24122229454E+02 -0.10054476467E+03  0.14092275457E+03  0.17478659678E+03  0.00000000000E+00 0.  1.
<scales pt_clust_3="14000.00000" pt_clust_4="179.52349" pt_clust_5="33.87740" pt_clust_6="104.10370"></scales>
<clustering>
<clus scale="   33.877">  2  5  1 -1</clus>
<clus scale="  104.104">  1  6  2 -1</clus>
<clus scale="  179.523">  1  4  2 -1</clus>
<clus scale="  104.104">  1  3  2 -1</clus>
</clustering>
</event>
<event>
 6    0  0.3042851E+002  0.1185033E+03  0.7546771E-02  0.1245587E+00
         21   -1    0    0  504  501  0.00000000000E+00  0.00000000000E+00  0.19783865238E+03  0.19783865238E+03  0.00000000000E+00 0. -1.
         21   -1    0    0  505  502 -0.00000000000E+00 -0.00000000000E+00 -0.28787493811E+03  0.28787493811E+03  0.00000000000E+00 0. -1.
         21    1    1    2  503  501 -0.19930184949E+02 -0.22811163474E+02  0.75629766545E+02  0.81470381359E+02  0.00000000000E+00 0. -1.
         21    1    1    2  504  502 -0.37892266759E+01  0.31664768137E+02 -0.16180412788E+02  0.35760614340E+02  0.00000000000E+00 0. -1.
         21    1    1    2  505  506  0.66839337805E+02  0.79087902390E+02 -0.22309955070E+03  0.24595894557E+03  0.00000000000E+00 0. -1.
         21    1    1    2  506  503 -0.43119926180E+02 -0.87941507054E+02  0.73613911202E+02  0.12252364922E+03  0.00000000000E+00 0. -1.
<scales pt_clust_3="30.29128" pt_clust_4="30.28252" pt_clust_5="118.50328" pt_clust_6="14000.00000"></scales>
<clustering>
<clus scale="   30.291">  1  3  2 -1</clus>
<clus scale="   30.283">  2  4  1 -1</clus>
<clus scale="  118.503">  2  5  1 -1</clus>
<clus scale="   30.291">  1  3  2 -1</clus>
</clustering>
</event>
<event>
 6    0  0.3042851E+002  0.1500172E+03  0.7546771E-02  0.1200452E+00
         21   -1    0    0  504  501  0.00000000000E+00  0.00000000000E+00  0.26858469916E+03  0.26858469916E+03  0.00000000000E+00 0.  1.
         21   -1    0    0  505  502 -0.00000000000E+00 -0.00000000000E+00 -0.37147641908E+04  0.37147641908E+04  0.00000000000E+00 0.  1.
         21    1    1    2  503  502 -0.68733417413E+02  0.48129133277E+02 -0.26328684869E+04  0.26342052246E+04  0.00000000000E+00 0.  1.
         21    1    1    2  504  506  0.15536337344E+03 -0.91121910671E+02  0.18798713737E+03  0.26034620072E+03  0.00000000000E+00 0.  1.
         21    1    1    2  505  501 -0.41670859301E+02  0.37329133730E+01  0.32685929638E+02  0.53092044164E+02  0.00000000000E+00 0.  1.
         21    1    1    2  506  503 -0.44959096731E+02  0.39259864021E+02 -0.10339840718E+04  0.10357054205E+04  0.00000000000E+00 0.  1.
<scales pt_clust_3="36.50747" pt_clust_4="143.63676" pt_clust_5="41.83772" pt_clust_6="36.50747"></scales>
<clustering>
<clus scale="   36.507">  3  6 -1 -1</clus>
<clus scale="   41.838">  1  5  2 -1</clus>
<clus scale="  143.637">  1  4  2 -1</clus>
<clus scale="   41.838">  1  3  2 -1</clus>
</clustering>
</event>
<event>
 6    0  0.3042851E+002  0.1291304E+03  0.7546771E-02  0.1228752E+00
         21   -1    0    0  503  501  0.00000000000E+00  0.00000000000E+00  0.59305872028E+02  0.59305872028E+02  0.00000000000E+00 0. -1.
         21   -1    0    0  504  502 -0.00000000000E+00 -0.00000000000E+00 -0.42176688510E+03  0.42176688510E+03  0.00000000000E+00 0. -1.
         21    1    1    2  503  506  0.32189193064E+02 -0.90893197722E+02 -0.18880320521E+03  0.21200086755E+03  0.00000000000E+00 0. -1.
         21    1    1    2  504  505  0.17554422643E+02  0.27794026791E+02 -0.43820762019E+02  0.54780697910E+02  0.00000000000E+00 0. -1.
         21    1    1    2  505  501 -0.38418343852E+02  0.10954032069E+03 -0.62871547056E+02  0.13201470535E+03  0.00000000000E+00 0. -1.
         21    1    1    2  506  502 -0.11325271855E+02 -0.46441149756E+02 -0.66965498788E+02  0.82276486320E+02  0.00000000000E+00 0.  1.
<scales pt_clust_3="30.57337" pt_clust_4="32.87348" pt_clust_5="121.61067" pt_clust_6="30.57337"></scales>
<clustering>
<clus scale="   30.573">  3  6 -1 -1</clus>
<clus scale="   32.873">  2  4  1 -1</clus>
<clus scale="  121.611">  1  5  2 -1</clus>
<clus scale="  121.611">  1  3  2 -1</clus>
</clustering>
</event>
<event>
 6    0  0.3042851E+002  0.1667742E+03  0.7546771E-02  0.1181254E+00
         21   -1    0    0  505  501  0.00000000000E+00  0.00000000000E+00  0.52754544669E+02  0.52754544669E+02  0.00000000000E+00 0.  1.
         21   -1    0    0  504  502 -0.00000000000E+00 -0.00000000000E+00 -0.15990235498E+04  0.15990235498E+04  0.00000000000E+00 0.  1.
         21    1    1    2  503  501 -0.39645732423E+02  0.35138540649E+02 -0.66597414865E+02  0.85098277333E+02  0.00000000000E+00 0.  1.
         21    1    1    2  504  506  0.60203209487E+02 -0.98725694253E+02 -0.11745223967E+04  0.11802008513E+04  0.00000000000E+00 0.  1.
         21    1    1    2  505  502  0.56297124224E+02 -0.18187914305E+02 -0.25809896833E+03  0.26479283200E+03  0.00000000000E+00 0.  1.
         21    1    1    2  506  503 -0.76854601288E+02  0.81775067909E+02 -0.47050225263E+02  0.12168613384E+03  0.00000000000E+00 0.  1.
<scales pt_clust_3="35.05337" pt_clust_4="158.77889" pt_clust_5="59.16220" pt_clust_6="35.05337"></scales>
<clustering>
<clus scale="   35.053">  3  6 -1 -1</clus>
<clus scale="   59.162">  2  5  1 -1</clus>
<clus scale="  158.779">  2  4  1 -1</clus>
<clus scale="  166.774">  1  3  2 -1</clus>
</clustering>
</event>
<event>
 6    0  0.3042851E+002  0.1066442E+03  0.7546771E-02  0.1266914E+00
         21   -1    0    0  503  501  0.00000000000E+00  0.00000000000E+00  0.33125061781E+03  0.33125061781E+03  0.00000000000E+00 0. -1.
         21   -1    0    0  506  502 -0.00000000000E+00 -0.00000000000E+00 -0.56080282093E+03  0.56080282093E+03  0.00000000000E+00 0. -1.
         21    1    1    2  503  505 -0.63891572130E+02  0.26147752534E+02 -0.41432338804E+01  0.69159267917E+02  0.00000000000E+00 0.  1.
         21    1    1    2  504  501  0.68543515970E+02 -0.13717348910E+03  0.26932953304E+03  0.30992446993E+03  0.00000000000E+00 0. -1.
         21    1    1    2  505  502  0.36519206308E+01  0.61604932295E+02 -0.40923936847E+03  0.41386636117E+03  0.00000000000E+00 0. -1.
         21    1    1    2  506  504 -0.83038644703E+01  0.49420804273E+02 -0.85499133816E+02  0.99103339719E+02  0.00000000000E+00 0.  1.
<scales pt_clust_3="71.17868" pt_clust_4="106.64419" pt_clust_5="14000.00000" pt_clust_6="50.11357"></scales>
<clustering>
<clus scale="   50.114">  2  6  1 -1</clus>
<clus scale="   71.179">  1  3  2 -1</clus>
<clus scale="  106.644">  1  4  2 -1</clus>
<clus scale="   71.179">  1  3  2 -1</clus>
</clustering>
</event>
<event>
 6    0  0.3042851E+002  0.1007621E+03  0.7546771E-02  0.1278701E+00
         21   -1    0    0  503  501  0.00000000000E+00  0.00000000000E+00  0.92417124560E+02  0.92417124560E+02  0.00000000000E+00 0. -1.
         21   -1    0    0  506  502 -0.00000000000E+00 -0.00000000000E+00 -0.20646849877E+04  0.20646849877E+04  0.00000000000E+00 0. -1.
         21    1    1    2  503  505  0.37824809663E+02 -0.84813949352E+02 -0.14349130150E+02  0.93968184865E+02  0.00000000000E+00 0. -1.
         21    1    1    2  504  502 -0.14491776644E+01  0.57124164282E+02 -0.70560453984E+03  0.70791456893E+03  0.00000000000E+00 0. -1.
         21    1    1    2  505  504  0.68176117240E+02  0.26102689729E+02 -0.12484516937E+04  0.12505842494E+04  0.00000000000E+00 0. -1.
         21    1    1    2  506  501 -0.10455174924E+03  0.15870953412E+01 -0.38624994283E+01  0.10463510903E+03  0.00000000000E+00 0. -1.
<scales pt_clust_3="90.76607" pt_clust_4="57.14254" pt_clust_5="100.76214" pt_clust_6="14000.00000"></scales>
<clustering>
<clus scale="   57.143">  2  4  1 -1</clus>
<clus scale="   90.766">  1  3  2 -1</clus>
<clus scale="  100.762">  2  5  1 -1</clus>
<clus scale="   90.766">  1  3  2 -1</clus>
</clustering>
</event>
<event>
 6    0  0.3042851E+002  0.1760534E+03  0.7546771E-02  0.1171678E+00
         21   -1    0    0  505  501  0.00000000000E+00  0.00000000000E+00  0.30925670120E+03  0.30925670120E+03  0.00000000000E+00 0. -1.
         21   -1    0    0  504  502 -0.00000000000E+00 -0.00000000000E+00 -0.29837049835E+03  0.29837049835E+03  0.00000000000E+00 0. -1.
         21    1    1    2  503  506 -0.11677852215E+03 -0.73677526909E+02  0.71886728213E+02  0.15567049464E+03  0.00000000000E+00 0.  1.
         21    1    1    2  504  503  0.96396758309E+02  0.17263582631E+03 -0.15424651122E+03  0.25077370229E+03  0.00000000000E+00 0. -1.
         21    1    1    2  505  502 -0.22966501208E+02  0.30469471211E+02  0.46057878126E+01  0.38432566073E+02  0.00000000000E+00 0. -1.
         21    1    1    2  506  501  0.43348265048E+02 -0.12942777061E+03  0.88640198044E+02  0.16275043655E+03  0.00000000000E+00 0. -1.
<scales pt_clust_3="176.05335" pt_clust_4="14000.00000" pt_clust_5="38.15559" pt_clust_6="120.80230"></scales>
<clustering>
<clus scale="   38.156">  1  5  2 -1</clus>
<clus scale="  120.802">  1  6  2 -1</clus>
<clus scale="  176.053">  1  3  2 -1</clus>
<clus scale="   38.156">  1  3  2 -1</clus>
</clustering>
</event>
<event>
 6    0  0.3042851E+002  0.1448161E+03  0.7546771E-02  0.1206992E+00
         21   -1    0    0  503  501  0.00000000000E+00  0.00000000000E+00  0.81936746706E+02  0.81936746706E+02  0.00000000000E+00 0. -1.
         21   -1    0    0  504  502 -0.00000000000E+00 -0.00000000000E+00 -0.10626668258E+04  0.10626668258E+04  0.00000000000E+00 0.  1.
         21    1    1    2  503  506 -0.98347596465E+02  0.45116288531E+02 -0.30020181069E+02  0.11228953866E+03  0.00000000000E+00 0.  1.
         21    1    1    2  504  501  0.79406169295E+02 -0.17713993454E+03 -0.24259915873E+03  0.31070604749E+03  0.00000000000E+00 0. -1.
         21    1    1    2  505  502  0.28178018611E+02  0.63001661768E+02 -0.37459529734E+03  0.38090004845E+03  0.00000000000E+00 0. -1.
         21    1    1    2  506  505 -0.92365914411E+01  0.69021984240E+02 -0.33351544199E+03  0.34070793794E+03  0.00000000000E+00 0.  1.
<scales pt_clust_3="108.20226" pt_clust_4="139.51148" pt_clust_5="38.66252" pt_clust_6="38.66252"></scales>
<clustering>
<clus scale="   38.663">  5  6 -1 -1</clus>
<clus scale="  108.202">  1  3  2 -1</clus>
<clus scale="  139.511">  1  4  2 -1</clus>
<clus scale="  108.202">  1  3  2 -1</clus>
</clustering>
</event>
<event>
 6    0  0.3042851E+002  0.1131082E+03  0.7546771E-02  0.1254920E+00
         21   -1    0    0  503  501  0.00000000000E+00  0.00000000000E+00  0.98994481118E+02  0.98994481118E+02  0.00000000000E+00 0. -1.
         21   -1    0    0  504  502 -0.00000000000E+00 -0.00000000000E+00 -0.35192939468E+03  0.35192939468E+03  0.00000000000E+00 0. -1.
         21    1    1    2  503  505 -0.10465522638E+03 -0.91620097585E+00  0.16669132634E+02  0.10597837429E+03  0.00000000000E+00 0. -1.
         21    1    1    2  504  501  0.17520739831E+02 -0.69641487320E+02 -0.29685962764E+02  0.77705659161E+02  0.00000000000E+00 0. -1.
         21    1    1    2  505  506  0.62877004217E+02  0.28221415176E+02 -0.14065669055E+03  0.15663419336E+03  0.00000000000E+00 0. -1.
         21    1    1    2  506  502  0.24257482335E+02  0.42336273120E+02 -0.99261392878E+02  0.11060564898E+03  0.00000000000E+00 0.  1.
<scales pt_clust_3="107.27457" pt_clust_4="71.81165" pt_clust_5="30.16944" pt_clust_6="30.16944"></scales>
<clustering>
<clus scale="   30.169">  5  6 -1 -1</clus>
<clus scale="   71.812">  1  4  2 -1</clus>
<clus scale="  107.275">  1  3  2 -1</clus>
<clus scale="   71.812">  1  3  2 -1</clus>
</clustering>
</event>
<event>
 6    0  0.3042851E+002  0.8166644E+02  0.7546771E-02  0.1324388E+00
         21   -1    0    0  506  501  0.00000000000E+00  0.00000000000E+00  0.52481836139E+02  0.52481836139E+02  0.00000000000E+00 0. -1.
         21   -1    0    0  504  502 -0.00000000000E+00 -0.00000000000E+00 -0.58611858405E+03  0.58611858405E+03  0.00000000000E+00 0. -1.
         21    1    1    2  503  505 -0.19834949609E+02 -0.85983570248E+02 -0.26464473101E+02  0.92124741058E+02  0.00000000000E+00 0. -1.
         21    1    1    2  504  501  0.84483382142E+01  0.74489126190E+02 -0.32422431975E+03  0.33277832540E+03  0.00000000000E+00 0. -1.
         21    1    1    2  505  502  0.51186935551E+02 -0.99950899426E+01 -0.14682239680E+03  0.15581020633E+03  0.00000000000E+00 0. -1.
         21    1    1    2  506  503 -0.39800324156E+02  0.21489534001E+02 -0.36125558257E+02  0.57887147398E+02  0.00000000000E+00 0. -1.
<scales pt_clust_3="14000.00000" pt_clust_4="81.66644" pt_clust_5="47.51135" pt_clust_6="45.23125"></scales>
<clustering>
<clus scale="   45.231">  1  6  2 -1</clus>
<clus scale="   47.511">  2  5  1 -1</clus>
<clus scale="   81.666">  2  4  1 -1</clus>
<clus scale="   45.231">  1  3  2 -1</clus>
</clustering>
</event>
<event>
 6    0  0.3042851E+002  0.9352467E+02  0.7546771E-02  0.1294534E+00
         21   -1    0    0  503  501  0.00000000000E+00  0.00000000000E+00  0.12487067984E+03  0.12487067984E+03  0.00000000000E+00 0. -1.
         21   -1    0    0  506  502 -0.00000000000E+00 -0.00000000000E+00 -0.35671675664E+03  0.35671675664E+03  0.00000000000E+00 0. -1.
         21    1    1    2  503  505 -0.24144777086E+02 -0.18069339521E+02 -0.85126013196E+01  0.31335852828E+02  0.00000000000E+00 0. -1.
         21    1    1    2  504  501 -0.15192529885E+02  0.34371064518E+02  0.58478007349E+01  0.38031300449E+02  0.00000000000E+00 0. -1.
         21    1    1    2  505  502 -0.48540500979E+02 -0.79223836518E+02 -0.27837396435E+03  0.29347003345E+03  0.00000000000E+00 0. -1.
         21    1    1    2  506  504  0.87877807950E+02  0.62922111521E+02  0.49192688134E+02  0.11875024974E+03  0.00000000000E+00 0. -1.
<scales pt_clust_3="30.15744" pt_clust_4="36.71327" pt_clust_5="14000.00000" pt_clust_6="93.52467"></scales>
<clustering>
<clus scale="   30.157">  1  3  2 -1</clus>
<clus scale="   36.713">  1  4  2 -1</clus>
<clus scale="   93.525">  1  6  2 -1</clus>
<clus scale="   30.157">  1  3  2 -1</clus>
</clustering>
</event>
<event>
 6    0  0.3042851E+002  0.1301437E+03  0.7546771E-02  0.1227243E+00
         21   -1    0    0  503  501  0.00000000000E+00  0.00000000000E+00  0.73156868611E+02  0.73156868611E+02  0.00000000000E+00 0. -1.
         21   -1    0    0  506  502 -0.00000000000E+00 -0.00000000000E+00 -0.10133519630E+04  0.10133519630E+04  0.00000000000E+00 0. -1.
         21    1    1    2  503  504  0.36444029655E+02 -0.54627654445E+02 -0.84476721328E+02  0.10699843164E+03  0.00000000000E+00 0. -1.
         21    1    1    2  504  502  0.72089267128E+01 -0.33431694481E+02 -0.12485195294E+03  0.12945136914E+03  0.00000000000E+00 0. -1.
         21    1    1    2  505  501 -0.46500801973E+02  0.11854354372E+03 -0.91204198853E+01  0.12766392757E+03  0.00000000000E+00 0. -1.
         21    1    1    2  506  505  0.28478456059E+01 -0.30484194798E+02 -0.72174600027E+03  0.72239510329E+03  0.00000000000E+00 0. -1.
<scales pt_clust_3="39.31367" pt_clust_4="39.31367" pt_clust_5="120.44671" pt_clust_6="30.61693"></scales>
<clustering>
<clus scale="   30.617">  2  6  1 -1</clus>
<clus scale="   39.314">  3  4 -1 -1</clus>
<clus scale="  120.447">  1  5  2 -1</clus>
<clus scale="  120.447">  1  3  2 -1</clus>
</clustering>
</event>
<event>
 6    0  0.3042851E+002  0.2688025E+03  0.7546771E-02  0.1101967E+00
         21   -1    0    0  506  501  0.00000000000E+00  0.00000000000E+00  0.30340315785E+03  0.30340315785E+03  0.00000000000E+00 0.  1.
         21   -1    0    0  505  502 -0.00000000000E+00 -0.00000000000E+00 -0.13448707988E+04  0.13448707988E+04  0.00000000000E+00 0.  1.
         21    1    1    2  503  504  0.50502361978E+02 -0.24769249499E+02  0.30796500863E+02  0.64128221179E+02  0.00000000000E+00 0.  1.
         21    1    1    2  504  501  0.12447795661E+03 -0.17259897986E+03  0.19307016652E+03  0.28733475030E+03  0.00000000000E+00 0.  1.
         21    1    1    2  505  503 -0.13785566627E+03  0.17250035135E+03 -0.11800211391E+04  0.12005042460E+04  0.00000000000E+00 0.  1.
         21    1    1    2  506  502 -0.37124652317E+02  0.24867878006E+02 -0.85313169225E+02  0.96306739169E+02  0.00000000000E+00 0.  1.
<scales pt_clust_3="31.84934" pt_clust_4="31.84934" pt_clust_5="261.56674" pt_clust_6="44.68390"></scales>
<clustering>
<clus scale="   31.849">  3  4 -1 -1</clus>
<clus scale="   44.684">  2  6  1 -1</clus>
<clus scale="  261.567">  2  5  1 -1</clus>
<clus scale="  268.802">  1  3  2 -1</clus>
</clustering>
</event>
<event>
 6    0  0.3042851E+002  0.9488044E+02  0.7546771E-02  0.1291446E+00
         21   -1    0    0  506  501  0.00000000000E+00  0.00000000000E+00  0.12888879673E+03  0.12888879673E+03  0.00000000000E+00 0.  1.
         21   -1    0    0  504  502 -0.00000000000E+00 -0.00000000000E+00 -0.38407771872E+03  0.38407771872E+03  0.00000000000E+00 0. -1.
         21    1    1    2  503  502 -0.96189276416E+02  0.75521843946E+02 -0.24475780770E+03  0.27360977731E+03  0.00000000000E+00 0. -1.
         21    1    1    2  504  505 -0.29295524033E+01 -0.55814388389E+02 -0.70149543855E+02  0.89692735110E+02  0.00000000000E+00 0. -1.
         21    1    1    2  505  501  0.39788565391E+02 -0.14921896708E+02 -0.22560483541E+02  0.48112039604E+02  0.00000000000E+00 0. -1.
         21    1    1    2  506  503  0.59330263429E+02 -0.47855588489E+01  0.82278913110E+02  0.10155196342E+03  0.00000000000E+00 0.  1.
<scales pt_clust_3="94.88044" pt_clust_4="57.07169" pt_clust_5="42.49462" pt_clust_6="14000.00000"></scales>
<clustering>
<clus scale="   42.495">  1  5  2 -1</clus>
<clus scale="   57.072">  2  4  1 -1</clus>
<clus scale="   94.880">  2  3  1 -1</clus>
<clus scale="   42.495">  1  3  2 -1</clus>
</clustering>
</event>
<event>
 6    0  0.3042851E+002  0.9848945E+02  0.7546771E-02  0.1283505E+00
         21   -1    0    0  506  501  0.00000000000E+00  0.00000000000E+00  0.30073234672E+03  0.30073234672E+03  0.00000000000E+00 0.  1.
         21   -1    0    0  503  502 -0.00000000000E+00 -0.00000000000E+00 -0.13070013393E+04  0.13070013393E+04  0.00000000000E+00 0. -1.
         21    1    1    2  503  501 -0.87845480890E+01  0.10106569256E+03  0.25846679904E+03  0.27766261669E+03  0.00000000000E+00 0.  1.
         21    1    1    2  504  505 -0.49770646659E+02 -0.64860813734E+02 -0.99227679955E+03  0.99563913611E+03  0.00000000000E+00 0. -1.
         21    1    1    2  505  502  0.14440783189E+02 -0.27752305986E+02 -0.28585354961E+03  0.28756039110E+03  0.00000000000E+00 0. -1.
         21    1    1    2  506  504  0.44114411559E+02 -0.84525728381E+01  0.13394557491E+02  0.46871542167E+02  0.00000000000E+00 0. -1.
<scales pt_clust_3="14000.00000" pt_clust_4="98.48945" pt_clust_5="31.28461" pt_clust_6="45.23704"></scales>
<clustering>
<clus scale="   31.285">  2  5  1 -1</clus>
<clus scale="   45.237">  1  6  2 -1</clus>
<clus scale="   98.489">  2  4  1 -1</clus>
<clus scale="   45.237">  1  3  2 -1</clus>
</clustering>
</event>
<event>
 6    0  0.3042851E+002  0.1926708E+03  0.7546771E-02  0.1156074E+00
         21   -1    0    0  503  501  0.00000000000E+00  0.00000000000E+00  0.19043101426E+03  0.19043101426E+03  0.00000000000E+00 0. -1.
         21   -1    0    0  506  502 -0.00000000000E+00 -0.00000000000E+00 -0.17373829609E+04  0.17373829609E+04  0.00000000000E+00 0.  1.
         21    1    1    2  503  504  0.10287921414E+03  0.79392537037E+02 -0.10188215929E+03  0.16512807762E+03  0.00000000000E+00 0. -1.
         21    1    1    2  504  502  0.12276917495E+03 -0.18107991623E+02 -0.15117503147E+04  0.15168352527E+04  0.00000000000E+00 0.  1.
         21    1    1    2  505  501 -0.11728523138E+03 -0.31939726281E+02  0.53515483437E+02  0.13281520463E+03  0.00000000000E+00 0. -1.
         21    1    1    2  506  505 -0.10836315771E+03 -0.29344819133E+02  0.13165043958E+02  0.11303544020E+03  0.00000000000E+00 0. -1.
<scales pt_clust_3="189.20567" pt_clust_4="124.09742" pt_clust_5="34.95887" pt_clust_6="34.95887"></scales>
<clustering>
<clus scale="   34.959">  5  6 -1 -1</clus>
<clus scale="  124.097">  2  4  1 -1</clus>
<clus scale="  189.206">  2  3  1 -1</clus>
<clus scale="  192.671">  1  3  2 -1</clus>
</clustering>
</event>
<event>
 6    0  0.3042851E+002  0.2508640E+03  0.7546771E-02  0.1112760E+00
         21   -1    0    0  506  501  0.00000000000E+00  0.00000000000E+00  0.92260858527E+03  0.92260858527E+03  0.00000000000E+00 0.  1.
         21   -1    0    0  503  502 -0.00000000000E+00 -0.00000000000E+00 -0.34724338206E+03  0.34724338206E+03  0.00000000000E+00 0. -1.
         21    1    1    2  503  501 -0.11906964528E+02  0.22863045363E+03  0.71307440138E+03  0.74892507104E+03  0.00000000000E+00 0.  1.
         21    1    1    2  504  505  0.11014700116E+03 -0.19387956624E+03 -0.25138945358E+03  0.33603319098E+03  0.00000000000E+00 0. -1.
         21    1    1    2  505  502 -0.27688847932E+02 -0.51101097611E+02  0.10856209531E+02  0.59125728429E+02  0.00000000000E+00 0. -1.
         21    1    1    2  506  504 -0.70551188696E+02  0.16350210217E+02  0.10282404587E+03  0.12576797689E+03  0.00000000000E+00 0.  1.
<scales pt_clust_3="14000.00000" pt_clust_4="250.86396" pt_clust_5="58.12052" pt_clust_6="72.99620"></scales>
<clustering>
<clus scale="   58.121">  2  5  1 -1</clus>
<clus scale="   72.996">  1  6  2 -1</clus>
<clus scale="  250.864">  2  4  1 -1</clus>
<clus scale="   72.996">  1  3  2 -1</clus>
</clustering>
</event>
<event>
 6    0  0.3042851E+002  0.1468977E+03  0.7546771E-02  0.1204338E+00
         21   -1    0    0  502  501  0.00000000000E+00  0.00000000000E+00  0.54009004756E+03  0.54009004756E+03  0.00000000000E+00 0.  1.
         21   -1    0    0  504  502 -0.00000000000E+00 -0.00000000000E+00 -0.52563834967E+02  0.52563834967E+02  0.00000000000E+00 0. -1.
         21    1    1    2  503  506  0.67535257110E+02  0.19935945904E+02  0.58329654553E+02  0.91437418447E+02  0.00000000000E+00 0. -1.
         21    1    1    2  504  503  0.54007696176E+02  0.34517395507E+02  0.21089061100E+02  0.67476146429E+02  0.00000000000E+00 0. -1.
         21    1    1    2  505  501 -0.94630388998E+02 -0.10306136700E+02  0.26601580400E+03  0.28253413060E+03  0.00000000000E+00 0.  1.
         21    1    1    2  506  505 -0.26912564288E+02 -0.44147204711E+02  0.14209169294E+03  0.15120618706E+03  0.00000000000E+00 0.  1.
<scales pt_clust_3="137.64516" pt_clust_4="33.16437" pt_clust_5="45.67635" pt_clust_6="45.67635"></scales>
<clustering>
<clus scale="   33.164">  3  4 -1 -1</clus>
<clus scale="   45.676">  5  6 -1 -1</clus>
<clus scale="  137.645">  2  3  1 -1</clus>
<clus scale="  146.898">  1  3  2 -1</clus>
</clustering>
</event>
<event>
 6    0  0.3042851E+002  0.1091679E+03  0.7546771E-02  0.1262119E+00
         21   -1    0    0  503  501  0.00000000000E+00  0.00000000000E+00  0.21437739474E+03  0.21437739474E+03  0.00000000000E+00 0. -1.
         21   -1    0    0  506  502 -0.00000000000E+00 -0.00000000000E+00 -0.28257394224E+03  0.28257394224E+03  0.00000000000E+00 0.  1.
         21    1    1    2  503  504  0.19962348960E+02  0.50806364753E+02  0.61724339169E+02  0.82399491026E+02  0.00000000000E+00 0. -1.
         21    1    1    2  504  505 -0.18985901600E+02  0.44329926421E+02  0.11407071747E+03  0.12384561122E+03  0.00000000000E+00 0. -1.
         21    1    1    2  505  502 -0.33173182723E+02 -0.11528016332E+03 -0.18064529783E+03  0.21684718061E+03  0.00000000000E+00 0.  1.
         21    1    1    2  506  501  0.32196735362E+02  0.20143872148E+02 -0.63346306311E+02  0.73859054126E+02  0.00000000000E+00 0. -1.
<scales pt_clust_3="47.18561" pt_clust_4="47.18561" pt_clust_5="96.62488" pt_clust_6="37.97901"></scales>
<clustering>
<clus scale="   37.979">  2  6  1 -1</clus>
<clus scale="   47.186">  3  4 -1 -1</clus>
<clus scale="   96.625">  2  5  1 -1</clus>
<clus scale="  109.168">  1  3  2 -1</clus>
</clustering>
</event>
<event>
 6    0  0.3042851E+002  0.1435854E+03  0.7546771E-02  0.1208584E+00
         21   -1    0    0  503  501  0.00000000000E+00  0.00000000000E+00  0.26255168148E+03  0.26255168148E+03  0.00000000000E+00 0. -1.
         21   -1    0    0  504  502 -0.00000000000E+00 -0.00000000000E+00 -0.87289999567E+03  0.87289999567E+03  0.00000000000E+00 0. -1.
         21    1    1    2  503  502  0.36650666641E+02 -0.23375671692E+02 -0.39490278681E+02  0.58729681616E+02  0.00000000000E+00 0.  1.
         21    1    1    2  504  505 -0.82986643099E+01  0.36167979059E+02 -0.27756565853E+03  0.28003515017E+03  0.00000000000E+00 0. -1.
         21    1    1    2  505  506 -0.10081371077E+03  0.92269707825E+02 -0.51938222642E+03  0.53706144936E+03  0.00000000000E+00 0. -1.
         21    1    1    2  506  501  0.72461708439E+02 -0.10506201519E+03  0.22608984944E+03  0.25962539600E+03  0.00000000000E+00 0. -1.
<scales pt_clust_3="43.47060" pt_clust_4="33.44339" pt_clust_5="33.44339" pt_clust_6="128.44298"></scales>
<clustering>
<clus scale="   33.443">  4  5 -1 -1</clus>
<clus scale="   43.471">  2  3  1 -1</clus>
<clus scale="  128.443">  1  6  2 -1</clus>
<clus scale="  128.443">  1  3  2 -1</clus>
</clustering>
</event>
<event>
 6    0  0.3042851E+002  0.1478355E+03  0.7546771E-02  0.1203158E+00
         21   -1    0    0  506  501  0.00000000000E+00  0.00000000000E+00  0.56407069212E+03  0.56407069212E+03  0.00000000000E+00 0. -1.
         21   -1    0    0  501  502 -0.00000000000E+00 -0.00000000000E+00 -0.12320737322E+03  0.12320737322E+03  0.00000000000E+00 0.  1.
         21    1    1    2  503  505 -0.57756004880E+02  0.25299711050E+01  0.23499411833E+03  0.24200081096E+03  0.00000000000E+00 0. -1.
         21    1    1    2  504  502  0.10137345856E+03  0.48255022941E+02 -0.63206476044E+02  0.12884170114E+03  0.00000000000E+00 0.  1.
         21    1    1    2  505  504  0.30499600071E+02 -0.11699921233E+02 -0.19775307701E+01  0.32726508969E+02  0.00000000000E+00 0.  1.
         21    1    1    2  506  503 -0.74117053747E+02 -0.39085072812E+02  0.27105320739E+03  0.28370904428E+03  0.00000000000E+00 0. -1.
<scales pt_clust_3="32.80909" pt_clust_4="30.17086" pt_clust_5="30.17086" pt_clust_6="142.43229"></scales>
<clustering>
<clus scale="   30.171">  4  5 -1 -1</clus>
<clus scale="   32.809">  3  6 -1 -1</clus>
<clus scale="  142.432">  1  3  2 -1</clus>
<clus scale="  142.432">  1  3  2 -1</clus>
</clustering>
</event>
<event>
 6    0  0.3042851E+002  0.2000761E+03  0.7546771E-02  0.1149675E+00
         21   -1    0    0  504  501  0.00000000000E+00  0.00000000000E+00  0.96706647414E+03  0.96706647414E+03  0.00000000000E+00 0. -1.
         21   -1    0    0  503  502 -0.00000000000E+00 -0.00000000000E+00 -0.58114446372E+02  0.58114446372E+02  0.00000000000E+00 0. -1.
         21    1    1    2  503  506  0.36756152202E+02 -0.10988410905E+03  0.72454516864E+02  0.13665719579E+03  0.00000000000E+00 0. -1.
         21    1    1    2  504  505 -0.75721886273E+02  0.12848756608E+03  0.54464567599E+03  0.56469617590E+03  0.00000000000E+00 0. -1.
         21    1    1    2  505  502  0.84448578836E+01  0.50206742115E+02  0.19285623920E+03  0.19946318351E+03  0.00000000000E+00 0.  1.
         21    1    1    2  506  501  0.30520876187E+02 -0.68810199144E+02  0.98995595722E+02  0.12436436532E+03  0.00000000000E+00 0. -1.
<scales pt_clust_3="196.81746" pt_clust_4="34.92243" pt_clust_5="34.92243" pt_clust_6="38.48046"></scales>
<clustering>
<clus scale="   34.922">  4  5 -1 -1</clus>
<clus scale="   38.480">  3  6 -1 -1</clus>
<clus scale="  196.817">  2  3  1 -1</clus>
<clus scale="  200.076">  1  3  2 -1</clus>
</clustering>
</event>
<event>
 6    0  0.3042851E+002  0.1106471E+03  0.7546771E-02  0.1259376E+00
         21   -1    0    0  504  501  0.00000000000E+00  0.00000000000E+00  0.33902291731E+03  0.33902291731E+03  0.00000000000E+00 0. -1.
         21   -1    0    0  503  502 -0.00000000000E+00 -0.00000000000E+00 -0.95147386568E+02  0.95147386568E+02  0.00000000000E+00 0. -1.
         21    1    1    2  503  505  0.37953793435E+02 -0.91825874532E+01 -0.86056827843E+01  0.39985849055E+02  0.00000000000E+00 0. -1.
         21    1    1    2  504  506  0.90754409526E+02  0.44648320686E+02  0.10653115228E+03  0.14689697681E+03  0.00000000000E+00 0. -1.
         21    1    1    2  505  501 -0.32572130024E+02  0.39426170184E+02 -0.71170346448E+01  0.51633503966E+02  0.00000000000E+00 0. -1.
         21    1    1    2  506  502 -0.96136072938E+02 -0.74891903417E+02  0.15306709589E+03  0.19565397405E+03  0.00000000000E+00 0. -1.
<scales pt_clust_3="39.04882" pt_clust_4="110.64711" pt_clust_5="39.39772" pt_clust_6="14000.00000"></scales>
<clustering>
<clus scale="   39.049">  2  3  1 -1</clus>
<clus scale="   39.398">  2  5  1 -1</clus>
<clus scale="  110.647">  1  4  2 -1</clus>
<clus scale="  110.647">  1  3  2 -1</clus>
</clustering>
</event>
<event>
 6    0  0.3042851E+002  0.1332016E+03  0.7546771E-02  0.1222781E+00
         21   -1    0    0  505  501  0.00000000000E+00  0.00000000000E+00  0.95114762768E+03  0.95114762768E+03  0.00000000000E+00 0. -1.
         21   -1    0    0  506  502 -0.00000000000E+00 -0.00000000000E+00 -0.85853027465E+02  0.85853027465E+02  0.00000000000E+00 0.  1.
         21    1    1    2  503  501  0.11652040126E+03 -0.17646224272E+03  0.61199319213E+03  0.64749640480E+03  0.00000000000E+00 0. -1.
         21    1    1    2  504  502 -0.20190847866E+02  0.35211863063E+02  0.62883705315E+02  0.74845881864E+02  0.00000000000E+00 0. -1.
         21    1    1    2  505  504 -0.18985766326E+02  0.42982973809E+02  0.18349145843E+03  0.18941254097E+03  0.00000000000E+00 0. -1.
         21    1    1    2  506  503 -0.77343787072E+02  0.98267405844E+02  0.69262443483E+01  0.12524582752E+03  0.00000000000E+00 0.  1.
<scales pt_clust_3="133.20159" pt_clust_4="35.78615" pt_clust_5="95.56041" pt_clust_6="14000.00000"></scales>
<clustering>
<clus scale="   35.786">  4  5 -1 -1</clus>
<clus scale="   95.560">  1  4  2 -1</clus>
<clus scale="  133.202">  1  3  2 -1</clus>
<clus scale="   95.560">  1  3  2 -1</clus>
</clustering>
</event>
<event>
 6    0  0.3042851E+002  0.8431825E+02  0.7546771E-02  0.1317225E+00
         21   -1    0    0  505  501  0.00000000000E+00  0.00000000000E+00  0.60718662094E+03  0.60718662094E+03  0.00000000000E+00 0. -1.
         21   -1    0    0  506  502 -0.00000000000E+00 -0.00000000000E+00 -0.10782978771E+03  0.10782978771E+03  0.00000000000E+00 0. -1.
         21    1    1    2  503  501 -0.71704533019E+02  0.22060581036E+02  0.17693182440E+03  0.19217981106E+03  0.00000000000E+00 0. -1.
         21    1    1    2  504  502  0.31513319173E+02  0.11472728394E+02 -0.63106353337E+02  0.71464149149E+02  0.00000000000E+00 0. -1.
         21    1    1    2  505  504  0.84638101737E+01 -0.95382193458E+02  0.36720527749E+03  0.37948532874E+03  0.00000000000E+00 0. -1.
         21    1    1    2  506  503  0.31727403672E+02  0.61848884028E+02  0.18326084666E+02  0.71887119698E+02  0.00000000000E+00 0.  1.
<scales pt_clust_3="70.09532" pt_clust_4="33.53674" pt_clust_5="14000.00000" pt_clust_6="84.31825"></scales>
<clustering>
<clus scale="   33.537">  2  4  1 -1</clus>
<clus scale="   70.095">  1  3  2 -1</clus>
<clus scale="   84.318">  2  6  1 -1</clus>
<clus scale="   70.095">  1  3  2 -1</clus>
</clustering>
</event>
<event>
 6    0  0.3042851E+002  0.2002993E+03  0.7546771E-02  0.1149487E+00
         21   -1    0    0  505  501  0.00000000000E+00  0.00000000000E+00  0.39664561315E+03  0.39664561315E+03  0.00000000000E+00 0. -1.
         21   -1    0    0  506  502 -0.00000000000E+00 -0.00000000000E+00 -0.21896780493E+03  0.21896780493E+03  0.00000000000E+00 0.  1.
         21    1    1    2  503  501 -0.10396257643E+03 -0.10966049135E+03  0.14052801248E+03  0.20635349028E+03  0.00000000000E+00 0. -1.
         21    1    1    2  504  502  0.11226862650E+03  0.14014204134E+03 -0.79979600705E+02  0.19657256364E+03  0.00000000000E+00 0.  1.
         21    1    1    2  505  504  0.71578302687E+02  0.24538404701E+02  0.76261918387E+02  0.10743121947E+03  0.00000000000E+00 0.  1.
         21    1    1    2  506  503 -0.79884352765E+02 -0.55019954686E+02  0.40867478062E+02  0.10525614468E+03  0.00000000000E+00 0. -1.
<scales pt_clust_3="45.86381" pt_clust_4="191.94503" pt_clust_5="75.66761" pt_clust_6="45.86381"></scales>
<clustering>
<clus scale="   45.864">  3  6 -1 -1</clus>
<clus scale="   75.668">  1  5  2 -1</clus>
<clus scale="  191.945">  2  4  1 -1</clus>
<clus scale="   75.668">  1  3  2 -1</clus>
</clustering>
</event>
<event>
 6    0  0.3042851E+002  0.1079297E+03  0.7546771E-02  0.1264452E+00
         21   -1    0    0  505  501  0.00000000000E+00  0.00000000000E+00  0.24304085390E+03  0.24304085390E+03  0.00000000000E+00 0.  1.
         21   -1    0    0  504  502 -0.00000000000E+00 -0.00000000000E+00 -0.19540602845E+03  0.19540602845E+03  0.00000000000E+00 0.  1.
         21    1    1    2  503  501  0.10773091223E+03  0.95151953619E+02  0.69834535089E+02  0.15980208390E+03  0.00000000000E+00 0.  1.
         21    1    1    2  504  503 -0.10945256278E+02 -0.82756962106E+02 -0.72337310533E+02  0.11045904176E+03  0.00000000000E+00 0.  1.
         21    1    1    2  505  506 -0.18380803887E+02 -0.26174407538E+02  0.77634099002E+02  0.83964319144E+02  0.00000000000E+00 0.  1.
         21    1    1    2  506  502 -0.78404852063E+02  0.13779416025E+02 -0.27496498106E+02  0.84221437538E+02  0.00000000000E+00 0.  1.
<scales pt_clust_3="107.92974" pt_clust_4="14000.00000" pt_clust_5="31.98365" pt_clust_6="82.13541"></scales>
<clustering>
<clus scale="   31.984">  1  5  2 -1</clus>
<clus scale="   82.135">  2  6  1 -1</clus>
<clus scale="  107.930">  1  3  2 -1</clus>
<clus scale="   31.984">  1  3  2 -1</clus>
</clustering>
</event>
<event>
 6    0  0.3042851E+002  0.1285579E+03  0.7546771E-02  0.1229611E+00
         21   -1    0    0  506  501  0.00000000000E+00  0.00000000000E+00  0.11264658750E+03  0.11264658750E+03  0.00000000000E+00 0. -1.
         21   -1    0    0  501  502 -0.00000000000E+00 -0.00000000000E+00 -0.20668166035E+04  0.20668166035E+04  0.00000000000E+00 0.  1.
         21    1    1    2  503  504  0.13489182752E+03 -0.10111844762E+03  0.44822577845E+01  0.16864411112E+03  0.00000000000E+00 0. -1.
         21    1    1    2  504  505 -0.77695241503E+02 -0.74766734530E+01 -0.14740440139E+04  0.14761091444E+04  0.00000000000E+00 0.  1.
         21    1    1    2  505  502 -0.43912882969E+02  0.55629216168E+02 -0.47376591953E+03  0.47903767857E+03  0.00000000000E+00 0.  1.
         21    1    1    2  506  503 -0.13283703051E+02  0.52965904905E+02 -0.10842340384E+02  0.55672256952E+02  0.00000000000E+00 0. -1.
<scales pt_clust_3="128.55786" pt_clust_4="14000.00000" pt_clust_5="72.33064" pt_clust_6="54.60626"></scales>
<clustering>
<clus scale="   54.606">  1  6  2 -1</clus>
<clus scale="   72.331">  2  5  1 -1</clus>
<clus scale="  128.558">  1  3  2 -1</clus>
<clus scale="   54.606">  1  3  2 -1</clus>
</clustering>
</event>
<event>
 6    0  0.3042851E+002  0.7096337E+02  0.7546771E-02  0.1356847E+00
         21   -1    0    0  505  501  0.00000000000E+00  0.00000000000E+00  0.40952661315E+03  0.40952661315E+03  0.00000000000E+00 0.  1.
         21   -1    0    0  506  502 -0.00000000000E+00 -0.00000000000E+00 -0.64170051561E+02  0.64170051561E+02  0.00000000000E+00 0.  1.
         21    1    1    2  503  502  0.79768019563E+02  0.16308154780E+02  0.25094512112E+02  0.85197578577E+02  0.00000000000E+00 0.  1.
         21    1    1    2  504  501 -0.92881650926E+02  0.47820176526E+02  0.17796836858E+03  0.20636499358E+03  0.00000000000E+00 0.  1.
         21    1    1    2  505  503  0.50414139626E+02 -0.27333768297E+02  0.97906366398E+02  0.11346531164E+03  0.00000000000E+00 0.  1.
         21    1    1    2  506  504 -0.37300508262E+02 -0.36794563008E+02  0.44387314495E+02  0.68668780910E+02  0.00000000000E+00 0. -1.
<scales pt_clust_3="14000.00000" pt_clust_4="70.96337" pt_clust_5="55.57436" pt_clust_6="52.39435"></scales>
<clustering>
<clus scale="   52.394">  2  6  1 -1</clus>
<clus scale="   55.574">  1  5  2 -1</clus>
<clus scale="   70.963">  1  4  2 -1</clus>
<clus scale="   55.574">  1  3  2 -1</clus>
</clustering>
</event>
<event>
 6    0  0.3042851E+002  0.1533327E+03  0.7546771E-02  0.1196437E+00
         21   -1    0    0  506  501  0.00000000000E+00  0.00000000000E+00  0.69488075355E+03  0.69488075355E+03  0.00000000000E+00 0. -1.
         21   -1    0    0  501  502 -0.00000000000E+00 -0.00000000000E+00 -0.13425088077E+03  0.13425088077E+03  0.00000000000E+00 0. -1.
         21    1    1    2  503  502 -0.47101878568E+02 -0.86059328371E+00 -0.93662630755E+01  0.48031806852E+02  0.00000000000E+00 0. -1.
         21    1    1    2  504  503 -0.75793140545E+02  0.60241084155E+02 -0.72249678243E+02  0.12080399157E+03  0.00000000000E+00 0. -1.
         21    1    1    2  505  504  0.49647167320E+02  0.60007491962E+01  0.14313403095E+03  0.15161860384E+03  0.00000000000E+00 0. -1.
         21    1    1    2  506  505  0.73247851793E+02 -0.65381240068E+02  0.49911178315E+03  0.50867723207E+03  0.00000000000E+00 0. -1.
<scales pt_clust_3="39.55292" pt_clust_4="147.79839" pt_clust_5="49.86407" pt_clust_6="49.86407"></scales>
<clustering>
<clus scale="   39.553">  3  4 -1 -1</clus>
<clus scale="   49.864">  5  6 -1 -1</clus>
<clus scale="  147.798">  2  3  1 -1</clus>
<clus scale="  153.333">  1  3  2 -1</clus>
</clustering>
</event>
<event>
 6    0  0.3042851E+002  0.1877246E+03  0.7546771E-02  0.1160530E+00
         21   -1    0    0  505  501  0.00000000000E+00  0.00000000000E+00  0.78419013769E+03  0.78419013769E+03  0.00000000000E+00 0.  1.
         21   -1    0    0  503  502 -0.00000000000E+00 -0.00000000000E+00 -0.13800772646E+03  0.13800772646E+03  0.00000000000E+00 0. -1.
         21    1    1    2  503  506 -0.20625022294E+02 -0.24069321555E+02  0.27351516830E+02  0.41866803767E+02  0.00000000000E+00 0. -1.
         21    1    1    2  504  502  0.13508865005E+03  0.47290328058E+02 -0.20805920155E+02  0.14463127190E+03  0.00000000000E+00 0. -1.
         21    1    1    2  505  504  0.64466055524E+02 -0.10568463568E+02 -0.60062383109E+01  0.65602131335E+02  0.00000000000E+00 0. -1.
         21    1    1    2  506  501 -0.17892968328E+03 -0.12652542936E+02  0.64564305286E+03  0.67009765715E+03  0.00000000000E+00 0.  1.
<scales pt_clust_3="31.69738" pt_clust_4="33.48125" pt_clust_5="33.48125" pt_clust_6="181.47148"></scales>
<clustering>
<clus scale="   31.697">  2  3  1 -1</clus>
<clus scale="   33.481">  4  5 -1 -1</clus>
<clus scale="  181.471">  1  6  2 -1</clus>
<clus scale="  181.471">  1  3  2 -1</clus>
</clustering>
</event>
<event>
 6    0  0.3042851E+002  0.1188244E+03  0.7546771E-02  0.1245049E+00
         21   -1    0    0  504  501  0.00000000000E+00  0.00000000000E+00  0.45367856093E+03  0.45367856093E+03  0.00000000000E+00 0.  1.
         21   -1    0    0  503  502 -0.00000000000E+00 -0.00000000000E+00 -0.38613709085E+03  0.38613709085E+03  0.00000000000E+00 0. -1.
         21    1    1    2  503  505 -0.64362036384E+02 -0.73662492076E+02 -0.29121566568E+03  0.30720546611E+03  0.00000000000E+00 0. -1.
         21    1    1    2  504  506  0.66003652445E+02 -0.49758669439E-01  0.14475985338E+03  0.15909713939E+03  0.00000000000E+00 0. -1.
         21    1    1    2  505  501  0.40408939682E+02  0.62899428753E+02  0.28260181622E+03  0.29232346309E+03  0.00000000000E+00 0.  1.
         21    1    1    2  506  502 -0.42050555742E+02  0.10812821992E+02 -0.68604533831E+02  0.81189583198E+02  0.00000000000E+00 0. -1.
<scales pt_clust_3="118.82437" pt_clust_4="65.03543" pt_clust_5="14000.00000" pt_clust_6="43.41850"></scales>
<clustering>
<clus scale="   43.419">  2  6  1 -1</clus>
<clus scale="   65.035">  1  4  2 -1</clus>
<clus scale="  118.824">  2  3  1 -1</clus>
<clus scale="   65.035">  1  3  2 -1</clus>
</clustering>
</event>
<event>
 6    0  0.3042851E+002  0.1845506E+03  0.7546771E-02  0.1163470E+00
         21   -1    0    0  502  501  0.00000000000E+00  0.00000000000E+00  0.26901779381E+03  0.26901779381E+03  0.00000000000E+00 0. -1.
         21   -1    0    0  504  502 -0.00000000000E+00 -0.00000000000E+00 -0.29586919438E+03  0.29586919438E+03  0.00000000000E+00 0. -1.
         21    1    1    2  503  501  0.46075233755E+02  0.11492995829E+02  0.11325397638E+03  0.12280667443E+03  0.00000000000E+00 0. -1.
         21    1    1    2  504  505 -0.12773881517E+03  0.65054623405E+02 -0.18590575666E+03  0.23475574388E+03  0.00000000000E+00 0. -1.
         21    1    1    2  505  506 -0.41017856852E+02  0.95106913976E+01 -0.16246321950E+02  0.45131594349E+02  0.00000000000E+00 0.  1.
         21    1    1    2  506  503  0.12268143827E+03 -0.86058310632E+02  0.62046701653E+02  0.16219297553E+03  0.00000000000E+00 0. -1.
<scales pt_clust_3="47.48701" pt_clust_4="31.75325" pt_clust_5="31.75325" pt_clust_6="175.00360"></scales>
<clustering>
<clus scale="   31.753">  4  5 -1 -1</clus>
<clus scale="   47.487">  1  3  2 -1</clus>
<clus scale="  175.004">  1  6  2 -1</clus>
<clus scale="   47.487">  1  3  2 -1</clus>
</clustering>
</event>
<event>
 6    0  0.3042851E+002  0.6858975E+02  0.7546771E-02  0.1364955E+00
         21   -1    0    0  503  501  0.00000000000E+00  0.00000000000E+00  0.28428981155E+02  0.28428981155E+02  0.00000000000E+00 0. -1.
         21   -1    0    0  504  502 -0.00000000000E+00 -0.00000000000E+00 -0.74696784620E+03  0.74696784620E+03  0.00000000000E+00 0.  1.
         21    1    1    2  503  505  0.55161141198E+02  0.94934489585E+01 -0.61791973491E+02  0.83373407387E+02  0.00000000000E+00 0.  1.
         21    1    1    2  504  501 -0.59046999875E+02  0.47786126691E+02 -0.12886663380E+03  0.14958833981E+03  0.00000000000E+00 0. -1.
         21    1    1    2  505  506  0.38557085025E+02 -0.74042281903E+02 -0.30338933066E+03  0.31466489203E+03  0.00000000000E+00 0.  1.
         21    1    1    2  506  502 -0.34671226347E+02  0.16762706253E+02 -0.22449092709E+03  0.22777018813E+03  0.00000000000E+00 0. -1.
<scales pt_clust_3="51.70095" pt_clust_4="68.58975" pt_clust_5="14000.00000" pt_clust_6="38.51081"></scales>
<clustering>
<clus scale="   38.511">  2  6  1 -1</clus>
<clus scale="   51.701">  1  3  2 -1</clus>
<clus scale="   68.590">  1  4  2 -1</clus>
<clus scale="   51.701">  1  3  2 -1</clus>
</clustering>
</event>
<event>
 6    0  0.3042851E+002  0.1331414E+03  0.7546771E-02  0.1222868E+00
         21   -1    0    0  506  501  0.00000000000E+00  0.00000000000E+00  0.79545858113E+02  0.79545858113E+02  0.00000000000E+00 0. -1.
         21   -1    0    0  503  502 -0.00000000000E+00 -0.00000000000E+00 -0.14359797665E+04  0.14359797665E+04  0.00000000000E+00 0. -1.
         21    1    1    2  503  504  0.40472254674E+02  0.38052543288E+02 -0.25740124890E+03  0.26332755720E+03  0.00000000000E+00 0. -1.
         21    1    1    2  504  501  0.98957133579E+02 -0.12199727047E+03 -0.42675471704E+02  0.16277912696E+03  0.00000000000E+00 0. -1.
         21    1    1    2  505  502 -0.43677703846E+02  0.46382534400E+02 -0.90007423600E+03  0.90232627780E+03  0.00000000000E+00 0. -1.
         21    1    1    2  506  505 -0.95751684406E+02  0.37562192785E+02 -0.15628295175E+03  0.18709266261E+03  0.00000000000E+00 0. -1.
<scales pt_clust_3="55.55177" pt_clust_4="14000.00000" pt_clust_5="76.60488" pt_clust_6="133.14141"></scales>
<clustering>
<clus scale="   55.552">  2  3  1 -1</clus>
<clus scale="   76.605">  2  5  1 -1</clus>
<clus scale="  133.141">  2  6  1 -1</clus>
<clus scale="  133.141">  1  3  2 -1</clus>
</clustering>
</event>
<event>
 6    0  0.3042851E+002  0.8128823E+02  0.7546771E-02  0.1325435E+00
         21   -1    0    0  506  501  0.00000000000E+00  0.00000000000E+00  0.91737821896E+02  0.91737821896E+02  0.00000000000E+00 0. -1.
         21   -1    0    0  505  502 -0.00000000000E+00 -0.00000000000E+00 -0.23709335066E+03  0.23709335066E+03  0.00000000000E+00 0.  1.
         21    1    1    2  503  502 -0.40888173171E+02 -0.11698292102E+03 -0.96957234928E+02  0.15734532697E+03  0.00000000000E+00 0.  1.
         21    1    1    2  504  501  0.30679584280E+02  0.17611924347E+02  0.86860117851E+01  0.36426138576E+02  0.00000000000E+00 0. -1.
         21    1    1    2  505  504  0.95828855270E+01  0.41495859029E+02 -0.63889122061E+02  0.76782536616E+02  0.00000000000E+00 0. -1.
         21    1    1    2  506  503  0.62570336361E+00  0.57875137646E+02  0.68048164354E+01  0.58277170393E+02  0.00000000000E+00 0. -1.
<scales pt_clust_3="81.28823" pt_clust_4="35.37537" pt_clust_5="44.89544" pt_clust_6="14000.00000"></scales>
<clustering>
<clus scale="   35.375">  1  4  2 -1</clus>
<clus scale="   44.895">  2  5  1 -1</clus>
<clus scale="   81.288">  2  3  1 -1</clus>
<clus scale="   35.375">  1  3  2 -1</clus>
</clustering>
</event>
<event>
 6    0  0.3042851E+002  0.1515048E+03  0.7546771E-02  0.1198636E+00
         21   -1    0    0  504  501  0.00000000000E+00  0.00000000000E+00  0.10397004511E+04  0.10397004511E+04  0.00000000000E+00 0. -1.
         21   -1    0    0  503  502 -0.00000000000E+00 -0.00000000000E+00 -0.14454987272E+03  0.14454987272E+03  0.00000000000E+00 0. -1.
         21    1    1    2  503  501  0.19773023412E+03 -0.10567642706E+02  0.11426861490E+03  0.22861810276E+03  0.00000000000E+00 0. -1.
         21    1    1    2  504  505 -0.43993340237E+02 -0.15508825747E+02  0.53753930057E+03  0.53955948451E+03  0.00000000000E+00 0. -1.
         21    1    1    2  505  506 -0.55261777095E+02 -0.84943535842E+02  0.24767942731E+03  0.26760860787E+03  0.00000000000E+00 0. -1.
         21    1    1    2  506  502 -0.98475116790E+02  0.11102000429E+03 -0.43367644081E+01  0.14846412868E+03  0.00000000000E+00 0. -1.
<scales pt_clust_3="151.50479" pt_clust_4="46.64695" pt_clust_5="121.23796" pt_clust_6="14000.00000"></scales>
<clustering>
<clus scale="   46.647">  1  4  2 -1</clus>
<clus scale="  121.238">  1  5  2 -1</clus>
<clus scale="  151.505">  1  3  2 -1</clus>
<clus scale="   46.647">  1  3  2 -1</clus>
</clustering>
</event>
<event>
 6    0  0.3042851E+002  0.1392139E+03  0.7546771E-02  0.1214391E+00
         21   -1    0    0  503  501  0.00000000000E+00  0.00000000000E+00  0.23103272160E+04  0.23103272160E+04  0.00000000000E+00 0. -1.
         21   -1    0    0  501  502 -0.00000000000E+00 -0.00000000000E+00 -0.95980970814E+02  0.95980970814E+02  0.00000000000E+00 0.  1.
         21    1    1    2  503  504 -0.12544078386E+02  0.13790831550E+03  0.19324580083E+04  0.19374132267E+04  0.00000000000E+00 0. -1.
         21    1    1    2  504  506 -0.30400931177E+02 -0.24538698425E+02  0.63754865065E+02  0.74773305105E+02  0.00000000000E+00 0.  1.
         21    1    1    2  505  502  0.75969894617E+02 -0.38515697807E+02 -0.60011581682E+02  0.10419344414E+03  0.00000000000E+00 0.  1.
         21    1    1    2  506  505 -0.33024885055E+02 -0.74853919271E+02  0.27814495353E+03  0.28992821083E+03  0.00000000000E+00 0.  1.
<scales pt_clust_3="131.03637" pt_clust_4="32.48565" pt_clust_5="85.17561" pt_clust_6="32.48565"></scales>
<clustering>
<clus scale="   32.486">  4  6 -1 -1</clus>
<clus scale="   85.176">  2  5  1 -1</clus>
<clus scale="  131.036">  1  3  2 -1</clus>
<clus scale="  131.036">  1  3  2 -1</clus>
</clustering>
</event>
<event>
 6    0  0.3042851E+002  0.1346131E+03  0.7546771E-02  0.1220767E+00
         21   -1    0    0  505  501  0.00000000000E+00  0.00000000000E+00  0.89233462726E+02  0.89233462726E+02  0.00000000000E+00 0. -1.
         21   -1    0    0  504  502 -0.00000000000E+00 -0.00000000000E+00 -0.77086781253E+03  0.77086781253E+03  0.00000000000E+00 0.  1.
         21    1    1    2  503  506  0.14274214689E+02 -0.36166837436E+02 -0.17347930680E+02  0.42576331852E+02  0.00000000000E+00 0.  1.
         21    1    1    2  504  503 -0.19901702039E+02 -0.43107977307E+02 -0.76791841353E+02  0.90284895470E+02  0.00000000000E+00 0.  1.
         21    1    1    2  505  502 -0.38673604339E+02  0.15200453924E+03 -0.61737715355E+03  0.63698946408E+03  0.00000000000E+00 0.  1.
         21    1    1    2  506  501  0.44301091688E+02 -0.72729724501E+02  0.29882575779E+02  0.90250583854E+02  0.00000000000E+00 0. -1.
<scales pt_clust_3="31.66693" pt_clust_4="47.48026" pt_clust_5="126.19167" pt_clust_6="31.66693"></scales>
<clustering>
<clus scale="   31.667">  3  6 -1 -1</clus>
<clus scale="   47.480">  2  4  1 -1</clus>
<clus scale="  126.192">  2  5  1 -1</clus>
<clus scale="  134.613">  1  3  2 -1</clus>
</clustering>
</event>
<event>
 6    0  0.3042851E+002  0.1448659E+03  0.7546771E-02  0.1206927E+00
         21   -1    0    0  505  501  0.00000000000E+00  0.00000000000E+00  0.65046586682E+03  0.65046586682E+03  0.00000000000E+00 0. -1.
         21   -1    0    0  506  502 -0.00000000000E+00 -0.00000000000E+00 -0.70686063276E+02  0.70686063276E+02  0.00000000000E+00 0. -1.
         21    1    1    2  503  502  0.36968594384E+02 -0.18973989604E+02  0.10167718502E+03  0.10984051714E+03  0.00000000000E+00 0. -1.
         21    1    1    2  504  501 -0.18601577352E+02  0.52434826480E+02 -0.95177584827E+01  0.56444817605E+02  0.00000000000E+00 0. -1.
         21    1    1    2  505  503  0.33150224833E+02 -0.91503318767E+02  0.46348461657E+03  0.47359242451E+03  0.00000000000E+00 0. -1.
         21    1    1    2  506  504 -0.51517241865E+02  0.58042481892E+02  0.24135760427E+02  0.81274170835E+02  0.00000000000E+00 0. -1.
<scales pt_clust_3="40.61890" pt_clust_4="34.19385" pt_clust_5="40.61890" pt_clust_6="136.94099"></scales>
<clustering>
<clus scale="   34.194">  4  6 -1 -1</clus>
<clus scale="   40.619">  3  5 -1 -1</clus>
<clus scale="  136.941">  2  4  1 -1</clus>
<clus scale="  144.866">  1  3  2 -1</clus>
</clustering>
</event>
<event>
 6    0  0.3042851E+002  0.1856139E+03  0.7546771E-02  0.1162478E+00
         21   -1    0    0  502  501  0.00000000000E+00  0.00000000000E+00  0.66455890802E+03  0.66455890802E+03  0.00000000000E+00 0.  1.
         21   -1    0    0  506  502 -0.00000000000E+00 -0.00000000000E+00 -0.40640238989E+03  0.40640238989E+03  0.00000000000E+00 0. -1.
         21    1    1    2  503  501 -0.10007139362E+03 -0.14619219396E+02  0.45843967461E+03  0.46946239535E+03  0.00000000000E+00 0.  1.
         21    1    1    2  504  505  0.96144301409E+02 -0.66835417572E+01 -0.16088426478E+03  0.18754237675E+03  0.00000000000E+00 0. -1.
         21    1    1    2  505  503 -0.74882825845E+02  0.73517333589E+01  0.17209527922E+03  0.18782510674E+03  0.00000000000E+00 0.  1.
         21    1    1    2  506  504  0.78809918060E+02  0.13951027794E+02 -0.21149417092E+03  0.22613141907E+03  0.00000000000E+00 0. -1.
<scales pt_clust_3="53.10638" pt_clust_4="180.16745" pt_clust_5="53.10638" pt_clust_6="38.64669"></scales>
<clustering>
<clus scale="   38.647">  4  6 -1 -1</clus>
<clus scale="   53.106">  3  5 -1 -1</clus>
<clus scale="  180.167">  2  4  1 -1</clus>
<clus scale="  185.614">  1  3  2 -1</clus>
</clustering>
</event>
<event>
 6    0  0.3042851E+002  0.9764184E+02  0.7546771E-02  0.1285334E+00
         21   -1    0    0  506  501  0.00000000000E+00  0.00000000000E+00  0.47787200319E+03  0.47787200319E+03  0.00000000000E+00 0.  1.
         21   -1    0    0  503  502 -0.00000000000E+00 -0.00000000000E+00 -0.79570373230E+03  0.79570373230E+03  0.00000000000E+00 0. -1.
         21    1    1    2  503  501 -0.36174856467E+02  0.10560621725E+02  0.32368576533E+03  0.32587209400E+03  0.00000000000E+00 0.  1.
         21    1    1    2  504  502 -0.39006305220E+02  0.96702026745E+02 -0.69794332084E+03  0.70568948762E+03  0.00000000000E+00 0. -1.
         21    1    1    2  505  504  0.53827389316E+02 -0.52409309016E+02 -0.69919512857E+02  0.10262973151E+03  0.00000000000E+00 0.  1.
         21    1    1    2  506  505  0.21353772371E+02 -0.54853339454E+02  0.12634533926E+03  0.13938442236E+03  0.00000000000E+00 0.  1.
<scales pt_clust_3="37.68484" pt_clust_4="97.64184" pt_clust_5="14000.00000" pt_clust_6="46.77852"></scales>
<clustering>
<clus scale="   37.685">  1  3  2 -1</clus>
<clus scale="   46.779">  1  6  2 -1</clus>
<clus scale="   97.642">  2  4  1 -1</clus>
<clus scale="   37.685">  1  3  2 -1</clus>
</clustering>
</event>
<event>
 6    0  0.3042851E+002  0.1162431E+03  0.7546771E-02  0.1249427E+00
         21   -1    0    0  505  501  0.00000000000E+00  0.00000000000E+00  0.12122668021E+03  0.12122668021E+03  0.00000000000E+00 0.  1.
         21   -1    0    0  503  502 -0.00000000000E+00 -0.00000000000E+00 -0.29538037870E+03  0.29538037870E+03  0.00000000000E+00 0.  1.
         21    1    1    2  503  501 -0.75532042517E+01  0.72428198501E+02  0.28151832316E+02  0.78073173980E+02  0.00000000000E+00 0.  1.
         21    1    1    2  504  502  0.62132617073E+02  0.55887313331E+02 -0.15202940682E+03  0.17348427719E+03  0.00000000000E+00 0.  1.
         21    1    1    2  505  506 -0.29712518932E+01 -0.70470123241E+02 -0.51805091682E+02  0.87513622548E+02  0.00000000000E+00 0.  1.
         21    1    1    2  506  504 -0.51608160928E+02 -0.57845388591E+02  0.15289676923E+01  0.77535985181E+02  0.00000000000E+00 0.  1.
<scales pt_clust_3="72.82098" pt_clust_4="90.78855" pt_clust_5="69.24480" pt_clust_6="69.24480"></scales>
<clustering>
<clus scale="   69.245">  5  6 -1 -1</clus>
<clus scale="   72.821">  1  3  2 -1</clus>
<clus scale="   90.789">  2  4  1 -1</clus>
<clus scale="   72.821">  1  3  2 -1</clus>
</clustering>
</event>
<event>
 6    0  0.3042851E+002  0.1397584E+03  0.7546771E-02  0.1213654E+00
         21   -1    0    0  503  501  0.00000000000E+00  0.00000000000E+00  0.56460238712E+03  0.56460238712E+03  0.00000000000E+00 0.  1.
         21   -1    0    0  506  502 -0.00000000000E+00 -0.00000000000E+00 -0.58053680821E+03  0.58053680821E+03  0.00000000000E+00 0. -1.
         21    1    1    2  503  504 -0.43564876951E+02  0.34961794941E+02  0.78324106843E+02  0.96202345720E+02  0.00000000000E+00 0.  1.
         21    1    1    2  504  505 -0.51253659294E+02  0.73434513191E+02  0.45500919932E+03  0.46373800447E+03  0.00000000000E+00 0.  1.
         21    1    1    2  505  502  0.67545277658E+02 -0.57508838778E+02 -0.50423175099E+03  0.51197586836E+03  0.00000000000E+00 0. -1.
         21    1    1    2  506  501  0.27273258588E+02 -0.50887469353E+02 -0.45035976262E+02  0.73222976783E+02  0.00000000000E+00 0.  1.
<scales pt_clust_3="55.85898" pt_clust_4="14000.00000" pt_clust_5="139.75840" pt_clust_6="56.22159"></scales>
<clustering>
<clus scale="   55.859">  1  3  2 -1</clus>
<clus scale="   56.222">  2  6  1 -1</clus>
<clus scale="  139.758">  2  5  1 -1</clus>
<clus scale="   55.859">  1  3  2 -1</clus>
</clustering>
</event>
<event>
 6    0  0.3042851E+002  0.1028250E+03  0.7546771E-02  0.1274465E+00
         21   -1    0    0  505  501  0.00000000000E+00  0.00000000000E+00  0.40993174868E+03  0.40993174868E+03  0.00000000000E+00 0.  1.
         21   -1    0    0  506  502 -0.00000000000E+00 -0.00000000000E+00 -0.89626836900E+03  0.89626836900E+03  0.00000000000E+00 0.  1.
         21    1    1    2  503  504 -0.10114642259E+03 -0.30346516286E+02  0.48541362514E+02  0.11622294837E+03  0.00000000000E+00 0.  1.
         21    1    1    2  504  501  0.73839689974E+02  0.74220718577E+02  0.31716569031E+03  0.33399863771E+03  0.00000000000E+00 0.  1.
         21    1    1    2  505  502  0.44880617178E+02 -0.15592700084E+02 -0.56984311707E+03  0.57182040901E+03  0.00000000000E+00 0. -1.
         21    1    1    2  506  503 -0.17573884560E+02 -0.28281502207E+02 -0.28220055607E+03  0.28415812259E+03  0.00000000000E+00 0.  1.
<scales pt_clust_3="14000.00000" pt_clust_4="102.82504" pt_clust_5="50.70477" pt_clust_6="33.29692"></scales>
<clustering>
<clus scale="   33.297">  2  6  1 -1</clus>
<clus scale="   50.705">  2  5  1 -1</clus>
<clus scale="  102.825">  1  4  2 -1</clus>
<clus scale="  102.825">  1  3  2 -1</clus>
</clustering>
</event>
<event>
 6    0  0.4733677E+002  0.1234494E+03  0.7546771E-02  0.1237513E+00
         21   -1    0    0  504  501  0.00000000000E+00  0.00000000000E+00  0.34891244796E+03  0.34891244796E+03  0.00000000000E+00 0.  1.
         21   -1    0    0  503  502 -0.00000000000E+00 -0.00000000000E+00 -0.21820983413E+04  0.21820983413E+04  0.00000000000E+00 0. -1.
         21    1    1    2  503  506  0.10337388324E+02  0.32142842363E+02 -0.11214167176E+03  0.11711438194E+03  0.00000000000E+00 0. -1.
         21    1    1    2  504  505 -0.64847296963E+02 -0.30353940418E+02  0.13311901604E+02  0.72826783168E+02  0.00000000000E+00 0. -1.
         21    1    1    2  505  502  0.10806492804E+03  0.19876973391E+02 -0.20334656216E+04  0.20364320654E+04  0.00000000000E+00 0. -1.
         21    1    1    2  506  501 -0.53555019404E+02 -0.21665875337E+02  0.29910949833E+03  0.30463755883E+03  0.00000000000E+00 0.  1.
<scales pt_clust_3="33.76424" pt_clust_4="14000.00000" pt_clust_5="123.44944" pt_clust_6="57.74262"></scales>
<clustering>
<clus scale="   33.764">  2  3  1 -1</clus>
<clus scale="   57.743">  1  6  2 -1</clus>
<clus scale="  123.449">  2  5  1 -1</clus>
<clus scale="   57.743">  1  3  2 -1</clus>
</clustering>
</event>
<event>
 6    0  0.3042851E+002  0.1583543E+03  0.7546771E-02  0.1190567E+00
         21   -1    0    0  505  501  0.00000000000E+00  0.00000000000E+00  0.12670074227E+03  0.12670074227E+03  0.00000000000E+00 0.  1.
         21   -1    0    0  503  502 -0.00000000000E+00 -0.00000000000E+00 -0.33958574737E+04  0.33958574737E+04  0.00000000000E+00 0. -1.
         21    1    1    2  503  506 -0.39406946647E+02 -0.15403611236E+03 -0.31783148948E+04  0.31822893649E+04  0.00000000000E+00 0. -1.
         21    1    1    2  504  501 -0.48177008689E+02 -0.52430790325E+01 -0.62068122050E+02  0.78746211457E+02  0.00000000000E+00 0. -1.
         21    1    1    2  505  502  0.10743304342E+03  0.10018388939E+03  0.55211055990E+02  0.15692970151E+03  0.00000000000E+00 0.  1.
         21    1    1    2  506  504 -0.19849088086E+02  0.59095302008E+02 -0.83984770564E+02  0.10459293812E+03  0.00000000000E+00 0. -1.
<scales pt_clust_3="14000.00000" pt_clust_4="48.46147" pt_clust_5="158.35426" pt_clust_6="63.37658"></scales>
<clustering>
<clus scale="   48.461">  1  4  2 -1</clus>
<clus scale="   63.377">  1  6  2 -1</clus>
<clus scale="  158.354">  1  5  2 -1</clus>
<clus scale="   48.461">  1  3  2 -1</clus>
</clustering>
</event>
<event>
 6    0  0.3042851E+002  0.1379508E+03  0.7546771E-02  0.1216113E+00
         21   -1    0    0  506  501  0.00000000000E+00  0.00000000000E+00  0.61127258960E+03  0.61127258960E+03  0.00000000000E+00 0. -1.
         21   -1    0    0  505  502 -0.00000000000E+00 -0.00000000000E+00 -0.89285368845E+03  0.89285368845E+03  0.00000000000E+00 0.  1.
         21    1    1    2  503  502  0.22767312859E+02  0.19758112040E+02 -0.55105977734E+02  0.62812437528E+02  0.00000000000E+00 0. -1.
         21    1    1    2  504  503  0.11075668801E+03  0.17617322705E+02 -0.81925240064E+03  0.82689292532E+03  0.00000000000E+00 0.  1.
         21    1    1    2  505  501 -0.25976549158E+02  0.22082531501E+02  0.77079093764E+02  0.84282892684E+02  0.00000000000E+00 0. -1.
         21    1    1    2  506  504 -0.10754745171E+03 -0.59457966246E+02  0.51569818576E+03  0.53013802252E+03  0.00000000000E+00 0. -1.
<scales pt_clust_3="30.14521" pt_clust_4="137.95082" pt_clust_5="34.07486" pt_clust_6="14000.00000"></scales>
<clustering>
<clus scale="   30.145">  2  3  1 -1</clus>
<clus scale="   34.075">  1  5  2 -1</clus>
<clus scale="  137.951">  2  4  1 -1</clus>
<clus scale="   34.075">  1  3  2 -1</clus>
</clustering>
</event>
<event>
 6    0  0.3042851E+002  0.6480669E+02  0.7546771E-02  0.1378700E+00
         21   -1    0    0  502  501  0.00000000000E+00  0.00000000000E+00  0.11141465206E+04  0.11141465206E+04  0.00000000000E+00 0. -1.
         21   -1    0    0  505  502 -0.00000000000E+00 -0.00000000000E+00 -0.99370359320E+03  0.99370359320E+03  0.00000000000E+00 0. -1.
         21    1    1    2  503  504  0.52546728000E+02  0.70787110655E+02  0.57450431381E+03  0.58122902564E+03  0.00000000000E+00 0. -1.
         21    1    1    2  504  501 -0.43664789829E+02 -0.30801247815E+02  0.51404206164E+03  0.51681193085E+03  0.00000000000E+00 0. -1.
         21    1    1    2  505  506 -0.65075724494E+02  0.31295101137E+01 -0.92416559130E+03  0.92645921869E+03  0.00000000000E+00 0. -1.
         21    1    1    2  506  503  0.56193786323E+02 -0.43115372954E+02 -0.43937856766E+02  0.83349938593E+02  0.00000000000E+00 0.  1.
<scales pt_clust_3="42.35598" pt_clust_4="53.43529" pt_clust_5="64.80669" pt_clust_6="14000.00000"></scales>
<clustering>
<clus scale="   53.435">  1  4  2 -1</clus>
<clus scale="   42.356">  1  3  2 -1</clus>
<clus scale="   64.807">  2  5  1 -1</clus>
<clus scale="   53.435">  1  3  2 -1</clus>
</clustering>
</event>
<event>
 6    0  0.3042851E+002  0.1673775E+03  0.7546771E-02  0.1180611E+00
         21   -1    0    0  506  501  0.00000000000E+00  0.00000000000E+00  0.11627803830E+04  0.11627803830E+04  0.00000000000E+00 0. -1.
         21   -1    0    0  505  502 -0.00000000000E+00 -0.00000000000E+00 -0.39978776563E+02  0.39978776563E+02  0.00000000000E+00 0. -1.
         21    1    1    2  503  501  0.11957030749E+02  0.58478307874E+02  0.11121074900E+03  0.12621613910E+03  0.00000000000E+00 0. -1.
         21    1    1    2  504  503  0.88327214097E+02  0.59537868422E+02  0.19349066946E+03  0.22087347893E+03  0.00000000000E+00 0. -1.
         21    1    1    2  505  504  0.44413262146E+02 -0.48274787639E+02  0.98388413013E+02  0.11825088918E+03  0.00000000000E+00 0. -1.
         21    1    1    2  506  502 -0.14469750699E+03 -0.69741388657E+02  0.71971177501E+03  0.73741865240E+03  0.00000000000E+00 0. -1.
<scales pt_clust_3="45.18442" pt_clust_4="45.18442" pt_clust_5="65.59720" pt_clust_6="156.11443"></scales>
<clustering>
<clus scale="   45.184">  3  4 -1 -1</clus>
<clus scale="   65.597">  2  5  1 -1</clus>
<clus scale="  156.114">  1  6  2 -1</clus>
<clus scale="  156.114">  1  3  2 -1</clus>
</clustering>
</event>
<event>
 6    0  0.3042851E+002  0.1186014E+03  0.7546771E-02  0.1245422E+00
         21   -1    0    0  504  501  0.00000000000E+00  0.00000000000E+00  0.45018350917E+02  0.45018350917E+02  0.00000000000E+00 0.  1.
         21   -1    0    0  506  502 -0.00000000000E+00 -0.00000000000E+00 -0.75118771571E+03  0.75118771571E+03  0.00000000000E+00 0.  1.
         21    1    1    2  503  501 -0.10012720396E+03 -0.86648660233E+02 -0.19439962355E+03  0.23521194895E+03  0.00000000000E+00 0.  1.
         21    1    1    2  504  502  0.38537708246E+02  0.10883325595E+03 -0.13719410423E+03  0.17930994059E+03  0.00000000000E+00 0.  1.
         21    1    1    2  505  503  0.23750248591E+02 -0.21732237894E+02 -0.22982822751E+03  0.23207192556E+03  0.00000000000E+00 0.  1.
         21    1    1    2  506  505  0.37839247118E+02 -0.45235782682E+00 -0.14474740950E+03  0.14961225153E+03  0.00000000000E+00 0.  1.
<scales pt_clust_3="118.60136" pt_clust_4="14000.00000" pt_clust_5="30.45793" pt_clust_6="73.32055"></scales>
<clustering>
<clus scale="   30.458">  5  6 -1 -1</clus>
<clus scale="   73.321">  2  5  1 -1</clus>
<clus scale="  118.601">  2  3  1 -1</clus>
<clus scale="  118.601">  1  3  2 -1</clus>
</clustering>
</event>
<event>
 6    0  0.3042851E+002  0.2143170E+03  0.7546771E-02  0.1138192E+00
         21   -1    0    0  503  501  0.00000000000E+00  0.00000000000E+00  0.33824134904E+03  0.33824134904E+03  0.00000000000E+00 0. -1.
         21   -1    0    0  504  502 -0.00000000000E+00 -0.00000000000E+00 -0.92193516461E+03  0.92193516461E+03  0.00000000000E+00 0.  1.
         21    1    1    2  503  502 -0.68122259672E+02  0.15734755563E+03 -0.80667574688E+03  0.82469670554E+03  0.00000000000E+00 0.  1.
         21    1    1    2  504  505  0.81522837439E+01  0.40604610358E+02 -0.64113451378E+02  0.76326461730E+02  0.00000000000E+00 0. -1.
         21    1    1    2  505  506  0.20578772400E+02 -0.37546635199E+02  0.10452878966E+03  0.11295797252E+03  0.00000000000E+00 0. -1.
         21    1    1    2  506  501  0.39391203528E+02 -0.16040553079E+03  0.18256659302E+03  0.24619537386E+03  0.00000000000E+00 0. -1.
<scales pt_clust_3="205.29459" pt_clust_4="41.41490" pt_clust_5="31.32725" pt_clust_6="31.32725"></scales>
<clustering>
<clus scale="   31.327">  5  6 -1 -1</clus>
<clus scale="   41.415">  2  4  1 -1</clus>
<clus scale="  205.295">  2  3  1 -1</clus>
<clus scale="  214.317">  1  3  2 -1</clus>
</clustering>
</event>
<event>
 6    0  0.3042851E+002  0.1045807E+03  0.7546771E-02  0.1270948E+00
         21   -1    0    0  505  501  0.00000000000E+00  0.00000000000E+00  0.15244081019E+04  0.15244081019E+04  0.00000000000E+00 0.  1.
         21   -1    0    0  506  502 -0.00000000000E+00 -0.00000000000E+00 -0.74113777323E+03  0.74113777323E+03  0.00000000000E+00 0. -1.
         21    1    1    2  503  502 -0.16844796390E+02  0.58899523800E+02 -0.19709780250E+02  0.64353527540E+02  0.00000000000E+00 0.  1.
         21    1    1    2  504  503 -0.25357355995E+01  0.36336231763E+02  0.38315753248E+03  0.38488497813E+03  0.00000000000E+00 0.  1.
         21    1    1    2  505  504  0.39869777349E+02  0.51801073441E+02  0.11092007356E+04  0.11111252054E+04  0.00000000000E+00 0.  1.
         21    1    1    2  506  501 -0.20489245360E+02 -0.14703682900E+03 -0.68937815910E+03  0.70518216406E+03  0.00000000000E+00 0. -1.
<scales pt_clust_3="61.26093" pt_clust_4="31.23849" pt_clust_5="31.23849" pt_clust_6="95.84296"></scales>
<clustering>
<clus scale="   31.238">  4  5 -1 -1</clus>
<clus scale="   61.261">  2  3  1 -1</clus>
<clus scale="   95.843">  2  6  1 -1</clus>
<clus scale="  104.581">  1  3  2 -1</clus>
</clustering>
</event>
<event>
 6    0  0.3042851E+002  0.1953194E+03  0.7546771E-02  0.1153749E+00
         21   -1    0    0  504  501  0.00000000000E+00  0.00000000000E+00  0.18466469683E+03  0.18466469683E+03  0.00000000000E+00 0. -1.
         21   -1    0    0  505  502 -0.00000000000E+00 -0.00000000000E+00 -0.33561857713E+03  0.33561857713E+03  0.00000000000E+00 0.  1.
         21    1    1    2  503  506 -0.96294117029E+02  0.76169332869E-01  0.28302735213E+02  0.10036736320E+03  0.00000000000E+00 0. -1.
         21    1    1    2  504  502  0.14812330152E+03  0.75540233867E+02 -0.13775903798E+03  0.21592682078E+03  0.00000000000E+00 0.  1.
         21    1    1    2  505  503  0.47148701331E+02 -0.26746274060E+02 -0.71380906465E+02  0.89630335384E+02  0.00000000000E+00 0.  1.
         21    1    1    2  506  501 -0.98977885820E+02 -0.48870129140E+02  0.29883328944E+02  0.11435875459E+03  0.00000000000E+00 0. -1.
<scales pt_clust_3="43.90452" pt_clust_4="189.57844" pt_clust_5="54.20667" pt_clust_6="43.90452"></scales>
<clustering>
<clus scale="   43.905">  3  6 -1 -1</clus>
<clus scale="   54.207">  2  5  1 -1</clus>
<clus scale="  189.578">  2  4  1 -1</clus>
<clus scale="  195.319">  1  3  2 -1</clus>
</clustering>
</event>
<event>
 6    0  0.3042851E+002  0.1233601E+03  0.7546771E-02  0.1237655E+00
         21   -1    0    0  505  501  0.00000000000E+00  0.00000000000E+00  0.43510727782E+03  0.43510727782E+03  0.00000000000E+00 0. -1.
         21   -1    0    0  506  502 -0.00000000000E+00 -0.00000000000E+00 -0.50820985500E+03  0.50820985500E+03  0.00000000000E+00 0. -1.
         21    1    1    2  503  502  0.93223835012E+02 -0.83240239191E+02 -0.41007862803E+03  0.42870048052E+03  0.00000000000E+00 0. -1.
         21    1    1    2  504  501 -0.56730603395E+02  0.42858285910E+02  0.24666376088E+03  0.25670645681E+03  0.00000000000E+00 0. -1.
         21    1    1    2  505  503  0.75576794208E+02  0.20950016391E+02 -0.37402210928E+02  0.86888896827E+02  0.00000000000E+00 0. -1.
         21    1    1    2  506  504 -0.11207002583E+03  0.19431936891E+02  0.12771450088E+03  0.17102129866E+03  0.00000000000E+00 0. -1.
<scales pt_clust_3="14000.00000" pt_clust_4="71.09989" pt_clust_5="72.99476" pt_clust_6="123.36013"></scales>
<clustering>
<clus scale="   71.100">  1  4  2 -1</clus>
<clus scale="   72.995">  1  5  2 -1</clus>
<clus scale="  123.360">  1  6  2 -1</clus>
<clus scale="   71.100">  1  3  2 -1</clus>
</clustering>
</event>
<event>
 6    0  0.3042851E+002  0.1029481E+03  0.7546771E-02  0.1274216E+00
         21   -1    0    0  506  501  0.00000000000E+00  0.00000000000E+00  0.16781748670E+03  0.16781748670E+03  0.00000000000E+00 0.  1.
         21   -1    0    0  505  502 -0.00000000000E+00 -0.00000000000E+00 -0.88554931874E+03  0.88554931874E+03  0.00000000000E+00 0.  1.
         21    1    1    2  503  501 -0.33381606206E+02 -0.98056073340E+02  0.12184237706E+03  0.15992151200E+03  0.00000000000E+00 0.  1.
         21    1    1    2  504  503  0.73541750948E+02  0.71134598499E+02 -0.33287747732E+03  0.34824694564E+03  0.00000000000E+00 0.  1.
         21    1    1    2  505  504  0.19098899419E+02  0.41367989204E+02 -0.47363110261E+03  0.47581771704E+03  0.00000000000E+00 0.  1.
         21    1    1    2  506  502 -0.59259044161E+02 -0.14446514362E+02 -0.33065629168E+02  0.69380630758E+02  0.00000000000E+00 0.  1.
<scales pt_clust_3="102.94806" pt_clust_4="14000.00000" pt_clust_5="45.56400" pt_clust_6="57.63119"></scales>
<clustering>
<clus scale="   45.564">  2  5  1 -1</clus>
<clus scale="   57.631">  2  6  1 -1</clus>
<clus scale="  102.948">  1  3  2 -1</clus>
<clus scale="  102.948">  1  3  2 -1</clus>
</clustering>
</event>
<event>
 6    0  0.3042851E+002  0.1710592E+03  0.7546771E-02  0.1176748E+00
         21   -1    0    0  503  501  0.00000000000E+00  0.00000000000E+00  0.19324295159E+03  0.19324295159E+03  0.00000000000E+00 0. -1.
         21   -1    0    0  506  502 -0.00000000000E+00 -0.00000000000E+00 -0.10480928316E+04  0.10480928316E+04  0.00000000000E+00 0. -1.
         21    1    1    2  503  502 -0.17547107319E+03  0.28880387070E+02 -0.81721703250E+03  0.83634194711E+03  0.00000000000E+00 0. -1.
         21    1    1    2  504  501 -0.38736294497E+02  0.39945079960E+01  0.43604649501E+01  0.39185077007E+02  0.00000000000E+00 0. -1.
         21    1    1    2  505  504  0.62483430599E+02 -0.33246975432E+02  0.12284321125E+03  0.14177445125E+03  0.00000000000E+00 0. -1.
         21    1    1    2  506  505  0.15172393709E+03  0.37208036643E+00 -0.16483652368E+03  0.22403430779E+03  0.00000000000E+00 0. -1.
<scales pt_clust_3="171.05925" pt_clust_4="38.94171" pt_clust_5="44.41034" pt_clust_6="14000.00000"></scales>
<clustering>
<clus scale="   38.942">  1  4  2 -1</clus>
<clus scale="   44.410">  1  5  2 -1</clus>
<clus scale="  171.059">  2  3  1 -1</clus>
<clus scale="   38.942">  1  3  2 -1</clus>
</clustering>
</event>
<event>
 6    0  0.3042851E+002  0.4676369E+03  0.7546771E-02  0.1022589E+00
         21   -1    0    0  506  501  0.00000000000E+00  0.00000000000E+00  0.19494834743E+04  0.19494834743E+04  0.00000000000E+00 0.  1.
         21   -1    0    0  505  502 -0.00000000000E+00 -0.00000000000E+00 -0.73867926243E+03  0.73867926243E+03  0.00000000000E+00 0.  1.
         21    1    1    2  503  504  0.17119096803E+03 -0.24293513642E+03 -0.30388521669E+03  0.42505300019E+03  0.00000000000E+00 0.  1.
         21    1    1    2  504  502  0.12672458991E+03 -0.82149985057E+02 -0.30104620020E+03  0.33680343880E+03  0.00000000000E+00 0.  1.
         21    1    1    2  505  501 -0.33110495668E+03  0.41723030232E+03  0.13692054965E+04  0.14691614306E+04  0.00000000000E+00 0.  1.
         21    1    1    2  506  503  0.33189398740E+02 -0.92145180835E+02  0.44653013223E+03  0.45714486711E+03  0.00000000000E+00 0.  1.
<scales pt_clust_3="100.60309" pt_clust_4="100.60309" pt_clust_5="445.68498" pt_clust_6="97.94014"></scales>
<clustering>
<clus scale="   97.940">  1  6  2 -1</clus>
<clus scale="  100.603">  3  4 -1 -1</clus>
<clus scale="  445.685">  1  5  2 -1</clus>
<clus scale="   97.940">  1  3  2 -1</clus>
</clustering>
</event>
<event>
 6    0  0.3042851E+002  0.2469294E+03  0.7546771E-02  0.1115261E+00
         21   -1    0    0  504  501  0.00000000000E+00  0.00000000000E+00  0.56661324250E+03  0.56661324250E+03  0.00000000000E+00 0. -1.
         21   -1    0    0  503  502 -0.00000000000E+00 -0.00000000000E+00 -0.16816440037E+03  0.16816440037E+03  0.00000000000E+00 0. -1.
         21    1    1    2  503  506 -0.21535828910E+03 -0.30992617980E+02 -0.18899377663E+02  0.21839624889E+03  0.00000000000E+00 0. -1.
         21    1    1    2  504  502 -0.14746139458E+02  0.28301554125E+02  0.23772814436E+01  0.32001219694E+02  0.00000000000E+00 0.  1.
         21    1    1    2  505  501  0.14295843339E+03 -0.14268256953E+02  0.33651662675E+03  0.36590181321E+03  0.00000000000E+00 0. -1.
         21    1    1    2  506  505  0.87145995170E+02  0.16959320807E+02  0.78454311601E+02  0.11847836108E+03  0.00000000000E+00 0. -1.
<scales pt_clust_3="226.94963" pt_clust_4="31.91280" pt_clust_5="76.45930" pt_clust_6="76.45930"></scales>
<clustering>
<clus scale="   31.913">  2  4  1 -1</clus>
<clus scale="   76.459">  5  6 -1 -1</clus>
<clus scale="  226.950">  2  3  1 -1</clus>
<clus scale="  246.929">  1  3  2 -1</clus>
</clustering>
</event>
<event>
 6    0  0.3042851E+002  0.2484588E+03  0.7546771E-02  0.1114283E+00
         21   -1    0    0  505  501  0.00000000000E+00  0.00000000000E+00  0.34891766985E+03  0.34891766985E+03  0.00000000000E+00 0. -1.
         21   -1    0    0  506  502 -0.00000000000E+00 -0.00000000000E+00 -0.31168595259E+03  0.31168595259E+03  0.00000000000E+00 0. -1.
         21    1    1    2  503  502  0.50737428771E+02 -0.16579245942E+03 -0.19185377859E+03  0.25859098716E+03  0.00000000000E+00 0. -1.
         21    1    1    2  504  501 -0.26786768473E+02  0.15263044184E+03  0.19805348047E+03  0.25147318717E+03  0.00000000000E+00 0. -1.
         21    1    1    2  505  503  0.36025912478E+02 -0.44842127661E+02 -0.86141139105E+01  0.58162580252E+02  0.00000000000E+00 0. -1.
         21    1    1    2  506  504 -0.59976572777E+02  0.58004145243E+02  0.39646129287E+02  0.92376867856E+02  0.00000000000E+00 0.  1.
<scales pt_clust_3="245.24569" pt_clust_4="72.77703" pt_clust_5="52.31849" pt_clust_6="72.77703"></scales>
<clustering>
<clus scale="   52.318">  3  5 -1 -1</clus>
<clus scale="   72.777">  4  6 -1 -1</clus>
<clus scale="  245.246">  2  3  1 -1</clus>
<clus scale="  248.459">  1  3  2 -1</clus>
</clustering>
</event>
<event>
 6    0  0.3042851E+002  0.1146368E+03  0.7546771E-02  0.1252216E+00
         21   -1    0    0  505  501  0.00000000000E+00  0.00000000000E+00  0.27368409076E+03  0.27368409076E+03  0.00000000000E+00 0.  1.
         21   -1    0    0  506  502 -0.00000000000E+00 -0.00000000000E+00 -0.28752575903E+03  0.28752575903E+03  0.00000000000E+00 0.  1.
         21    1    1    2  503  504  0.40279283352E+02 -0.40024145362E+02  0.12625497701E+03  0.13843652733E+03  0.00000000000E+00 0.  1.
         21    1    1    2  504  502 -0.88416991465E+02  0.98375877321E+02 -0.75235465148E+02  0.15217014436E+03  0.00000000000E+00 0.  1.
         21    1    1    2  505  503  0.47503001123E+01  0.40967420674E+02  0.79810348134E+02  0.89836443479E+02  0.00000000000E+00 0.  1.
         21    1    1    2  506  501  0.43387408000E+02 -0.99319152633E+02 -0.14467152827E+03  0.18076673462E+03  0.00000000000E+00 0.  1.
<scales pt_clust_3="45.05236" pt_clust_4="14000.00000" pt_clust_5="41.24191" pt_clust_6="114.63684"></scales>
<clustering>
<clus scale="   41.242">  1  5  2 -1</clus>
<clus scale="   45.052">  1  3  2 -1</clus>
<clus scale="  114.637">  2  6  1 -1</clus>
<clus scale="   41.242">  1  3  2 -1</clus>
</clustering>
</event>
<event>
 6    0  0.3042851E+002  0.3280680E+03  0.7546771E-02  0.1071995E+00
         21   -1    0    0  506  501  0.00000000000E+00  0.00000000000E+00  0.74314262339E+03  0.74314262339E+03  0.00000000000E+00 0.  1.
         21   -1    0    0  504  502 -0.00000000000E+00 -0.00000000000E+00 -0.57172689199E+03  0.57172689199E+03  0.00000000000E+00 0. -1.
         21    1    1    2  503  502  0.27979477626E+03  0.10915811008E+03 -0.44895259051E+03  0.54014723765E+03  0.00000000000E+00 0. -1.
         21    1    1    2  504  501  0.23521454853E+02 -0.22682680220E+02 -0.30900058711E+02  0.44973063591E+02  0.00000000000E+00 0.  1.
         21    1    1    2  505  503 -0.27323744564E+03 -0.71393486027E+02  0.49496423379E+03  0.56986430339E+03  0.00000000000E+00 0.  1.
         21    1    1    2  506  505 -0.30078785470E+02 -0.15081943832E+02  0.15630414684E+03  0.15988491074E+03  0.00000000000E+00 0.  1.
<scales pt_clust_3="314.20368" pt_clust_4="32.67664" pt_clust_5="32.57236" pt_clust_6="32.57236"></scales>
<clustering>
<clus scale="   32.572">  5  6 -1 -1</clus>
<clus scale="   32.677">  2  4  1 -1</clus>
<clus scale="  314.204">  2  3  1 -1</clus>
<clus scale="  328.068">  1  3  2 -1</clus>
</clustering>
</event>
<event>
 6    0  0.3042851E+002  0.1099014E+03  0.7546771E-02  0.1260753E+00
         21   -1    0    0  502  501  0.00000000000E+00  0.00000000000E+00  0.30720496786E+03  0.30720496786E+03  0.00000000000E+00 0. -1.
         21   -1    0    0  504  502 -0.00000000000E+00 -0.00000000000E+00 -0.14677629958E+03  0.14677629958E+03  0.00000000000E+00 0. -1.
         21    1    1    2  503  506 -0.10266490163E+03 -0.26638471274E+02  0.90620267278E+02  0.13950527954E+03  0.00000000000E+00 0. -1.
         21    1    1    2  504  505  0.18135581848E+02  0.43637640273E+02 -0.66243677287E+02  0.81371787236E+02  0.00000000000E+00 0. -1.
         21    1    1    2  505  503  0.36379141639E+02  0.44530807935E+02 -0.18099788701E+02  0.60282975646E+02  0.00000000000E+00 0. -1.
         21    1    1    2  506  501  0.48150178143E+02 -0.61529976935E+02  0.15415186699E+03  0.17282122501E+03  0.00000000000E+00 0. -1.
<scales pt_clust_3="99.35592" pt_clust_4="42.58561" pt_clust_5="42.58561" pt_clust_6="78.13052"></scales>
<clustering>
<clus scale="   42.586">  4  5 -1 -1</clus>
<clus scale="   78.131">  1  6  2 -1</clus>
<clus scale="   99.356">  1  3  2 -1</clus>
<clus scale="   78.131">  1  3  2 -1</clus>
</clustering>
</event>
<event>
 6    0  0.3042851E+002  0.1081474E+03  0.7546771E-02  0.1264040E+00
         21   -1    0    0  505  501  0.00000000000E+00  0.00000000000E+00  0.55412263748E+03  0.55412263748E+03  0.00000000000E+00 0. -1.
         21   -1    0    0  503  502 -0.00000000000E+00 -0.00000000000E+00 -0.57213389446E+02  0.57213389446E+02  0.00000000000E+00 0. -1.
         21    1    1    2  503  504 -0.36841496919E+02  0.20865265489E+02  0.11588243633E+01  0.42355614422E+02  0.00000000000E+00 0. -1.
         21    1    1    2  504  506 -0.61568684213E+02  0.46509101618E+02  0.65078693137E+02  0.10094075346E+03  0.00000000000E+00 0. -1.
         21    1    1    2  505  502  0.84395212740E+02 -0.32039388122E+01  0.99930100529E+02  0.13083899323E+03  0.00000000000E+00 0. -1.
         21    1    1    2  506  501  0.14014968391E+02 -0.64170428295E+02  0.33074163001E+03  0.33720066582E+03  0.00000000000E+00 0. -1.
<scales pt_clust_3="32.48006" pt_clust_4="32.48006" pt_clust_5="98.85991" pt_clust_6="65.68305"></scales>
<clustering>
<clus scale="   32.480">  3  4 -1 -1</clus>
<clus scale="   65.683">  1  6  2 -1</clus>
<clus scale="   98.860">  1  5  2 -1</clus>
<clus scale="   65.683">  1  3  2 -1</clus>
</clustering>
</event>
<event>
 6    0  0.3870321E+002  0.8447650E+02  0.7546771E-02  0.1316807E+00
         21   -1    0    0  504  501  0.00000000000E+00  0.00000000000E+00  0.33125603786E+03  0.33125603786E+03  0.00000000000E+00 0. -1.
         21   -1    0    0  506  502 -0.00000000000E+00 -0.00000000000E+00 -0.51398401824E+03  0.51398401824E+03  0.00000000000E+00 0. -1.
         21    1    1    2  503  502  0.11878748941E+03 -0.34661641957E+02 -0.46477292113E+03  0.48096337207E+03  0.00000000000E+00 0. -1.
         21    1    1    2  504  503 -0.43289407542E+02  0.41212892563E+02  0.25005337908E+03  0.25709758402E+03  0.00000000000E+00 0. -1.
         21    1    1    2  505  501 -0.41757404579E+02 -0.28447431805E+02  0.42029950468E+02  0.65722552825E+02  0.00000000000E+00 0.  1.
         21    1    1    2  506  505 -0.33740677285E+02  0.21896181199E+02 -0.10038388810E+02  0.41456547187E+02  0.00000000000E+00 0.  1.
<scales pt_clust_3="84.47650" pt_clust_4="14000.00000" pt_clust_5="50.91202" pt_clust_6="40.22283"></scales>
<clustering>
<clus scale="   40.223">  2  6  1 -1</clus>
<clus scale="   50.912">  1  5  2 -1</clus>
<clus scale="   84.476">  2  3  1 -1</clus>
<clus scale="   50.912">  1  3  2 -1</clus>
</clustering>
</event>
<event>
 6    0  0.3042851E+002  0.1525264E+03  0.7546771E-02  0.1197402E+00
         21   -1    0    0  503  501  0.00000000000E+00  0.00000000000E+00  0.15027107194E+03  0.15027107194E+03  0.00000000000E+00 0. -1.
         21   -1    0    0  506  502 -0.00000000000E+00 -0.00000000000E+00 -0.38485023035E+03  0.38485023035E+03  0.00000000000E+00 0. -1.
         21    1    1    2  503  505  0.96462391931E+02  0.11088967603E+01  0.78817950943E+02  0.12457323990E+03  0.00000000000E+00 0. -1.
         21    1    1    2  504  502 -0.10786276938E+03 -0.24900291377E+02 -0.28767087320E+03  0.30823519075E+03  0.00000000000E+00 0. -1.
         21    1    1    2  505  504  0.49806199008E+02  0.18574915234E+02  0.42328998811E+01  0.53325438366E+02  0.00000000000E+00 0.  1.
         21    1    1    2  506  501 -0.38405821561E+02  0.52164793825E+01 -0.29959136037E+02  0.48987433276E+02  0.00000000000E+00 0. -1.
<scales pt_clust_3="40.04708" pt_clust_4="142.46323" pt_clust_5="40.04708" pt_clust_6="38.75847"></scales>
<clustering>
<clus scale="   38.758">  2  6  1 -1</clus>
<clus scale="   40.047">  3  5 -1 -1</clus>
<clus scale="  142.463">  2  4  1 -1</clus>
<clus scale="  152.526">  1  3  2 -1</clus>
</clustering>
</event>
<event>
 6    0  0.3042851E+002  0.7680757E+02  0.7546771E-02  0.1338363E+00
         21   -1    0    0  506  501  0.00000000000E+00  0.00000000000E+00  0.67907930770E+02  0.67907930770E+02  0.00000000000E+00 0. -1.
         21   -1    0    0  505  502 -0.00000000000E+00 -0.00000000000E+00 -0.33220188367E+04  0.33220188367E+04  0.00000000000E+00 0. -1.
         21    1    1    2  503  502 -0.22627466320E+02  0.78683084689E+02 -0.23944421255E+04  0.23958414227E+04  0.00000000000E+00 0. -1.
         21    1    1    2  504  501 -0.53956968426E+02 -0.27274512344E+02 -0.97971706926E+02  0.11512475330E+03  0.00000000000E+00 0.  1.
         21    1    1    2  505  504 -0.30025654652E+02 -0.22915559405E+02 -0.76752593258E+03  0.76845476118E+03  0.00000000000E+00 0.  1.
         21    1    1    2  506  503  0.10661008940E+03 -0.28493012940E+02  0.58288590559E+01  0.11050583037E+03  0.00000000000E+00 0. -1.
<scales pt_clust_3="14000.00000" pt_clust_4="62.00853" pt_clust_5="37.77119" pt_clust_6="76.80757"></scales>
<clustering>
<clus scale="   37.771">  2  5  1 -1</clus>
<clus scale="   62.009">  1  4  2 -1</clus>
<clus scale="   76.808">  1  6  2 -1</clus>
<clus scale="   62.009">  1  3  2 -1</clus>
</clustering>
</event>
<event>
 6    0  0.3042851E+002  0.1609804E+03  0.7546771E-02  0.1187594E+00
         21   -1    0    0  506  501  0.00000000000E+00  0.00000000000E+00  0.48949067131E+03  0.48949067131E+03  0.00000000000E+00 0. -1.
         21   -1    0    0  503  502 -0.00000000000E+00 -0.00000000000E+00 -0.35573054608E+03  0.35573054608E+03  0.00000000000E+00 0. -1.
         21    1    1    2  503  501 -0.43035204993E+02  0.49709120374E+02  0.31448818300E+03  0.32128778808E+03  0.00000000000E+00 0. -1.
         21    1    1    2  504  505  0.87646363734E+02 -0.15186633667E+02 -0.15730131384E+03  0.18071032692E+03  0.00000000000E+00 0. -1.
         21    1    1    2  505  502  0.59177397108E+02 -0.52145481661E+02 -0.15548020770E+03  0.17434222257E+03  0.00000000000E+00 0. -1.
         21    1    1    2  506  504 -0.10378855585E+03  0.17622994954E+02  0.13205346376E+03  0.16888087982E+03  0.00000000000E+00 0. -1.
<scales pt_clust_3="65.74972" pt_clust_4="43.55262" pt_clust_5="43.55262" pt_clust_6="154.19297"></scales>
<clustering>
<clus scale="   43.553">  4  5 -1 -1</clus>
<clus scale="   65.750">  1  3  2 -1</clus>
<clus scale="  154.193">  1  6  2 -1</clus>
<clus scale="   65.750">  1  3  2 -1</clus>
</clustering>
</event>
<event>
 6    0  0.3042851E+002  0.1410336E+03  0.7546771E-02  0.1211945E+00
         21   -1    0    0  506  501  0.00000000000E+00  0.00000000000E+00  0.30613089512E+03  0.30613089512E+03  0.00000000000E+00 0. -1.
         21   -1    0    0  501  502 -0.00000000000E+00 -0.00000000000E+00 -0.11985194949E+03  0.11985194949E+03  0.00000000000E+00 0. -1.
         21    1    1    2  503  504  0.25800319334E+02 -0.88175273898E+02  0.14664174307E+03  0.17304431864E+03  0.00000000000E+00 0. -1.
         21    1    1    2  504  505 -0.53408717368E+01  0.90503598697E+02  0.10855107559E+02  0.91308595697E+02  0.00000000000E+00 0. -1.
         21    1    1    2  505  502  0.28897137163E+02  0.47591553187E+02 -0.35839191607E+02  0.66215165378E+02  0.00000000000E+00 0. -1.
         21    1    1    2  506  503 -0.49356584760E+02 -0.49919877986E+02  0.64621286613E+02  0.95414764899E+02  0.00000000000E+00 0. -1.
<scales pt_clust_3="123.79871" pt_clust_4="52.94441" pt_clust_5="52.94441" pt_clust_6="70.20019"></scales>
<clustering>
<clus scale="   52.944">  4  5 -1 -1</clus>
<clus scale="   70.200">  1  6  2 -1</clus>
<clus scale="  123.799">  1  3  2 -1</clus>
<clus scale="   70.200">  1  3  2 -1</clus>
</clustering>
</event>
<event>
 6    0  0.3042851E+002  0.9930050E+02  0.7546771E-02  0.1281774E+00
         21   -1    0    0  505  501  0.00000000000E+00  0.00000000000E+00  0.10782478312E+04  0.10782478312E+04  0.00000000000E+00 0. -1.
         21   -1    0    0  503  502 -0.00000000000E+00 -0.00000000000E+00 -0.56005420190E+02  0.56005420190E+02  0.00000000000E+00 0.  1.
         21    1    1    2  503  504 -0.34903536994E+02  0.35678624342E+02  0.31449615335E+02  0.58994062704E+02  0.00000000000E+00 0.  1.
         21    1    1    2  504  506  0.69382146460E+02  0.30790504151E+02  0.18602343325E+03  0.20091454679E+03  0.00000000000E+00 0. -1.
         21    1    1    2  505  502 -0.75639098357E+02 -0.83996661810E+02  0.59507729854E+02  0.12774146667E+03  0.00000000000E+00 0.  1.
         21    1    1    2  506  501  0.41160488891E+02  0.17527533317E+02  0.74526163254E+03  0.74660317519E+03  0.00000000000E+00 0. -1.
<scales pt_clust_3="48.03625" pt_clust_4="14000.00000" pt_clust_5="99.30050" pt_clust_6="44.73701"></scales>
<clustering>
<clus scale="   44.737">  1  6  2 -1</clus>
<clus scale="   48.036">  2  3  1 -1</clus>
<clus scale="   99.301">  2  5  1 -1</clus>
<clus scale="   44.737">  1  3  2 -1</clus>
</clustering>
</event>
<event>
 6    0  0.3042851E+002  0.1556352E+03  0.7546771E-02  0.1193715E+00
         21   -1    0    0  502  501  0.00000000000E+00  0.00000000000E+00  0.49958145667E+02  0.49958145667E+02  0.00000000000E+00 0.  1.
         21   -1    0    0  505  502 -0.00000000000E+00 -0.00000000000E+00 -0.48542929372E+03  0.48542929372E+03  0.00000000000E+00 0.  1.
         21    1    1    2  503  506  0.29160515872E+02  0.66391047669E+02 -0.10845989671E+03  0.13046706899E+03  0.00000000000E+00 0. -1.
         21    1    1    2  504  501 -0.55253076705E+01 -0.73904830561E+02 -0.64540074390E+02  0.98274484010E+02  0.00000000000E+00 0.  1.
         21    1    1    2  505  503 -0.10976097698E+02  0.81907267217E+02 -0.14876028513E+03  0.17017313999E+03  0.00000000000E+00 0.  1.
         21    1    1    2  506  504 -0.12659110504E+02 -0.74393484325E+02 -0.11371089182E+03  0.13647274639E+03  0.00000000000E+00 0.  1.
<scales pt_clust_3="40.82299" pt_clust_4="31.49132" pt_clust_5="40.82299" pt_clust_6="152.75096"></scales>
<clustering>
<clus scale="   31.491">  4  6 -1 -1</clus>
<clus scale="   40.823">  3  5 -1 -1</clus>
<clus scale="  152.751">  1  4  2 -1</clus>
<clus scale="  152.751">  1  3  2 -1</clus>
</clustering>
</event>
<event>
 6    0  0.3042851E+002  0.1204875E+03  0.7546771E-02  0.1242295E+00
         21   -1    0    0  505  501  0.00000000000E+00  0.00000000000E+00  0.52446694490E+03  0.52446694490E+03  0.00000000000E+00 0. -1.
         21   -1    0    0  503  502 -0.00000000000E+00 -0.00000000000E+00 -0.40928679034E+02  0.40928679034E+02  0.00000000000E+00 0. -1.
         21    1    1    2  503  506  0.36666022486E+02 -0.87841758279E+02  0.17027374832E+03  0.19507362987E+03  0.00000000000E+00 0. -1.
         21    1    1    2  504  501 -0.68419668375E+02  0.66915137833E+02  0.18664062267E+03  0.20974653447E+03  0.00000000000E+00 0. -1.
         21    1    1    2  505  502  0.57091846125E+02  0.47001368992E+00  0.11017983450E+03  0.12409389887E+03  0.00000000000E+00 0. -1.
         21    1    1    2  506  504 -0.25338200236E+02  0.20456606756E+02  0.16444060373E+02  0.36481560722E+02  0.00000000000E+00 0. -1.
<scales pt_clust_3="107.50215" pt_clust_4="31.73958" pt_clust_5="57.09378" pt_clust_6="31.73958"></scales>
<clustering>
<clus scale="   31.740">  4  6 -1 -1</clus>
<clus scale="   57.094">  1  5  2 -1</clus>
<clus scale="  107.502">  2  3  1 -1</clus>
<clus scale="   57.094">  1  3  2 -1</clus>
</clustering>
</event>
<event>
 6    0  0.3042851E+002  0.1846965E+03  0.7546771E-02  0.1163334E+00
         21   -1    0    0  505  501  0.00000000000E+00  0.00000000000E+00  0.44092049577E+03  0.44092049577E+03  0.00000000000E+00 0.  1.
         21   -1    0    0  506  502 -0.00000000000E+00 -0.00000000000E+00 -0.13494661942E+03  0.13494661942E+03  0.00000000000E+00 0.  1.
         21    1    1    2  503  501 -0.12032476077E+03  0.14166953748E+03  0.17348913896E+03  0.25425732485E+03  0.00000000000E+00 0.  1.
         21    1    1    2  504  502 -0.16162409634E+02 -0.47569017260E+02  0.18245738917E+01  0.50272894866E+02  0.00000000000E+00 0.  1.
         21    1    1    2  505  504  0.12596267597E+03 -0.13343955773E+03  0.13845511543E+03  0.22987503190E+03  0.00000000000E+00 0.  1.
         21    1    1    2  506  503  0.10524494428E+02  0.39339037506E+02 -0.77949519401E+01  0.41461863569E+02  0.00000000000E+00 0. -1.
<scales pt_clust_3="14000.00000" pt_clust_4="41.32150" pt_clust_5="184.69653" pt_clust_6="40.72253"></scales>
<clustering>
<clus scale="   40.723">  2  6  1 -1</clus>
<clus scale="   41.322">  2  4  1 -1</clus>
<clus scale="  184.697">  2  5  1 -1</clus>
<clus scale="  184.697">  1  3  2 -1</clus>
</clustering>
</event>
<event>
 6    0  0.3042851E+002  0.1315221E+03  0.7546771E-02  0.1225214E+00
         21   -1    0    0  503  501  0.00000000000E+00  0.00000000000E+00  0.51674065728E+03  0.51674065728E+03  0.00000000000E+00 0.  1.
         21   -1    0    0  505  502 -0.00000000000E+00 -0.00000000000E+00 -0.71684045797E+02  0.71684045797E+02  0.00000000000E+00 0. -1.
         21    1    1    2  503  506 -0.88787056328E+02  0.14980356139E+02  0.16612963524E+03  0.18896192248E+03  0.00000000000E+00 0.  1.
         21    1    1    2  504  501  0.35835368919E+02  0.61161500367E+01  0.49962493528E+02  0.61788605069E+02  0.00000000000E+00 0. -1.
         21    1    1    2  505  504  0.10057778094E+03 -0.54465899512E+02  0.14295950789E+02  0.11526837570E+03  0.00000000000E+00 0. -1.
         21    1    1    2  506  502 -0.47626093532E+02  0.33369393337E+02  0.21466853193E+03  0.22240579983E+03  0.00000000000E+00 0.  1.
<scales pt_clust_3="44.91270" pt_clust_4="36.35355" pt_clust_5="118.44052" pt_clust_6="44.91270"></scales>
<clustering>
<clus scale="   36.354">  1  4  2 -1</clus>
<clus scale="   44.913">  3  6 -1 -1</clus>
<clus scale="  118.441">  2  5  1 -1</clus>
<clus scale="   36.354">  1  3  2 -1</clus>
</clustering>
</event>
<event>
 6    0  0.3042851E+002  0.1434223E+03  0.7546771E-02  0.1208797E+00
         21   -1    0    0  505  501  0.00000000000E+00  0.00000000000E+00  0.33147931477E+02  0.33147931477E+02  0.00000000000E+00 0. -1.
         21   -1    0    0  501  502 -0.00000000000E+00 -0.00000000000E+00 -0.11564073467E+04  0.11564073467E+04  0.00000000000E+00 0. -1.
         21    1    1    2  503  502 -0.84282290079E+02  0.60546167046E+02 -0.76697351252E+03  0.77396234513E+03  0.00000000000E+00 0. -1.
         21    1    1    2  504  503 -0.40197640897E+02 -0.10818619345E+01 -0.15935445293E+03  0.16434981725E+03  0.00000000000E+00 0. -1.
         21    1    1    2  505  506  0.40607217661E+02  0.14734473848E+02 -0.66943540024E+02  0.79671126494E+02  0.00000000000E+00 0. -1.
         21    1    1    2  506  504  0.83872713314E+02 -0.74198778960E+02 -0.12998790976E+03  0.17157198933E+03  0.00000000000E+00 0. -1.
<scales pt_clust_3="35.84021" pt_clust_4="35.84021" pt_clust_5="43.19781" pt_clust_6="131.35825"></scales>
<clustering>
<clus scale="   35.840">  3  4 -1 -1</clus>
<clus scale="   43.198">  1  5  2 -1</clus>
<clus scale="  131.358">  1  6  2 -1</clus>
<clus scale="   43.198">  1  3  2 -1</clus>
</clustering>
</event>
<event>
 6    0  0.3042851E+002  0.2315966E+03  0.7546771E-02  0.1125521E+00
         21   -1    0    0  505  501  0.00000000000E+00  0.00000000000E+00  0.89853354444E+03  0.89853354444E+03  0.00000000000E+00 0.  1.
         21   -1    0    0  504  502 -0.00000000000E+00 -0.00000000000E+00 -0.20237667494E+04  0.20237667494E+04  0.00000000000E+00 0.  1.
         21    1    1    2  503  506  0.40121976670E+02 -0.95242078646E+02 -0.11988464547E+04  0.12032928358E+04  0.00000000000E+00 0.  1.
         21    1    1    2  504  501  0.12068019688E+02 -0.13976121572E+03  0.52142843081E+03  0.53996892779E+03  0.00000000000E+00 0.  1.
         21    1    1    2  505  503 -0.99937395899E+02  0.34019645767E+03  0.27395843743E+03  0.44807849575E+03  0.00000000000E+00 0.  1.
         21    1    1    2  506  502  0.47747399541E+02 -0.10519316330E+03 -0.72177361850E+03  0.73096003456E+03  0.00000000000E+00 0.  1.
<scales pt_clust_3="64.54898" pt_clust_4="140.28127" pt_clust_5="221.31335" pt_clust_6="64.54898"></scales>
<clustering>
<clus scale="   64.549">  3  6 -1 -1</clus>
<clus scale="  140.281">  1  4  2 -1</clus>
<clus scale="  221.313">  1  5  2 -1</clus>
<clus scale="  140.281">  1  3  2 -1</clus>
</clustering>
</event>
<event>
 6    0  0.3042851E+002  0.2771636E+03  0.7546771E-02  0.1097248E+00
         21   -1    0    0  505  501  0.00000000000E+00  0.00000000000E+00  0.15666424674E+04  0.15666424674E+04  0.00000000000E+00 0. -1.
         21   -1    0    0  504  502 -0.00000000000E+00 -0.00000000000E+00 -0.10220772234E+03  0.10220772234E+03  0.00000000000E+00 0. -1.
         21    1    1    2  503  501  0.26133445444E+02 -0.27333502941E+02  0.36782031665E+03  0.36975919555E+03  0.00000000000E+00 0. -1.
         21    1    1    2  504  506 -0.12716282835E+03  0.89086849458E+02  0.93772995114E+02  0.18138419521E+03  0.00000000000E+00 0. -1.
         21    1    1    2  505  502  0.22468666265E+03 -0.38330819673E+02  0.95698837479E+03  0.98375814995E+03  0.00000000000E+00 0. -1.
         21    1    1    2  506  503 -0.12365727975E+03 -0.23422526845E+02  0.45853058468E+02  0.13394864900E+03  0.00000000000E+00 0. -1.
<scales pt_clust_3="37.81636" pt_clust_4="102.32592" pt_clust_5="253.18534" pt_clust_6="102.32592"></scales>
<clustering>
<clus scale="   37.816">  1  3  2 -1</clus>
<clus scale="  102.326">  4  6 -1 -1</clus>
<clus scale="  253.185">  1  5  2 -1</clus>
<clus scale="   37.816">  1  3  2 -1</clus>
</clustering>
</event>
<event>
 6    0  0.3042851E+002  0.1964768E+03  0.7546771E-02  0.1152746E+00
         21   -1    0    0  502  501  0.00000000000E+00  0.00000000000E+00  0.16598593650E+04  0.16598593650E+04  0.00000000000E+00 0. -1.
         21   -1    0    0  504  502 -0.00000000000E+00 -0.00000000000E+00 -0.12179671122E+03  0.12179671122E+03  0.00000000000E+00 0. -1.
         21    1    1    2  503  506  0.14301442055E+03  0.85206020958E+02  0.14454262507E+04  0.14549811809E+04  0.00000000000E+00 0. -1.
         21    1    1    2  504  505 -0.41402475996E+02  0.46186931716E+01 -0.21085661286E+02  0.46691567301E+02  0.00000000000E+00 0. -1.
         21    1    1    2  505  503 -0.13116109715E+03 -0.78760717328E+02 -0.90133586318E+01  0.15325705411E+03  0.00000000000E+00 0. -1.
         21    1    1    2  506  501  0.29549152595E+02 -0.11063996801E+02  0.12273542298E+03  0.12672627391E+03  0.00000000000E+00 0.  1.
<scales pt_clust_3="186.56060" pt_clust_4="32.15795" pt_clust_5="32.15795" pt_clust_6="31.55257"></scales>
<clustering>
<clus scale="   31.553">  1  6  2 -1</clus>
<clus scale="   32.158">  4  5 -1 -1</clus>
<clus scale="  186.561">  1  3  2 -1</clus>
<clus scale="   31.553">  1  3  2 -1</clus>
</clustering>
</event>
<event>
 6    0  0.3042851E+002  0.1402904E+03  0.7546771E-02  0.1212939E+00
         21   -1    0    0  503  501  0.00000000000E+00  0.00000000000E+00  0.24921287451E+03  0.24921287451E+03  0.00000000000E+00 0.  1.
         21   -1    0    0  505  502 -0.00000000000E+00 -0.00000000000E+00 -0.77828381330E+03  0.77828381330E+03  0.00000000000E+00 0. -1.
         21    1    1    2  503  506  0.30969973359E+02  0.57518962997E+02  0.12322126311E+03  0.13946702132E+03  0.00000000000E+00 0.  1.
         21    1    1    2  504  502  0.29738782846E+02 -0.71060660786E+01 -0.29198227910E+03  0.29357885260E+03  0.00000000000E+00 0. -1.
         21    1    1    2  505  501 -0.31241364961E+02 -0.11785543574E+03 -0.45697224903E+03  0.47295831000E+03  0.00000000000E+00 0. -1.
         21    1    1    2  506  504 -0.29467391243E+02  0.67442538825E+02  0.96662326227E+02  0.12149250389E+03  0.00000000000E+00 0.  1.
<scales pt_clust_3="60.82655" pt_clust_4="30.57599" pt_clust_5="124.69146" pt_clust_6="60.82655"></scales>
<clustering>
<clus scale="   30.576">  2  4  1 -1</clus>
<clus scale="   60.827">  3  6 -1 -1</clus>
<clus scale="  124.691">  2  5  1 -1</clus>
<clus scale="  140.290">  1  3  2 -1</clus>
</clustering>
</event>
<event>
 6    0  0.3042851E+002  0.1543624E+03  0.7546771E-02  0.1195213E+00
         21   -1    0    0  505  501  0.00000000000E+00  0.00000000000E+00  0.11014054131E+04  0.11014054131E+04  0.00000000000E+00 0.  1.
         21   -1    0    0  506  502 -0.00000000000E+00 -0.00000000000E+00 -0.12419964345E+03  0.12419964345E+03  0.00000000000E+00 0.  1.
         21    1    1    2  503  504 -0.56498034785E+02 -0.13429348540E+03 -0.49347744383E+02  0.15382447150E+03  0.00000000000E+00 0.  1.
         21    1    1    2  504  502  0.20795649449E+02 -0.24652011159E+02  0.53871682045E+01  0.32698658557E+02  0.00000000000E+00 0.  1.
         21    1    1    2  505  503  0.34350761694E+02  0.69030846477E+02  0.22482571644E+03  0.23768011142E+03  0.00000000000E+00 0.  1.
         21    1    1    2  506  501  0.13516236431E+01  0.89914650085E+02  0.79634062935E+03  0.80140181504E+03  0.00000000000E+00 0.  1.
<scales pt_clust_3="14000.00000" pt_clust_4="32.25183" pt_clust_5="76.38017" pt_clust_6="154.36235"></scales>
<clustering>
<clus scale="   32.252">  2  4  1 -1</clus>
<clus scale="   76.380">  1  5  2 -1</clus>
<clus scale="  154.362">  1  6  2 -1</clus>
<clus scale="   76.380">  1  3  2 -1</clus>
</clustering>
</event>
<event>
 6    0  0.3042851E+002  0.1642110E+03  0.7546771E-02  0.1184023E+00
         21   -1    0    0  505  501  0.00000000000E+00  0.00000000000E+00  0.80502716066E+02  0.80502716066E+02  0.00000000000E+00 0. -1.
         21   -1    0    0  504  502 -0.00000000000E+00 -0.00000000000E+00 -0.41251044184E+03  0.41251044184E+03  0.00000000000E+00 0. -1.
         21    1    1    2  503  501 -0.65761119892E+02  0.73724073610E+02 -0.91894699730E+02  0.13492368123E+03  0.00000000000E+00 0. -1.
         21    1    1    2  504  503  0.13648240788E+02  0.63674053415E+02 -0.71715737344E+02  0.96870049746E+02  0.00000000000E+00 0. -1.
         21    1    1    2  505  506  0.31000600428E+02  0.96676916335E+01  0.50222288081E+01  0.32859158094E+02  0.00000000000E+00 0. -1.
         21    1    1    2  506  502  0.21112278676E+02 -0.14706581866E+03 -0.17341951750E+03  0.22836026883E+03  0.00000000000E+00 0. -1.
<scales pt_clust_3="62.36756" pt_clust_4="62.36756" pt_clust_5="32.47309" pt_clust_6="146.96694"></scales>
<clustering>
<clus scale="   32.473">  1  5  2 -1</clus>
<clus scale="   62.368">  3  4 -1 -1</clus>
<clus scale="  146.967">  2  6  1 -1</clus>
<clus scale="   32.473">  1  3  2 -1</clus>
</clustering>
</event>
<event>
 6    0  0.3042851E+002  0.8492268E+02  0.7546771E-02  0.1315635E+00
         21   -1    0    0  505  501  0.00000000000E+00  0.00000000000E+00  0.69634405596E+02  0.69634405596E+02  0.00000000000E+00 0. -1.
         21   -1    0    0  506  502 -0.00000000000E+00 -0.00000000000E+00 -0.86004385416E+03  0.86004385416E+03  0.00000000000E+00 0.  1.
         21    1    1    2  503  504  0.50520123886E+02 -0.68913967507E+01 -0.68120393476E+01  0.51441016190E+02  0.00000000000E+00 0.  1.
         21    1    1    2  504  501  0.29183608125E+02  0.26691082434E+02  0.21466374000E+02  0.44998911958E+02  0.00000000000E+00 0. -1.
         21    1    1    2  505  502 -0.23535967310E+02 -0.89586818580E+02 -0.62808849745E+03  0.63488180038E+03  0.00000000000E+00 0.  1.
         21    1    1    2  506  503 -0.56167764701E+02  0.69787132897E+02 -0.17697528576E+03  0.19835653123E+03  0.00000000000E+00 0.  1.
<scales pt_clust_3="69.06225" pt_clust_4="39.54866" pt_clust_5="84.92268" pt_clust_6="14000.00000"></scales>
<clustering>
<clus scale="   39.549">  1  4  2 -1</clus>
<clus scale="   69.062">  1  3  2 -1</clus>
<clus scale="   84.923">  2  5  1 -1</clus>
<clus scale="   39.549">  1  3  2 -1</clus>
</clustering>
</event>
<event>
 6    0  0.3042851E+002  0.2682982E+03  0.7546771E-02  0.1102258E+00
         21   -1    0    0  505  501  0.00000000000E+00  0.00000000000E+00  0.49259873693E+03  0.49259873693E+03  0.00000000000E+00 0.  1.
         21   -1    0    0  504  502 -0.00000000000E+00 -0.00000000000E+00 -0.14251133437E+03  0.14251133437E+03  0.00000000000E+00 0.  1.
         21    1    1    2  503  502 -0.21247195423E+02  0.99316992408E+02  0.33093165098E+02  0.10681978221E+03  0.00000000000E+00 0.  1.
         21    1    1    2  504  506  0.32567551769E+02 -0.10835002954E+03  0.38414422489E+02  0.11948239278E+03  0.00000000000E+00 0. -1.
         21    1    1    2  505  503 -0.48748101186E+02  0.14650032308E+03  0.17021130497E+03  0.22980559256E+03  0.00000000000E+00 0.  1.
         21    1    1    2  506  501  0.37427744841E+02 -0.13746728595E+03  0.10836851001E+03  0.17900230376E+03  0.00000000000E+00 0.  1.
<scales pt_clust_3="66.18142" pt_clust_4="42.00994" pt_clust_5="66.18142" pt_clust_6="259.89976"></scales>
<clustering>
<clus scale="   42.010">  4  6 -1 -1</clus>
<clus scale="   66.181">  3  5 -1 -1</clus>
<clus scale="  259.900">  2  4  1 -1</clus>
<clus scale="  268.298">  1  3  2 -1</clus>
</clustering>
</event>
<event>
 6    0  0.3042851E+002  0.1073507E+03  0.7546771E-02  0.1265556E+00
         21   -1    0    0  506  501  0.00000000000E+00  0.00000000000E+00  0.31163343210E+02  0.31163343210E+02  0.00000000000E+00 0. -1.
         21   -1    0    0  504  502 -0.00000000000E+00 -0.00000000000E+00 -0.90421647154E+03  0.90421647154E+03  0.00000000000E+00 0. -1.
         21    1    1    2  503  505 -0.35249202675E+02  0.74433706741E+02 -0.97336244731E+02  0.12750383338E+03  0.00000000000E+00 0. -1.
         21    1    1    2  504  503  0.46660258380E+02 -0.71662402530E+02 -0.51457854774E+03  0.52163565968E+03  0.00000000000E+00 0. -1.
         21    1    1    2  505  501  0.12719183367E+02  0.54025450578E+02 -0.12216535902E+03  0.13418234563E+03  0.00000000000E+00 0. -1.
         21    1    1    2  506  502 -0.24130239072E+02 -0.56796754789E+02 -0.13897297684E+03  0.15205797606E+03  0.00000000000E+00 0. -1.
<scales pt_clust_3="47.08227" pt_clust_4="90.74589" pt_clust_5="47.08227" pt_clust_6="61.71013"></scales>
<clustering>
<clus scale="   47.082">  3  5 -1 -1</clus>
<clus scale="   61.710">  1  6  2 -1</clus>
<clus scale="   90.746">  2  4  1 -1</clus>
<clus scale="   61.710">  1  3  2 -1</clus>
</clustering>
</event>
<event>
 6    0  0.3042851E+002  0.1646639E+03  0.7546771E-02  0.1183530E+00
         21   -1    0    0  502  501  0.00000000000E+00  0.00000000000E+00  0.70995224845E+03  0.70995224845E+03  0.00000000000E+00 0. -1.
         21   -1    0    0  503  502 -0.00000000000E+00 -0.00000000000E+00 -0.37016813946E+03  0.37016813946E+03  0.00000000000E+00 0. -1.
         21    1    1    2  503  506  0.64022262623E+02  0.67999222131E+02 -0.20343447474E+03  0.22384889956E+03  0.00000000000E+00 0. -1.
         21    1    1    2  504  501 -0.85093877656E+02 -0.54337402635E+02  0.34886049147E+03  0.36317649132E+03  0.00000000000E+00 0. -1.
         21    1    1    2  505  504 -0.48526926616E+02 -0.28022572431E+02  0.33279690640E+03  0.33748171518E+03  0.00000000000E+00 0. -1.
         21    1    1    2  506  505  0.69598541649E+02  0.14360752935E+02 -0.13843881414E+03  0.15561328184E+03  0.00000000000E+00 0. -1.
<scales pt_clust_3="43.40944" pt_clust_4="162.06515" pt_clust_5="30.05432" pt_clust_6="43.40944"></scales>
<clustering>
<clus scale="   30.054">  4  5 -1 -1</clus>
<clus scale="   43.409">  3  6 -1 -1</clus>
<clus scale="  162.065">  1  4  2 -1</clus>
<clus scale="  162.065">  1  3  2 -1</clus>
</clustering>
</event>
<event>
 6    0  0.3042851E+002  0.1451346E+03  0.7546771E-02  0.1206582E+00
         21   -1    0    0  502  501  0.00000000000E+00  0.00000000000E+00  0.14707530428E+04  0.14707530428E+04  0.00000000000E+00 0.  1.
         21   -1    0    0  504  502 -0.00000000000E+00 -0.00000000000E+00 -0.11569474414E+03  0.11569474414E+03  0.00000000000E+00 0.  1.
         21    1    1    2  503  501  0.62605546835E+01  0.78870331400E+02  0.94302133592E+03  0.94633448829E+03  0.00000000000E+00 0.  1.
         21    1    1    2  504  505 -0.29109842195E+02 -0.65283176083E+02 -0.53673865952E+02  0.89387694223E+02  0.00000000000E+00 0.  1.
         21    1    1    2  505  506 -0.82635551770E+01 -0.67865472056E+02 -0.11589806219E+02  0.69342139062E+02  0.00000000000E+00 0.  1.
         21    1    1    2  506  503  0.31112842689E+02  0.54278316739E+02  0.47730063494E+03  0.48138346540E+03  0.00000000000E+00 0.  1.
<scales pt_clust_3="39.15418" pt_clust_4="144.69213" pt_clust_5="41.61303" pt_clust_6="39.15418"></scales>
<clustering>
<clus scale="   39.154">  3  6 -1 -1</clus>
<clus scale="   41.613">  4  5 -1 -1</clus>
<clus scale="  144.692">  2  4  1 -1</clus>
<clus scale="  145.135">  1  3  2 -1</clus>
</clustering>
</event>
<event>
 6    0  0.3042851E+002  0.1072881E+03  0.7546771E-02  0.1265676E+00
         21   -1    0    0  505  501  0.00000000000E+00  0.00000000000E+00  0.64600296274E+03  0.64600296274E+03  0.00000000000E+00 0.  1.
         21   -1    0    0  504  502 -0.00000000000E+00 -0.00000000000E+00 -0.51982296406E+03  0.51982296406E+03  0.00000000000E+00 0. -1.
         21    1    1    2  503  501 -0.35559607106E+02  0.36888886720E+02  0.28051506726E+03  0.28515606005E+03  0.00000000000E+00 0.  1.
         21    1    1    2  504  506  0.86581466443E+02  0.73744829618E+02 -0.47123210425E+03  0.48476215436E+03  0.00000000000E+00 0. -1.
         21    1    1    2  505  502 -0.30808895853E+02 -0.33151032458E+02  0.31244780358E+03  0.31570842399E+03  0.00000000000E+00 0.  1.
         21    1    1    2  506  503 -0.20212963483E+02 -0.77482683880E+02  0.44492320797E+01  0.80199288402E+02  0.00000000000E+00 0.  1.
<scales pt_clust_3="62.41310" pt_clust_4="107.28815" pt_clust_5="45.25681" pt_clust_6="14000.00000"></scales>
<clustering>
<clus scale="   45.257">  1  5  2 -1</clus>
<clus scale="   62.413">  1  3  2 -1</clus>
<clus scale="  107.288">  2  4  1 -1</clus>
<clus scale="   45.257">  1  3  2 -1</clus>
</clustering>
</event>
<event>
 6    0  0.3042851E+002  0.1494315E+03  0.7546771E-02  0.1201173E+00
         21   -1    0    0  505  501  0.00000000000E+00  0.00000000000E+00  0.69979011720E+03  0.69979011720E+03  0.00000000000E+00 0.  1.
         21   -1    0    0  503  502 -0.00000000000E+00 -0.00000000000E+00 -0.11857539652E+03  0.11857539652E+03  0.00000000000E+00 0.  1.
         21    1    1    2  503  504  0.33663208339E+02 -0.20980893294E+02  0.44569364345E+02  0.59664375612E+02  0.00000000000E+00 0.  1.
         21    1    1    2  504  506  0.15850569929E+03 -0.50621941616E+02  0.47709170686E+03  0.50527530558E+03  0.00000000000E+00 0.  1.
         21    1    1    2  505  502 -0.12030385637E+03  0.35140624171E+02 -0.34086924385E+02  0.12988379321E+03  0.00000000000E+00 0.  1.
         21    1    1    2  506  501 -0.71865051258E+02  0.36462210740E+02  0.93640573867E+02  0.12354203932E+03  0.00000000000E+00 0.  1.
<scales pt_clust_3="34.42329" pt_clust_4="34.42329" pt_clust_5="131.75377" pt_clust_6="80.58584"></scales>
<clustering>
<clus scale="   34.423">  3  4 -1 -1</clus>
<clus scale="   80.586">  1  6  2 -1</clus>
<clus scale="  131.754">  2  5  1 -1</clus>
<clus scale="   80.586">  1  3  2 -1</clus>
</clustering>
</event>
<event>
 6    0  0.3042851E+002  0.1441410E+03  0.7546771E-02  0.1207863E+00
         21   -1    0    0  504  501  0.00000000000E+00  0.00000000000E+00  0.21958874061E+04  0.21958874061E+04  0.00000000000E+00 0.  1.
         21   -1    0    0  503  502 -0.00000000000E+00 -0.00000000000E+00 -0.62021766534E+02  0.62021766534E+02  0.00000000000E+00 0.  1.
         21    1    1    2  503  506  0.13311754447E+03 -0.36547174524E+02  0.59094378680E+02  0.15016032166E+03  0.00000000000E+00 0.  1.
         21    1    1    2  504  502  0.10199187299E+02 -0.53280971196E+02  0.11171009723E+04  0.11184173942E+04  0.00000000000E+00 0.  1.
         21    1    1    2  505  501  0.12386506379E+02 -0.40941086935E+02  0.22174911080E+03  0.22583681339E+03  0.00000000000E+00 0.  1.
         21    1    1    2  506  505 -0.15570323815E+03  0.13076923265E+03  0.73592117777E+03  0.76349464338E+03  0.00000000000E+00 0.  1.
<scales pt_clust_3="14000.00000" pt_clust_4="78.40031" pt_clust_5="42.77380" pt_clust_6="144.14097"></scales>
<clustering>
<clus scale="   42.774">  1  5  2 -1</clus>
<clus scale="   78.400">  1  4  2 -1</clus>
<clus scale="  144.141">  1  6  2 -1</clus>
<clus scale="   42.774">  1  3  2 -1</clus>
</clustering>
</event>
<event>
 6    0  0.3042851E+002  0.1669396E+03  0.7546771E-02  0.1181077E+00
         21   -1    0    0  505  501  0.00000000000E+00  0.00000000000E+00  0.79687354148E+03  0.79687354148E+03  0.00000000000E+00 0.  1.
         21   -1    0    0  503  502 -0.00000000000E+00 -0.00000000000E+00 -0.32869231411E+02  0.32869231411E+02  0.00000000000E+00 0.  1.
         21    1    1    2  503  506 -0.38721632880E+02 -0.33955654439E+02  0.17041467879E+03  0.17802672290E+03  0.00000000000E+00 0.  1.
         21    1    1    2  504  501 -0.36111953276E+02 -0.86411883330E+01  0.25599037679E+02  0.45100488193E+02  0.00000000000E+00 0.  1.
         21    1    1    2  505  502  0.11433847749E+03  0.87914959570E+02  0.47019356753E+03  0.49181736295E+03  0.00000000000E+00 0.  1.
         21    1    1    2  506  504 -0.39504891335E+02 -0.45318116799E+02  0.97797026073E+02  0.11479819885E+03  0.00000000000E+00 0.  1.
<scales pt_clust_3="50.21853" pt_clust_4="32.51245" pt_clust_5="144.23012" pt_clust_6="50.21853"></scales>
<clustering>
<clus scale="   32.512">  4  6 -1 -1</clus>
<clus scale="   50.219">  3  4 -1 -1</clus>
<clus scale="  144.230">  1  5  2 -1</clus>
<clus scale="  144.230">  1  3  2 -1</clus>
</clustering>
</event>
<event>
 6    0  0.3042851E+002  0.1835200E+03  0.7546771E-02  0.1164439E+00
         21   -1    0    0  502  501  0.00000000000E+00  0.00000000000E+00  0.83675777105E+03  0.83675777105E+03  0.00000000000E+00 0.  1.
         21   -1    0    0  506  502 -0.00000000000E+00 -0.00000000000E+00 -0.51278857109E+03  0.51278857109E+03  0.00000000000E+00 0.  1.
         21    1    1    2  503  505  0.12608419672E+03  0.24202251636E+03  0.36131352262E+03  0.45279088409E+03  0.00000000000E+00 0.  1.
         21    1    1    2  504  503 -0.40734954462E+02 -0.54016806786E+02 -0.26209492986E+03  0.27068598816E+03  0.00000000000E+00 0.  1.
         21    1    1    2  505  501 -0.30965495123E+02 -0.15396858006E+03  0.40519086756E+03  0.43456279718E+03  0.00000000000E+00 0.  1.
         21    1    1    2  506  504 -0.54383747132E+02 -0.34037129509E+02 -0.18044026036E+03  0.19150667272E+03  0.00000000000E+00 0.  1.
<scales pt_clust_3="183.52000" pt_clust_4="133.35914" pt_clust_5="14000.00000" pt_clust_6="30.54091"></scales>
<clustering>
<clus scale="   30.541">  4  6 -1 -1</clus>
<clus scale="  133.359">  2  4  1 -1</clus>
<clus scale="  183.520">  2  3  1 -1</clus>
<clus scale="  183.520">  1  3  2 -1</clus>
</clustering>
</event>
<event>
 6    0  0.3042851E+002  0.9768229E+02  0.7546771E-02  0.1285247E+00
         21   -1    0    0  504  501  0.00000000000E+00  0.00000000000E+00  0.41244147099E+03  0.41244147099E+03  0.00000000000E+00 0. -1.
         21   -1    0    0  503  502 -0.00000000000E+00 -0.00000000000E+00 -0.41697592187E+03  0.41697592187E+03  0.00000000000E+00 0.  1.
         21    1    1    2  503  505  0.25385454373E+02  0.73991106059E+02  0.33369360058E+02  0.85044807368E+02  0.00000000000E+00 0.  1.
         21    1    1    2  504  506 -0.65714820224E+02 -0.98156251240E+01  0.32164820738E+03  0.32843926898E+03  0.00000000000E+00 0. -1.
         21    1    1    2  505  501  0.37386920169E+02  0.21758945084E+02  0.29643061226E+01  0.43359204348E+02  0.00000000000E+00 0. -1.
         21    1    1    2  506  502  0.29424456818E+01 -0.85934426019E+02 -0.36251632445E+03  0.37257411216E+03  0.00000000000E+00 0.  1.
<scales pt_clust_3="33.74344" pt_clust_4="66.44384" pt_clust_5="33.74344" pt_clust_6="86.50329"></scales>
<clustering>
<clus scale="   33.743">  3  5 -1 -1</clus>
<clus scale="   66.444">  1  4  2 -1</clus>
<clus scale="   86.503">  2  6  1 -1</clus>
<clus scale="   66.444">  1  3  2 -1</clus>
</clustering>
</event>
<event>
 6    0  0.3042851E+002  0.1176210E+03  0.7546771E-02  0.1247074E+00
         21   -1    0    0  503  501  0.00000000000E+00  0.00000000000E+00  0.71214702972E+03  0.71214702972E+03  0.00000000000E+00 0.  1.
         21   -1    0    0  505  502 -0.00000000000E+00 -0.00000000000E+00 -0.95355029249E+03  0.95355029249E+03  0.00000000000E+00 0.  1.
         21    1    1    2  503  506  0.53602510330E-01 -0.41822689001E+02  0.38233784982E+03  0.38461847537E+03  0.00000000000E+00 0.  1.
         21    1    1    2  504  501 -0.46187052211E+02  0.12676217417E+02  0.27325380863E+03  0.27741949140E+03  0.00000000000E+00 0.  1.
         21    1    1    2  505  504  0.10351778972E+03  0.64003282010E+02 -0.92349304310E+03  0.93147826252E+03  0.00000000000E+00 0.  1.
         21    1    1    2  506  502 -0.57384340020E+02 -0.34856810426E+02  0.26498121872E+02  0.72181092921E+02  0.00000000000E+00 0. -1.
<scales pt_clust_3="41.82272" pt_clust_4="51.27444" pt_clust_5="117.62099" pt_clust_6="14000.00000"></scales>
<clustering>
<clus scale="   41.823">  1  3  2 -1</clus>
<clus scale="   51.274">  1  4  2 -1</clus>
<clus scale="  117.621">  2  5  1 -1</clus>
<clus scale="   41.823">  1  3  2 -1</clus>
</clustering>
</event>
<event>
 6    0  0.3042851E+002  0.1158658E+03  0.7546771E-02  0.1250077E+00
         21   -1    0    0  503  501  0.00000000000E+00  0.00000000000E+00  0.13753095827E+04  0.13753095827E+04  0.00000000000E+00 0.  1.
         21   -1    0    0  506  502 -0.00000000000E+00 -0.00000000000E+00 -0.66966684582E+02  0.66966684582E+02  0.00000000000E+00 0.  1.
         21    1    1    2  503  505 -0.93865178810E+02  0.13322007507E+02  0.50905616055E+02  0.10760822191E+03  0.00000000000E+00 0.  1.
         21    1    1    2  504  501 -0.78420557795E+01 -0.41352273150E+02  0.14977635149E+03  0.15557783840E+03  0.00000000000E+00 0.  1.
         21    1    1    2  505  502 -0.25658109792E+02 -0.22403310634E+02 -0.22392851642E+02  0.40763791900E+02  0.00000000000E+00 0.  1.
         21    1    1    2  506  504  0.12736534438E+03  0.50433576277E+02  0.11300537822E+04  0.11383264151E+04  0.00000000000E+00 0.  1.
<scales pt_clust_3="115.86583" pt_clust_4="44.31892" pt_clust_5="34.06240" pt_clust_6="14000.00000"></scales>
<clustering>
<clus scale="   34.062">  2  5  1 -1</clus>
<clus scale="   44.319">  1  4  2 -1</clus>
<clus scale="  115.866">  2  3  1 -1</clus>
<clus scale="   44.319">  1  3  2 -1</clus>
</clustering>
</event>
<event>
 6    0  0.3042851E+002  0.1734246E+03  0.7546771E-02  0.1174323E+00
         21   -1    0    0  505  501  0.00000000000E+00  0.00000000000E+00  0.37714140806E+03  0.37714140806E+03  0.00000000000E+00 0.  1.
         21   -1    0    0  503  502 -0.00000000000E+00 -0.00000000000E+00 -0.23399695413E+03  0.23399695413E+03  0.00000000000E+00 0. -1.
         21    1    1    2  503  506 -0.69999728273E+02  0.10213660315E+01  0.12196931241E+02  0.71061735685E+02  0.00000000000E+00 0.  1.
         21    1    1    2  504  502  0.52186485723E+02 -0.18826914599E+02 -0.56477477390E+02  0.79168096211E+02  0.00000000000E+00 0. -1.
         21    1    1    2  505  504  0.14916180214E+03  0.71450535201E+02 -0.59794481368E+02  0.17586870728E+03  0.00000000000E+00 0. -1.
         21    1    1    2  506  501 -0.13134855960E+03 -0.53644986634E+02  0.24721948144E+03  0.28503982301E+03  0.00000000000E+00 0.  1.
<scales pt_clust_3="70.00718" pt_clust_4="52.49155" pt_clust_5="52.49155" pt_clust_6="147.85755"></scales>
<clustering>
<clus scale="   52.492">  4  5 -1 -1</clus>
<clus scale="   70.007">  2  3  1 -1</clus>
<clus scale="  147.858">  1  6  2 -1</clus>
<clus scale="  147.858">  1  3  2 -1</clus>
</clustering>
</event>
<event>
 6    0  0.3042851E+002  0.7727085E+02  0.7546771E-02  0.1336980E+00
         21   -1    0    0  504  501  0.00000000000E+00  0.00000000000E+00  0.60374974201E+03  0.60374974201E+03  0.00000000000E+00 0. -1.
         21   -1    0    0  505  502 -0.00000000000E+00 -0.00000000000E+00 -0.64570393439E+03  0.64570393439E+03  0.00000000000E+00 0. -1.
         21    1    1    2  503  502  0.86833440102E+02 -0.79070926922E+02  0.40255093992E+03  0.41933222752E+03  0.00000000000E+00 0. -1.
         21    1    1    2  504  503 -0.97705399224E+01  0.56810753121E+02  0.18179804099E+03  0.19071825510E+03  0.00000000000E+00 0. -1.
         21    1    1    2  505  506 -0.29653139196E+02  0.24567319817E+02 -0.53603305258E+03  0.53741445396E+03  0.00000000000E+00 0. -1.
         21    1    1    2  506  501 -0.47409760983E+02 -0.23071460168E+01 -0.90270120702E+02  0.10198873982E+03  0.00000000000E+00 0.  1.
<scales pt_clust_3="14000.00000" pt_clust_4="58.85034" pt_clust_5="38.50795" pt_clust_6="77.27085"></scales>
<clustering>
<clus scale="   38.508">  2  5  1 -1</clus>
<clus scale="   58.850">  1  4  2 -1</clus>
<clus scale="   77.271">  2  6  1 -1</clus>
<clus scale="   58.850">  1  3  2 -1</clus>
</clustering>
</event>
<event>
 6    0  0.3042851E+002  0.1834840E+03  0.7546771E-02  0.1164473E+00
         21   -1    0    0  505  501  0.00000000000E+00  0.00000000000E+00  0.36929898665E+03  0.36929898665E+03  0.00000000000E+00 0.  1.
         21   -1    0    0  504  502 -0.00000000000E+00 -0.00000000000E+00 -0.31806977234E+03  0.31806977234E+03  0.00000000000E+00 0.  1.
         21    1    1    2  503  502 -0.59535712676E+02  0.63935788212E+01 -0.11553624614E+03  0.13013071546E+03  0.00000000000E+00 0.  1.
         21    1    1    2  504  506  0.11046297824E+03  0.21698619286E+02  0.14376001272E+03  0.18259200667E+03  0.00000000000E+00 0.  1.
         21    1    1    2  505  503 -0.10958387353E+03 -0.45201045593E+02 -0.14999006662E+03  0.19117735207E+03  0.00000000000E+00 0.  1.
         21    1    1    2  506  501  0.58656607966E+02  0.17108847486E+02  0.17299551434E+03  0.18346868480E+03  0.00000000000E+00 0.  1.
<scales pt_clust_3="36.42902" pt_clust_4="43.95043" pt_clust_5="180.92720" pt_clust_6="43.95043"></scales>
<clustering>
<clus scale="   36.429">  3  5 -1 -1</clus>
<clus scale="   43.950">  4  6 -1 -1</clus>
<clus scale="  180.927">  2  3  1 -1</clus>
<clus scale="  183.484">  1  3  2 -1</clus>
</clustering>
</event>
<event>
 6    0  0.3042851E+002  0.1182555E+03  0.7546771E-02  0.1246003E+00
         21   -1    0    0  505  501  0.00000000000E+00  0.00000000000E+00  0.28466957872E+04  0.28466957872E+04  0.00000000000E+00 0. -1.
         21   -1    0    0  506  502 -0.00000000000E+00 -0.00000000000E+00 -0.81841024189E+02  0.81841024189E+02  0.00000000000E+00 0.  1.
         21    1    1    2  503  504 -0.75330422855E+02 -0.28264321738E+02  0.23293118980E+04  0.23307010668E+04  0.00000000000E+00 0. -1.
         21    1    1    2  504  501 -0.28821764580E+02 -0.36665003765E+02  0.39205230416E+03  0.39481644572E+03  0.00000000000E+00 0. -1.
         21    1    1    2  505  502  0.69811252457E+02  0.12829270381E+02 -0.52669715374E+02  0.88387216642E+02  0.00000000000E+00 0.  1.
         21    1    1    2  506  503  0.34340934978E+02  0.52100055122E+02  0.96160276255E+02  0.11463208228E+03  0.00000000000E+00 0. -1.
<scales pt_clust_3="118.25554" pt_clust_4="46.63707" pt_clust_5="14000.00000" pt_clust_6="60.40324"></scales>
<clustering>
<clus scale="   46.637">  1  4  2 -1</clus>
<clus scale="   60.403">  2  6  1 -1</clus>
<clus scale="  118.256">  1  3  2 -1</clus>
<clus scale="   46.637">  1  3  2 -1</clus>
</clustering>
</event>
<event>
 6    0  0.3042851E+002  0.2773021E+03  0.7546771E-02  0.1097172E+00
         21   -1    0    0  504  501  0.00000000000E+00  0.00000000000E+00  0.75246867635E+03  0.75246867635E+03  0.00000000000E+00 0. -1.
         21   -1    0    0  503  502 -0.00000000000E+00 -0.00000000000E+00 -0.12119263933E+03  0.12119263933E+03  0.00000000000E+00 0. -1.
         21    1    1    2  503  505  0.26635118560E+02  0.21841684791E+03  0.87212733787E+02  0.23668842373E+03  0.00000000000E+00 0. -1.
         21    1    1    2  504  506 -0.52550857736E+02 -0.85662885188E+02  0.24418152071E+03  0.26405366425E+03  0.00000000000E+00 0. -1.
         21    1    1    2  505  501  0.47496187981E+02  0.27204217934E+02  0.43300733710E+02  0.69791911322E+02  0.00000000000E+00 0. -1.
         21    1    1    2  506  502 -0.21580448805E+02 -0.15995818066E+03  0.25658104881E+03  0.30312731638E+03  0.00000000000E+00 0. -1.
<scales pt_clust_3="52.47916" pt_clust_4="56.38378" pt_clust_5="52.47916" pt_clust_6="266.32896"></scales>
<clustering>
<clus scale="   52.479">  3  5 -1 -1</clus>
<clus scale="   56.384">  4  6 -1 -1</clus>
<clus scale="  266.329">  1  4  2 -1</clus>
<clus scale="  266.329">  1  3  2 -1</clus>
</clustering>
</event>
<event>
 6    0  0.3042851E+002  0.1338236E+03  0.7546771E-02  0.1221890E+00
         21   -1    0    0  504  501  0.00000000000E+00  0.00000000000E+00  0.14667170690E+03  0.14667170690E+03  0.00000000000E+00 0.  1.
         21   -1    0    0  506  502 -0.00000000000E+00 -0.00000000000E+00 -0.16774349400E+04  0.16774349400E+04  0.00000000000E+00 0. -1.
         21    1    1    2  503  501  0.23915266143E+02  0.45404946349E+02  0.78861530337E+02  0.94088735110E+02  0.00000000000E+00 0.  1.
         21    1    1    2  504  502 -0.17812568070E+02 -0.44380441761E+02 -0.21364028009E+03  0.21892711223E+03  0.00000000000E+00 0.  1.
         21    1    1    2  505  503  0.57175346971E+02  0.46688536455E+02  0.32325427470E+02  0.80583950006E+02  0.00000000000E+00 0.  1.
         21    1    1    2  506  505 -0.63278045043E+02 -0.47713041043E+02 -0.14283099108E+04  0.14305068496E+04  0.00000000000E+00 0. -1.
<scales pt_clust_3="46.35714" pt_clust_4="47.82166" pt_clust_5="46.35714" pt_clust_6="121.72770"></scales>
<clustering>
<clus scale="   46.357">  3  5 -1 -1</clus>
<clus scale="   47.822">  2  4  1 -1</clus>
<clus scale="  121.728">  2  6  1 -1</clus>
<clus scale="  133.824">  1  3  2 -1</clus>
</clustering>
</event>
<event>
 6    0  0.3042851E+002  0.1507347E+03  0.7546771E-02  0.1199573E+00
         21   -1    0    0  506  501  0.00000000000E+00  0.00000000000E+00  0.45806567639E+02  0.45806567639E+02  0.00000000000E+00 0. -1.
         21   -1    0    0  501  502 -0.00000000000E+00 -0.00000000000E+00 -0.66509548994E+03  0.66509548994E+03  0.00000000000E+00 0. -1.
         21    1    1    2  503  504  0.40486839314E+02 -0.50156337438E+02 -0.88471786707E+02  0.10946277626E+03  0.00000000000E+00 0. -1.
         21    1    1    2  504  505 -0.58701430791E+02  0.35266151551E+02 -0.20539884775E+03  0.21651384731E+03  0.00000000000E+00 0. -1.
         21    1    1    2  505  502 -0.45339338570E+02  0.60646240381E+02 -0.28864103970E+03  0.29840789516E+03  0.00000000000E+00 0. -1.
         21    1    1    2  506  503  0.63553930047E+02 -0.45756054494E+02 -0.36777248148E+02  0.86517538850E+02  0.00000000000E+00 0. -1.
<scales pt_clust_3="47.11830" pt_clust_4="30.74686" pt_clust_5="145.15161" pt_clust_6="47.11830"></scales>
<clustering>
<clus scale="   30.747">  4  5 -1 -1</clus>
<clus scale="   47.118">  3  6 -1 -1</clus>
<clus scale="  145.152">  2  4  1 -1</clus>
<clus scale="  150.735">  1  3  2 -1</clus>
</clustering>
</event>
<event>
 6    0  0.3042851E+002  0.1413708E+03  0.7546771E-02  0.1211496E+00
         21   -1    0    0  504  501  0.00000000000E+00  0.00000000000E+00  0.26886408143E+03  0.26886408143E+03  0.00000000000E+00 0. -1.
         21   -1    0    0  503  502 -0.00000000000E+00 -0.00000000000E+00 -0.16746125646E+03  0.16746125646E+03  0.00000000000E+00 0.  1.
         21    1    1    2  503  505 -0.45071109394E+02 -0.66885570217E+02 -0.58309894037E+02  0.99524510287E+02  0.00000000000E+00 0.  1.
         21    1    1    2  504  506  0.65142293642E+02  0.33566954103E+02  0.10154691223E+03  0.12522792904E+03  0.00000000000E+00 0. -1.
         21    1    1    2  505  501 -0.10450993516E+03  0.17140667685E+02 -0.31832835522E+01  0.10595405764E+03  0.00000000000E+00 0.  1.
         21    1    1    2  506  502  0.84438750916E+02  0.16177948429E+02  0.61349090333E+02  0.10561884092E+03  0.00000000000E+00 0. -1.
<scales pt_clust_3="80.65410" pt_clust_4="40.30735" pt_clust_5="134.46053" pt_clust_6="40.30735"></scales>
<clustering>
<clus scale="   40.307">  4  6 -1 -1</clus>
<clus scale="   80.654">  2  3  1 -1</clus>
<clus scale="  134.461">  2  5  1 -1</clus>
<clus scale="  141.371">  1  3  2 -1</clus>
</clustering>
</event>
<event>
 6    0  0.3042851E+002  0.1219848E+03  0.7546771E-02  0.1239858E+00
         21   -1    0    0  505  501  0.00000000000E+00  0.00000000000E+00  0.25084457573E+03  0.25084457573E+03  0.00000000000E+00 0. -1.
         21   -1    0    0  506  502 -0.00000000000E+00 -0.00000000000E+00 -0.83230428821E+02  0.83230428821E+02  0.00000000000E+00 0. -1.
         21    1    1    2  503  501 -0.35148228363E+02 -0.41845272680E+02  0.80298260231E+02  0.97129992272E+02  0.00000000000E+00 0. -1.
         21    1    1    2  504  502  0.31098223579E+02  0.46406490114E+01  0.84271785489E-01  0.31442681736E+02  0.00000000000E+00 0. -1.
         21    1    1    2  505  504  0.10780021214E+02  0.10700686294E+03  0.22100073476E+02  0.10979567761E+03  0.00000000000E+00 0. -1.
         21    1    1    2  506  503 -0.67300164301E+01 -0.69802239273E+02  0.65131541420E+02  0.95706652937E+02  0.00000000000E+00 0. -1.
<scales pt_clust_3="36.99395" pt_clust_4="31.44257" pt_clust_5="114.29393" pt_clust_6="36.99395"></scales>
<clustering>
<clus scale="   31.443">  2  4  1 -1</clus>
<clus scale="   36.994">  3  6 -1 -1</clus>
<clus scale="  114.294">  2  5  1 -1</clus>
<clus scale="  121.985">  1  3  2 -1</clus>
</clustering>
</event>
<event>
 6    0  0.3042851E+002  0.1487000E+03  0.7546771E-02  0.1202080E+00
         21   -1    0    0  503  501  0.00000000000E+00  0.00000000000E+00  0.31963995636E+03  0.31963995636E+03  0.00000000000E+00 0.  1.
         21   -1    0    0  505  502 -0.00000000000E+00 -0.00000000000E+00 -0.70109625757E+03  0.70109625757E+03  0.00000000000E+00 0.  1.
         21    1    1    2  503  506 -0.34650364731E+02 -0.83446109021E+02 -0.39239799711E+03  0.40266622533E+03  0.00000000000E+00 0.  1.
         21    1    1    2  504  501  0.52938596711E+02  0.85133433485E+02  0.22802565525E+03  0.24909013623E+03  0.00000000000E+00 0.  1.
         21    1    1    2  505  504  0.39212223015E+02  0.66354793714E+01  0.67598348474E+02  0.78429361445E+02  0.00000000000E+00 0.  1.
         21    1    1    2  506  502 -0.57500454995E+02 -0.83228038350E+01 -0.28468230782E+03  0.29055049092E+03  0.00000000000E+00 0.  1.
<scales pt_clust_3="57.81572" pt_clust_4="140.98039" pt_clust_5="34.27969" pt_clust_6="57.81572"></scales>
<clustering>
<clus scale="   34.280">  4  5 -1 -1</clus>
<clus scale="   57.816">  3  6 -1 -1</clus>
<clus scale="  140.980">  1  4  2 -1</clus>
<clus scale="  140.980">  1  3  2 -1</clus>
</clustering>
</event>
<event>
 6    0  0.3042851E+002  0.1779091E+03  0.7546771E-02  0.1169842E+00
         21   -1    0    0  504  501  0.00000000000E+00  0.00000000000E+00  0.16118508150E+03  0.16118508150E+03  0.00000000000E+00 0. -1.
         21   -1    0    0  505  502 -0.00000000000E+00 -0.00000000000E+00 -0.71057736662E+03  0.71057736662E+03  0.00000000000E+00 0.  1.
         21    1    1    2  503  501 -0.44201351763E+02  0.76441806475E+02  0.34076418790E+02  0.94648357579E+02  0.00000000000E+00 0. -1.
         21    1    1    2  504  506  0.84753694159E+02 -0.10723798854E+03 -0.46713956037E+03  0.48672635404E+03  0.00000000000E+00 0.  1.
         21    1    1    2  505  503 -0.38065223609E+02  0.70745145911E+02  0.65842637431E+02  0.10387054357E+03  0.00000000000E+00 0. -1.
         21    1    1    2  506  502 -0.24871187873E+01 -0.39948963848E+02 -0.18217178098E+03  0.18651719293E+03  0.00000000000E+00 0.  1.
<scales pt_clust_3="171.53990" pt_clust_4="30.70641" pt_clust_5="30.07437" pt_clust_6="30.70641"></scales>
<clustering>
<clus scale="   30.074">  3  5 -1 -1</clus>
<clus scale="   30.706">  4  6 -1 -1</clus>
<clus scale="  171.540">  1  3  2 -1</clus>
<clus scale="  171.540">  1  3  2 -1</clus>
</clustering>
</event>
<event>
 6    0  0.3042851E+002  0.1397633E+03  0.7546771E-02  0.1213648E+00
         21   -1    0    0  504  501  0.00000000000E+00  0.00000000000E+00  0.15590312884E+03  0.15590312884E+03  0.00000000000E+00 0. -1.
         21   -1    0    0  505  502 -0.00000000000E+00 -0.00000000000E+00 -0.48899010614E+03  0.48899010614E+03  0.00000000000E+00 0. -1.
         21    1    1    2  503  502 -0.32463204096E+02 -0.22958997822E+01 -0.40721755179E+02  0.52128611346E+02  0.00000000000E+00 0.  1.
         21    1    1    2  504  506  0.91041568016E+02 -0.19896712657E+02  0.10341631901E+03  0.13920984635E+03  0.00000000000E+00 0. -1.
         21    1    1    2  505  501 -0.97487486783E+02  0.28249832900E+02 -0.40116945942E+03  0.41381009934E+03  0.00000000000E+00 0. -1.
         21    1    1    2  506  503  0.38909122863E+02 -0.60572204613E+01  0.53879182928E+01  0.39744677948E+02  0.00000000000E+00 0. -1.
<scales pt_clust_3="32.54429" pt_clust_4="33.00804" pt_clust_5="130.03154" pt_clust_6="33.00804"></scales>
<clustering>
<clus scale="   32.544">  2  3  1 -1</clus>
<clus scale="   33.008">  4  6 -1 -1</clus>
<clus scale="  130.032">  2  5  1 -1</clus>
<clus scale="  139.763">  1  3  2 -1</clus>
</clustering>
</event>
<event>
 6    0  0.3042851E+002  0.2009812E+03  0.7546771E-02  0.1148914E+00
         21   -1    0    0  505  501  0.00000000000E+00  0.00000000000E+00  0.23816747790E+04  0.23816747790E+04  0.00000000000E+00 0. -1.
         21   -1    0    0  504  502 -0.00000000000E+00 -0.00000000000E+00 -0.18920915259E+03  0.18920915259E+03  0.00000000000E+00 0. -1.
         21    1    1    2  503  502 -0.10817143412E+02  0.90081502429E+02 -0.15022963577E+02  0.91963998968E+02  0.00000000000E+00 0. -1.
         21    1    1    2  504  506 -0.13059383914E+03  0.63321290935E+02 -0.88415368775E+02  0.16994591534E+03  0.00000000000E+00 0. -1.
         21    1    1    2  505  503  0.34014207437E+02 -0.61592659610E+02  0.30275732582E+03  0.31082570737E+03  0.00000000000E+00 0.  1.
         21    1    1    2  506  501  0.10739677511E+03 -0.91810133754E+02  0.19931466329E+04  0.19981483099E+04  0.00000000000E+00 0. -1.
<scales pt_clust_3="89.52095" pt_clust_4="200.98118" pt_clust_5="70.36066" pt_clust_6="14000.00000"></scales>
<clustering>
<clus scale="   70.361">  1  5  2 -1</clus>
<clus scale="   89.521">  2  3  1 -1</clus>
<clus scale="  200.981">  2  4  1 -1</clus>
<clus scale="   70.361">  1  3  2 -1</clus>
</clustering>
</event>
<event>
 6    0  0.3042851E+002  0.1110635E+03  0.7546771E-02  0.1258613E+00
         21   -1    0    0  503  501  0.00000000000E+00  0.00000000000E+00  0.12596438830E+03  0.12596438830E+03  0.00000000000E+00 0.  1.
         21   -1    0    0  505  502 -0.00000000000E+00 -0.00000000000E+00 -0.40010727808E+03  0.40010727808E+03  0.00000000000E+00 0. -1.
         21    1    1    2  503  506 -0.31548533147E+02  0.44738401103E+01 -0.13014762564E+02  0.34419605367E+02  0.00000000000E+00 0. -1.
         21    1    1    2  504  501  0.73628128958E+02 -0.65618043741E+02  0.57550130180E+02  0.11418776871E+03  0.00000000000E+00 0.  1.
         21    1    1    2  505  504  0.35604314746E+02  0.28120140889E+01  0.80401254499E+01  0.36608991641E+02  0.00000000000E+00 0.  1.
         21    1    1    2  506  502 -0.77683910557E+02  0.58332189542E+02 -0.32671838285E+03  0.34085530066E+03  0.00000000000E+00 0. -1.
<scales pt_clust_3="31.86417" pt_clust_4="30.45512" pt_clust_5="30.45512" pt_clust_6="98.86280"></scales>
<clustering>
<clus scale="   30.455">  4  5 -1 -1</clus>
<clus scale="   31.864">  1  3  2 -1</clus>
<clus scale="   98.863">  2  6  1 -1</clus>
<clus scale="   31.864">  1  3  2 -1</clus>
</clustering>
</event>
<event>
 6    0  0.3042851E+002  0.1634596E+03  0.7546771E-02  0.1184845E+00
         21   -1    0    0  503  501  0.00000000000E+00  0.00000000000E+00  0.12840922967E+03  0.12840922967E+03  0.00000000000E+00 0. -1.
         21   -1    0    0  506  502 -0.00000000000E+00 -0.00000000000E+00 -0.69997874135E+03  0.69997874135E+03  0.00000000000E+00 0. -1.
         21    1    1    2  503  504  0.10221467632E+02 -0.47331432919E+02  0.53391192000E+02  0.72078861852E+02  0.00000000000E+00 0. -1.
         21    1    1    2  504  502  0.32656690815E+02 -0.91426131588E+02  0.12809444343E+02  0.97924863321E+02  0.00000000000E+00 0.  1.
         21    1    1    2  505  501  0.19256872697E+02  0.47978432223E+02 -0.25128047774E+03  0.25654363293E+03  0.00000000000E+00 0. -1.
         21    1    1    2  506  505 -0.62135031143E+02  0.90779132284E+02 -0.38648967028E+03  0.40184061292E+03  0.00000000000E+00 0. -1.
<scales pt_clust_3="41.34085" pt_clust_4="156.58462" pt_clust_5="51.42354" pt_clust_6="51.42354"></scales>
<clustering>
<clus scale="   41.341">  3  4 -1 -1</clus>
<clus scale="   51.424">  5  6 -1 -1</clus>
<clus scale="  156.585">  1  3  2 -1</clus>
<clus scale="  156.585">  1  3  2 -1</clus>
</clustering>
</event>
<event>
 6    0  0.3042851E+002  0.1111604E+03  0.7546771E-02  0.1258436E+00
         21   -1    0    0  504  501  0.00000000000E+00  0.00000000000E+00  0.10186296847E+04  0.10186296847E+04  0.00000000000E+00 0. -1.
         21   -1    0    0  506  502 -0.00000000000E+00 -0.00000000000E+00 -0.26296578605E+03  0.26296578605E+03  0.00000000000E+00 0. -1.
         21    1    1    2  503  505 -0.14018751859E+03 -0.64908549376E+02 -0.12935669126E+03  0.20149147308E+03  0.00000000000E+00 0. -1.
         21    1    1    2  504  502  0.81113414640E+02 -0.36159341900E+02  0.70845945935E+03  0.71400398429E+03  0.00000000000E+00 0. -1.
         21    1    1    2  505  501  0.30037498328E+02  0.46493109621E+02  0.25799164123E+03  0.26386274366E+03  0.00000000000E+00 0.  1.
         21    1    1    2  506  503  0.29036605619E+02  0.54574781655E+02 -0.81430510650E+02  0.10223726974E+03  0.00000000000E+00 0. -1.
<scales pt_clust_3="111.16044" pt_clust_4="14000.00000" pt_clust_5="55.35215" pt_clust_6="62.57584"></scales>
<clustering>
<clus scale="   55.352">  1  5  2 -1</clus>
<clus scale="   62.576">  2  6  1 -1</clus>
<clus scale="  111.160">  2  3  1 -1</clus>
<clus scale="   55.352">  1  3  2 -1</clus>
</clustering>
</event>
<event>
 6    0  0.3042851E+002  0.2021368E+03  0.7546771E-02  0.1147949E+00
         21   -1    0    0  503  501  0.00000000000E+00  0.00000000000E+00  0.14848780714E+03  0.14848780714E+03  0.00000000000E+00 0.  1.
         21   -1    0    0  501  502 -0.00000000000E+00 -0.00000000000E+00 -0.42574394680E+03  0.42574394680E+03  0.00000000000E+00 0.  1.
         21    1    1    2  503  504  0.11816650349E+03  0.61196927001E+02  0.24034211026E+02  0.13522584709E+03  0.00000000000E+00 0.  1.
         21    1    1    2  504  506  0.68318385689E+02 -0.99565186959E+01  0.10204322726E+02  0.69790130320E+02  0.00000000000E+00 0.  1.
         21    1    1    2  505  502 -0.11395955418E+03 -0.93911977159E+01 -0.18666724902E+03  0.21890554227E+03  0.00000000000E+00 0.  1.
         21    1    1    2  506  505 -0.72525334998E+02 -0.41849210589E+02 -0.12482742439E+03  0.15031023426E+03  0.00000000000E+00 0.  1.
<scales pt_clust_3="42.35071" pt_clust_4="42.35071" pt_clust_5="198.22048" pt_clust_6="37.19410"></scales>
<clustering>
<clus scale="   37.194">  5  6 -1 -1</clus>
<clus scale="   42.351">  3  4 -1 -1</clus>
<clus scale="  198.220">  2  5  1 -1</clus>
<clus scale="  202.137">  1  3  2 -1</clus>
</clustering>
</event>
<event>
 6    0  0.3042851E+002  0.1645065E+03  0.7546771E-02  0.1183701E+00
         21   -1    0    0  503  501  0.00000000000E+00  0.00000000000E+00  0.53467895123E+02  0.53467895123E+02  0.00000000000E+00 0. -1.
         21   -1    0    0  504  502 -0.00000000000E+00 -0.00000000000E+00 -0.25368535864E+04  0.25368535864E+04  0.00000000000E+00 0. -1.
         21    1    1    2  503  506  0.10946241484E+03  0.10286794358E+03 -0.77878205765E+02  0.16920061765E+03  0.00000000000E+00 0. -1.
         21    1    1    2  504  505 -0.10371838396E+03 -0.64289529699E+02 -0.17928638232E+04  0.17970117794E+04  0.00000000000E+00 0. -1.
         21    1    1    2  505  501 -0.52044301218E+02 -0.20431508742E+01 -0.40214615411E+03  0.40550500986E+03  0.00000000000E+00 0. -1.
         21    1    1    2  506  502  0.46300270335E+02 -0.36535263005E+02 -0.21049750821E+03  0.21860407461E+03  0.00000000000E+00 0. -1.
<scales pt_clust_3="150.70845" pt_clust_4="43.08623" pt_clust_5="43.08623" pt_clust_6="58.97915"></scales>
<clustering>
<clus scale="   43.086">  4  5 -1 -1</clus>
<clus scale="   58.979">  2  6  1 -1</clus>
<clus scale="  150.708">  1  3  2 -1</clus>
<clus scale="  150.708">  1  3  2 -1</clus>
</clustering>
</event>
<event>
 6    0  0.3042851E+002  0.8045228E+02  0.7546771E-02  0.1327773E+00
         21   -1    0    0  503  501  0.00000000000E+00  0.00000000000E+00  0.21255581278E+04  0.21255581278E+04  0.00000000000E+00 0.  1.
         21   -1    0    0  504  502 -0.00000000000E+00 -0.00000000000E+00 -0.67043910405E+02  0.67043910405E+02  0.00000000000E+00 0. -1.
         21    1    1    2  503  506 -0.93611503223E+02  0.87552605038E+02  0.17999972263E+04  0.18045549554E+04  0.00000000000E+00 0.  1.
         21    1    1    2  504  505  0.38019560453E+02 -0.11398168030E+02  0.39257296537E+02  0.55825984478E+02  0.00000000000E+00 0. -1.
         21    1    1    2  505  501  0.26694794660E+02 -0.41312002358E+02  0.26401945439E+03  0.26856203361E+03  0.00000000000E+00 0.  1.
         21    1    1    2  506  502  0.28897148111E+02 -0.34842434650E+02 -0.44759759859E+02  0.63659064743E+02  0.00000000000E+00 0. -1.
<scales pt_clust_3="14000.00000" pt_clust_4="39.69137" pt_clust_5="50.36380" pt_clust_6="80.45228"></scales>
<clustering>
<clus scale="   39.691">  2  4  1 -1</clus>
<clus scale="   50.364">  1  5  2 -1</clus>
<clus scale="   80.452">  2  6  1 -1</clus>
<clus scale="   50.364">  1  3  2 -1</clus>
</clustering>
</event>
<event>
 6    0  0.3042851E+002  0.1643440E+03  0.7546771E-02  0.1183878E+00
         21   -1    0    0  506  501  0.00000000000E+00  0.00000000000E+00  0.12379030418E+03  0.12379030418E+03  0.00000000000E+00 0.  1.
         21   -1    0    0  505  502 -0.00000000000E+00 -0.00000000000E+00 -0.29320107710E+03  0.29320107710E+03  0.00000000000E+00 0.  1.
         21    1    1    2  503  502 -0.84249169609E+02  0.83294254652E+02  0.22360979434E+01  0.11849411619E+03  0.00000000000E+00 0.  1.
         21    1    1    2  504  501  0.94272655699E+02 -0.48359615983E+02 -0.86346738099E+02  0.13668118104E+03  0.00000000000E+00 0.  1.
         21    1    1    2  505  504  0.32212980094E+02 -0.36062158907E+02 -0.10469771567E+03  0.11532461601E+03  0.00000000000E+00 0.  1.
         21    1    1    2  506  503 -0.42236466185E+02  0.11275202385E+01  0.19397582911E+02  0.46491468039E+02  0.00000000000E+00 0.  1.
<scales pt_clust_3="163.56108" pt_clust_4="42.09804" pt_clust_5="42.09804" pt_clust_6="35.96332"></scales>
<clustering>
<clus scale="   35.963">  3  6 -1 -1</clus>
<clus scale="   42.098">  4  5 -1 -1</clus>
<clus scale="  163.561">  1  3  2 -1</clus>
<clus scale="  163.561">  1  3  2 -1</clus>
</clustering>
</event>
<event>
 6    0  0.3042851E+002  0.8275694E+02  0.7546771E-02  0.1321405E+00
         21   -1    0    0  506  501  0.00000000000E+00  0.00000000000E+00  0.22604373033E+03  0.22604373033E+03  0.00000000000E+00 0.  1.
         21   -1    0    0  503  502 -0.00000000000E+00 -0.00000000000E+00 -0.11437690684E+04  0.11437690684E+04  0.00000000000E+00 0. -1.
         21    1    1    2  503  505 -0.10548989094E+03  0.62211557941E+02 -0.41734969212E+03  0.43494730778E+03  0.00000000000E+00 0. -1.
         21    1    1    2  504  501  0.40282372554E+02  0.23068375175E+01  0.18729507344E+03  0.19159184631E+03  0.00000000000E+00 0.  1.
         21    1    1    2  505  504  0.44717475007E+02 -0.24008761171E+02  0.32539154002E+01  0.50859228754E+02  0.00000000000E+00 0.  1.
         21    1    1    2  506  502  0.20490043379E+02 -0.40509634288E+02 -0.69092463484E+03  0.69241441592E+03  0.00000000000E+00 0. -1.
<scales pt_clust_3="14000.00000" pt_clust_4="40.34837" pt_clust_5="82.75694" pt_clust_6="45.73117"></scales>
<clustering>
<clus scale="   40.348">  1  4  2 -1</clus>
<clus scale="   45.731">  2  6  1 -1</clus>
<clus scale="   82.757">  1  5  2 -1</clus>
<clus scale="   40.348">  1  3  2 -1</clus>
</clustering>
</event>
<event>
 6    0  0.3042851E+002  0.1059089E+03  0.7546771E-02  0.1268339E+00
         21   -1    0    0  503  501  0.00000000000E+00  0.00000000000E+00  0.15141699400E+04  0.15141699400E+04  0.00000000000E+00 0. -1.
         21   -1    0    0  506  502 -0.00000000000E+00 -0.00000000000E+00 -0.86838924682E+02  0.86838924682E+02  0.00000000000E+00 0.  1.
         21    1    1    2  503  504  0.48582293194E+02  0.99851412924E+00  0.35586155479E+03  0.35916386570E+03  0.00000000000E+00 0. -1.
         21    1    1    2  504  502  0.64515918758E+02 -0.16557954423E+02  0.50964960547E+02  0.83868330324E+02  0.00000000000E+00 0. -1.
         21    1    1    2  505  501 -0.99084819300E+02 -0.92760601398E+02  0.10384560334E+04  0.10472885294E+04  0.00000000000E+00 0. -1.
         21    1    1    2  506  505 -0.14013392652E+02  0.10832004169E+03 -0.17951533447E+02  0.11068813920E+03  0.00000000000E+00 0.  1.
<scales pt_clust_3="48.59255" pt_clust_4="69.33929" pt_clust_5="105.90893" pt_clust_6="14000.00000"></scales>
<clustering>
<clus scale="   48.593">  1  3  2 -1</clus>
<clus scale="   69.339">  2  4  1 -1</clus>
<clus scale="  105.909">  1  5  2 -1</clus>
<clus scale="   48.593">  1  3  2 -1</clus>
</clustering>
</event>
<event>
 6    0  0.3042851E+002  0.1473086E+03  0.7546771E-02  0.1203820E+00
         21   -1    0    0  503  501  0.00000000000E+00  0.00000000000E+00  0.29973566783E+03  0.29973566783E+03  0.00000000000E+00 0. -1.
         21   -1    0    0  505  502 -0.00000000000E+00 -0.00000000000E+00 -0.16892421211E+03  0.16892421211E+03  0.00000000000E+00 0. -1.
         21    1    1    2  503  506  0.14909202253E+02 -0.49333021189E+02  0.28955483699E+02  0.59113884390E+02  0.00000000000E+00 0.  1.
         21    1    1    2  504  501  0.13242877398E+03 -0.13112485067E+02  0.16606457077E+03  0.21280685869E+03  0.00000000000E+00 0. -1.
         21    1    1    2  505  504 -0.51112867586E+01  0.41613569536E+02 -0.99124748810E+01  0.43082149205E+02  0.00000000000E+00 0.  1.
         21    1    1    2  506  502 -0.14222668947E+03  0.20831936720E+02 -0.54296123876E+02  0.15365698765E+03  0.00000000000E+00 0. -1.
<scales pt_clust_3="47.16884" pt_clust_4="14000.00000" pt_clust_5="41.92630" pt_clust_6="147.30864"></scales>
<clustering>
<clus scale="   41.926">  2  5  1 -1</clus>
<clus scale="   47.169">  1  3  2 -1</clus>
<clus scale="  147.309">  2  6  1 -1</clus>
<clus scale="   47.169">  1  3  2 -1</clus>
</clustering>
</event>
<event>
 6    0  0.3042851E+002  0.1100131E+03  0.7546771E-02  0.1260546E+00
         21   -1    0    0  504  501  0.00000000000E+00  0.00000000000E+00  0.69704837599E+02  0.69704837599E+02  0.00000000000E+00 0. -1.
         21   -1    0    0  503  502 -0.00000000000E+00 -0.00000000000E+00 -0.50197633968E+03  0.50197633968E+03  0.00000000000E+00 0. -1.
         21    1    1    2  503  505  0.49171460168E+02  0.88458792859E+02 -0.55728258868E+02  0.11553540308E+03  0.00000000000E+00 0. -1.
         21    1    1    2  504  506  0.71203459822E+01 -0.33556870106E+02 -0.28683930915E+02  0.44716112879E+02  0.00000000000E+00 0. -1.
         21    1    1    2  505  501 -0.37368729619E+01  0.44714707280E+02  0.95666765746E+00  0.44880780738E+02  0.00000000000E+00 0. -1.
         21    1    1    2  506  502 -0.52554933188E+02 -0.99616630032E+02 -0.34881597996E+03  0.36654888058E+03  0.00000000000E+00 0. -1.
<scales pt_clust_3="14000.00000" pt_clust_4="34.30398" pt_clust_5="32.26606" pt_clust_6="110.01311"></scales>
<clustering>
<clus scale="   34.304">  1  4  2 -1</clus>
<clus scale="   32.266">  1  5  2 -1</clus>
<clus scale="  110.013">  2  6  1 -1</clus>
<clus scale="   34.304">  1  3  2 -1</clus>
</clustering>
</event>
<event>
 6    0  0.3042851E+002  0.2705079E+03  0.7546771E-02  0.1100989E+00
         21   -1    0    0  502  501  0.00000000000E+00  0.00000000000E+00  0.19323104563E+03  0.19323104563E+03  0.00000000000E+00 0. -1.
         21   -1    0    0  504  502 -0.00000000000E+00 -0.00000000000E+00 -0.32259561415E+03  0.32259561415E+03  0.00000000000E+00 0.  1.
         21    1    1    2  503  501  0.11934763854E+03  0.19263915760E+03 -0.34822122320E+02  0.22927338282E+03  0.00000000000E+00 0. -1.
         21    1    1    2  504  505  0.26892244469E+02 -0.35789904850E+02 -0.95510746077E+01  0.45774808879E+02  0.00000000000E+00 0.  1.
         21    1    1    2  505  506 -0.17110201316E+02 -0.57990761000E+02 -0.84858380555E+01  0.61054867111E+02  0.00000000000E+00 0.  1.
         21    1    1    2  506  503 -0.12912968169E+03 -0.98858491754E+02 -0.76505533542E+02  0.17972360097E+03  0.00000000000E+00 0.  1.
<scales pt_clust_3="226.61356" pt_clust_4="40.33000" pt_clust_5="96.28049" pt_clust_6="96.28049"></scales>
<clustering>
<clus scale="   40.330">  4  5 -1 -1</clus>
<clus scale="   96.280">  4  6 -1 -1</clus>
<clus scale="  226.614">  1  3  2 -1</clus>
<clus scale="  226.614">  1  3  2 -1</clus>
</clustering>
</event>
<event>
 6    0  0.3042851E+002  0.9838308E+02  0.7546771E-02  0.1283733E+00
         21   -1    0    0  504  501  0.00000000000E+00  0.00000000000E+00  0.73321888228E+03  0.73321888228E+03  0.00000000000E+00 0.  1.
         21   -1    0    0  501  502 -0.00000000000E+00 -0.00000000000E+00 -0.85724877579E+02  0.85724877579E+02  0.00000000000E+00 0. -1.
         21    1    1    2  503  506  0.32813601033E+02  0.21252296168E+02 -0.16468461422E+02  0.42421724703E+02  0.00000000000E+00 0.  1.
         21    1    1    2  504  505  0.29847067590E+02 -0.10420541337E+03  0.59017944297E+03  0.60005115659E+03  0.00000000000E+00 0.  1.
         21    1    1    2  505  503 -0.62022603961E+02  0.52459899327E+02  0.10504824790E+03  0.13279299238E+03  0.00000000000E+00 0.  1.
         21    1    1    2  506  502 -0.63806466161E+00  0.30493217878E+02 -0.31265224745E+02  0.43677886183E+02  0.00000000000E+00 0. -1.
<scales pt_clust_3="51.38227" pt_clust_4="14000.00000" pt_clust_5="98.38308" pt_clust_6="30.49989"></scales>
<clustering>
<clus scale="   30.500">  2  6  1 -1</clus>
<clus scale="   51.382">  2  3  1 -1</clus>
<clus scale="   98.383">  2  5  1 -1</clus>
<clus scale="   98.383">  1  3  2 -1</clus>
</clustering>
</event>
<event>
 6    0  0.3042851E+002  0.1382751E+03  0.7546771E-02  0.1215669E+00
         21   -1    0    0  505  501  0.00000000000E+00  0.00000000000E+00  0.10638218598E+04  0.10638218598E+04  0.00000000000E+00 0.  1.
         21   -1    0    0  506  502 -0.00000000000E+00 -0.00000000000E+00 -0.13230816509E+04  0.13230816509E+04  0.00000000000E+00 0.  1.
         21    1    1    2  503  502  0.58781373387E+02 -0.72444530610E+02 -0.91141583535E+03  0.91617808575E+03  0.00000000000E+00 0.  1.
         21    1    1    2  504  503  0.43829245040E+02  0.45322350833E+01 -0.35815561950E+03  0.36085591536E+03  0.00000000000E+00 0.  1.
         21    1    1    2  505  504 -0.21439542509E+03  0.11678874019E+03  0.93532719822E+03  0.96666538982E+03  0.00000000000E+00 0.  1.
         21    1    1    2  506  501  0.11178480666E+03 -0.48876444665E+02  0.74984465520E+02  0.14320411975E+03  0.00000000000E+00 0.  1.
<scales pt_clust_3="42.71537" pt_clust_4="42.71537" pt_clust_5="123.51861" pt_clust_6="122.00307"></scales>
<clustering>
<clus scale="   42.715">  3  4 -1 -1</clus>
<clus scale="  122.003">  1  6  2 -1</clus>
<clus scale="  123.519">  1  5  2 -1</clus>
<clus scale="  122.003">  1  3  2 -1</clus>
</clustering>
</event>
<event>
 6    0  0.3042851E+002  0.2196725E+03  0.7546771E-02  0.1134127E+00
         21   -1    0    0  505  501  0.00000000000E+00  0.00000000000E+00  0.24112805169E+03  0.24112805169E+03  0.00000000000E+00 0.  1.
         21   -1    0    0  504  502 -0.00000000000E+00 -0.00000000000E+00 -0.19674402938E+03  0.19674402938E+03  0.00000000000E+00 0.  1.
         21    1    1    2  503  501  0.94209587222E+01  0.45436555120E+02  0.35280636429E+02  0.58292008983E+02  0.00000000000E+00 0.  1.
         21    1    1    2  504  503  0.48959959867E+02  0.15028339464E+03 -0.14101596967E+02  0.15868532197E+03  0.00000000000E+00 0.  1.
         21    1    1    2  505  506 -0.58989543774E+02 -0.15597031935E+03 -0.12821278661E+02  0.16724500584E+03  0.00000000000E+00 0.  1.
         21    1    1    2  506  502  0.60862518443E+00 -0.39749630406E+02  0.36026261511E+02  0.53649744272E+02  0.00000000000E+00 0.  1.
<scales pt_clust_3="37.99009" pt_clust_4="215.94122" pt_clust_5="39.49030" pt_clust_6="39.49030"></scales>
<clustering>
<clus scale="   37.990">  3  4 -1 -1</clus>
<clus scale="   39.490">  5  6 -1 -1</clus>
<clus scale="  215.941">  2  3  1 -1</clus>
<clus scale="  219.673">  1  3  2 -1</clus>
</clustering>
</event>
<event>
 6    0  0.3042851E+002  0.2482728E+03  0.7546771E-02  0.1114401E+00
         21   -1    0    0  503  501  0.00000000000E+00  0.00000000000E+00  0.17017291430E+04  0.17017291430E+04  0.00000000000E+00 0. -1.
         21   -1    0    0  504  502 -0.00000000000E+00 -0.00000000000E+00 -0.98760167959E+03  0.98760167959E+03  0.00000000000E+00 0. -1.
         21    1    1    2  503  505  0.64125824279E+02 -0.38296097034E+02  0.13581259944E+04  0.13601782711E+04  0.00000000000E+00 0. -1.
         21    1    1    2  504  506 -0.13894466605E+03  0.37584529105E+02 -0.70431119650E+03  0.71886888830E+03  0.00000000000E+00 0. -1.
         21    1    1    2  505  502  0.15232692480E+03 -0.56411879922E+02  0.30597887014E+03  0.34642295130E+03  0.00000000000E+00 0. -1.
         21    1    1    2  506  501 -0.77508083032E+02  0.57123447851E+02 -0.24566620460E+03  0.26386071196E+03  0.00000000000E+00 0. -1.
<scales pt_clust_3="74.69078" pt_clust_4="70.73117" pt_clust_5="232.72379" pt_clust_6="70.73117"></scales>
<clustering>
<clus scale="   70.731">  4  6 -1 -1</clus>
<clus scale="   74.691">  1  3  2 -1</clus>
<clus scale="  232.724">  1  5  2 -1</clus>
<clus scale="   74.691">  1  3  2 -1</clus>
</clustering>
</event>
<event>
 6    0  0.3042851E+002  0.1020337E+03  0.7546771E-02  0.1276077E+00
         21   -1    0    0  505  501  0.00000000000E+00  0.00000000000E+00  0.12452376768E+04  0.12452376768E+04  0.00000000000E+00 0. -1.
         21   -1    0    0  503  502 -0.00000000000E+00 -0.00000000000E+00 -0.80451143406E+02  0.80451143406E+02  0.00000000000E+00 0. -1.
         21    1    1    2  503  504  0.29879043722E+02 -0.48868562775E+02 -0.38069308232E+02  0.68776201631E+02  0.00000000000E+00 0. -1.
         21    1    1    2  504  501 -0.37461786701E+02  0.50331399418E+02  0.79618379261E+03  0.79865215635E+03  0.00000000000E+00 0. -1.
         21    1    1    2  505  506 -0.51814072572E+02  0.54424302640E+02  0.35233967727E+03  0.36026372425E+03  0.00000000000E+00 0. -1.
         21    1    1    2  506  502  0.59396815551E+02 -0.55887139283E+02  0.54332371765E+02  0.97996737989E+02  0.00000000000E+00 0. -1.
<scales pt_clust_3="57.27909" pt_clust_4="60.13842" pt_clust_5="14000.00000" pt_clust_6="102.03368"></scales>
<clustering>
<clus scale="   57.279">  2  3  1 -1</clus>
<clus scale="   60.138">  1  4  2 -1</clus>
<clus scale="  102.034">  2  6  1 -1</clus>
<clus scale="   60.138">  1  3  2 -1</clus>
</clustering>
</event>
<event>
 6    0  0.3042851E+002  0.1749268E+03  0.7546771E-02  0.1172805E+00
         21   -1    0    0  506  501  0.00000000000E+00  0.00000000000E+00  0.48376506103E+02  0.48376506103E+02  0.00000000000E+00 0. -1.
         21   -1    0    0  504  502 -0.00000000000E+00 -0.00000000000E+00 -0.19248058176E+04  0.19248058176E+04  0.00000000000E+00 0.  1.
         21    1    1    2  503  502  0.46089730894E+02 -0.63724052828E+02 -0.79232376840E+02  0.11163685656E+03  0.00000000000E+00 0.  1.
         21    1    1    2  504  505 -0.54528413392E+02  0.11473539182E+03 -0.13915895755E+04  0.13973757922E+04  0.00000000000E+00 0.  1.
         21    1    1    2  505  501  0.21087624523E+02  0.40775048485E+02 -0.35623819403E+03  0.35918371813E+03  0.00000000000E+00 0. -1.
         21    1    1    2  506  503 -0.12648942025E+02 -0.91786387480E+02 -0.49369165131E+02  0.10498595681E+03  0.00000000000E+00 0. -1.
<scales pt_clust_3="65.69948" pt_clust_4="43.75343" pt_clust_5="43.75343" pt_clust_6="174.31892"></scales>
<clustering>
<clus scale="   43.753">  4  5 -1 -1</clus>
<clus scale="   65.699">  3  6 -1 -1</clus>
<clus scale="  174.319">  1  3  2 -1</clus>
<clus scale="  174.319">  1  3  2 -1</clus>
</clustering>
</event>
<event>
 6    0  0.3042851E+002  0.1091202E+03  0.7546771E-02  0.1262208E+00
         21   -1    0    0  504  501  0.00000000000E+00  0.00000000000E+00  0.21761408947E+04  0.21761408947E+04  0.00000000000E+00 0.  1.
         21   -1    0    0  503  502 -0.00000000000E+00 -0.00000000000E+00 -0.60625756803E+02  0.60625756803E+02  0.00000000000E+00 0.  1.
         21    1    1    2  503  501 -0.33237726047E+02 -0.44854019941E+02  0.76807197923E+03  0.77009817219E+03  0.00000000000E+00 0.  1.
         21    1    1    2  504  505 -0.79164215652E+02  0.32080165604E+02  0.12957722242E+04  0.12985845244E+04  0.00000000000E+00 0.  1.
         21    1    1    2  505  506  0.97698750343E+02  0.52120926026E+02  0.58961361150E+02  0.12545150002E+03  0.00000000000E+00 0.  1.
         21    1    1    2  506  502  0.14703191355E+02 -0.39347071689E+02 -0.72904266841E+01  0.42632454864E+02  0.00000000000E+00 0.  1.
<scales pt_clust_3="56.48501" pt_clust_4="14000.00000" pt_clust_5="109.12021" pt_clust_6="42.00447"></scales>
<clustering>
<clus scale="   42.004">  2  6  1 -1</clus>
<clus scale="   56.485">  1  3  2 -1</clus>
<clus scale="  109.120">  2  5  1 -1</clus>
<clus scale="   56.485">  1  3  2 -1</clus>
</clustering>
</event>
<event>
 6    0  0.3042851E+002  0.2173776E+03  0.7546771E-02  0.1135853E+00
         21   -1    0    0  503  501  0.00000000000E+00  0.00000000000E+00  0.83799860509E+03  0.83799860509E+03  0.00000000000E+00 0. -1.
         21   -1    0    0  506  502 -0.00000000000E+00 -0.00000000000E+00 -0.21874648019E+03  0.21874648019E+03  0.00000000000E+00 0. -1.
         21    1    1    2  503  502  0.22232389062E+03 -0.19474857036E+02  0.70873180923E+03  0.74303967580E+03  0.00000000000E+00 0. -1.
         21    1    1    2  504  505 -0.58174439832E+02 -0.50009728505E+01 -0.41080132545E+02  0.71392243760E+02  0.00000000000E+00 0. -1.
         21    1    1    2  505  501 -0.51690952880E+02  0.63003679680E+01 -0.10343064409E+03  0.11579960010E+03  0.00000000000E+00 0. -1.
         21    1    1    2  506  504 -0.11245849790E+03  0.18175461919E+02  0.55031092307E+02  0.12651356563E+03  0.00000000000E+00 0. -1.
<scales pt_clust_3="212.52694" pt_clust_4="43.12510" pt_clust_5="43.12510" pt_clust_6="113.91778"></scales>
<clustering>
<clus scale="   43.125">  4  5 -1 -1</clus>
<clus scale="  113.918">  2  6  1 -1</clus>
<clus scale="  212.527">  1  3  2 -1</clus>
<clus scale="  212.527">  1  3  2 -1</clus>
</clustering>
</event>
<event>
 6    0  0.3042851E+002  0.1590983E+03  0.7546771E-02  0.1189719E+00
         21   -1    0    0  503  501  0.00000000000E+00  0.00000000000E+00  0.28278121822E+04  0.28278121822E+04  0.00000000000E+00 0.  1.
         21   -1    0    0  505  502 -0.00000000000E+00 -0.00000000000E+00 -0.80523229069E+03  0.80523229069E+03  0.00000000000E+00 0.  1.
         21    1    1    2  503  506  0.10374648623E+02  0.42576151220E+02  0.32179831135E+03  0.32476840237E+03  0.00000000000E+00 0.  1.
         21    1    1    2  504  501 -0.11661322904E+03  0.76069317111E+02  0.24817764202E+04  0.24856788582E+04  0.00000000000E+00 0.  1.
         21    1    1    2  505  504  0.16198663797E+03 -0.77908973559E+02 -0.65154251733E+03  0.67588248308E+03  0.00000000000E+00 0.  1.
         21    1    1    2  506  502 -0.55748057551E+02 -0.40736494772E+02 -0.12945232271E+03  0.14671472926E+03  0.00000000000E+00 0.  1.
<scales pt_clust_3="43.82193" pt_clust_4="14000.00000" pt_clust_5="159.09826" pt_clust_6="68.93033"></scales>
<clustering>
<clus scale="   43.822">  1  3  2 -1</clus>
<clus scale="   68.930">  2  6  1 -1</clus>
<clus scale="  159.098">  2  5  1 -1</clus>
<clus scale="   43.822">  1  3  2 -1</clus>
</clustering>
</event>
<event>
 6    0  0.3042851E+002  0.1610551E+03  0.7546771E-02  0.1187511E+00
         21   -1    0    0  502  501  0.00000000000E+00  0.00000000000E+00  0.33981726089E+03  0.33981726089E+03  0.00000000000E+00 0.  1.
         21   -1    0    0  505  502 -0.00000000000E+00 -0.00000000000E+00 -0.10301979577E+03  0.10301979577E+03  0.00000000000E+00 0.  1.
         21    1    1    2  503  504  0.33363821929E+02  0.72299069282E+02  0.56405400042E+02  0.97580065519E+02  0.00000000000E+00 0.  1.
         21    1    1    2  504  506  0.16819544109E+02  0.89918192496E+02  0.10994091850E+03  0.14302162063E+03  0.00000000000E+00 0.  1.
         21    1    1    2  505  503 -0.20050090053E+02 -0.14987722403E+03  0.37252981203E+02  0.15573366047E+03  0.00000000000E+00 0.  1.
         21    1    1    2  506  501 -0.30133275986E+02 -0.12340037749E+02  0.33198165375E+02  0.46501710049E+02  0.00000000000E+00 0.  1.
<scales pt_clust_3="34.70176" pt_clust_4="34.70176" pt_clust_5="156.69554" pt_clust_6="32.56211"></scales>
<clustering>
<clus scale="   32.562">  1  6  2 -1</clus>
<clus scale="   34.702">  3  4 -1 -1</clus>
<clus scale="  156.696">  2  5  1 -1</clus>
<clus scale="   32.562">  1  3  2 -1</clus>
</clustering>
</event>
<event>
 6    0  0.3042851E+002  0.1313813E+03  0.7546771E-02  0.1225420E+00
         21   -1    0    0  503  501  0.00000000000E+00  0.00000000000E+00  0.13062374485E+03  0.13062374485E+03  0.00000000000E+00 0.  1.
         21   -1    0    0  506  502 -0.00000000000E+00 -0.00000000000E+00 -0.13136008341E+03  0.13136008341E+03  0.00000000000E+00 0.  1.
         21    1    1    2  503  504 -0.46066848899E+02 -0.37498493851E+01  0.24456740523E+02  0.52290994396E+02  0.00000000000E+00 0.  1.
         21    1    1    2  504  502 -0.76322374182E+02  0.84557468263E+01 -0.87205241059E+01  0.77282934700E+02  0.00000000000E+00 0.  1.
         21    1    1    2  505  501  0.60393444097E+02 -0.25285438478E+02 -0.19998380552E+01  0.65503594108E+02  0.00000000000E+00 0.  1.
         21    1    1    2  506  505  0.61995778985E+02  0.20579541037E+02 -0.14472716927E+02  0.66906305058E+02  0.00000000000E+00 0.  1.
<scales pt_clust_3="30.45038" pt_clust_4="128.61483" pt_clust_5="47.48224" pt_clust_6="47.48224"></scales>
<clustering>
<clus scale="   30.450">  3  4 -1 -1</clus>
<clus scale="   47.482">  5  6 -1 -1</clus>
<clus scale="  128.615">  1  3  2 -1</clus>
<clus scale="  128.615">  1  3  2 -1</clus>
</clustering>
</event>
<event>
 6    0  0.3042851E+002  0.6982147E+02  0.7546771E-02  0.1360701E+00
         21   -1    0    0  504  501  0.00000000000E+00  0.00000000000E+00  0.16085241557E+04  0.16085241557E+04  0.00000000000E+00 0. -1.
         21   -1    0    0  505  502 -0.00000000000E+00 -0.00000000000E+00 -0.21671214599E+02  0.21671214599E+02  0.00000000000E+00 0. -1.
         21    1    1    2  503  501  0.19581764138E+02  0.39635252498E+02  0.54749514620E+03  0.54927710115E+03  0.00000000000E+00 0. -1.
         21    1    1    2  504  502  0.61141230309E+02 -0.95308058177E+02  0.24404550129E+03  0.26903546736E+03  0.00000000000E+00 0. -1.
         21    1    1    2  505  506 -0.35828634602E+02  0.40105452189E+02  0.89086508862E+02  0.10406029221E+03  0.00000000000E+00 0. -1.
         21    1    1    2  506  503 -0.44894359846E+02  0.15567353490E+02  0.70622578471E+03  0.70782250956E+03  0.00000000000E+00 0. -1.
<scales pt_clust_3="44.20858" pt_clust_4="14000.00000" pt_clust_5="69.82147" pt_clust_6="52.70227"></scales>
<clustering>
<clus scale="   44.209">  1  3  2 -1</clus>
<clus scale="   52.702">  1  6  2 -1</clus>
<clus scale="   69.821">  2  5  1 -1</clus>
<clus scale="   44.209">  1  3  2 -1</clus>
</clustering>
</event>
<event>
 6    0  0.3042851E+002  0.2039660E+03  0.7546771E-02  0.1146435E+00
         21   -1    0    0  504  501  0.00000000000E+00  0.00000000000E+00  0.52672966468E+02  0.52672966468E+02  0.00000000000E+00 0. -1.
         21   -1    0    0  506  502 -0.00000000000E+00 -0.00000000000E+00 -0.17740051999E+04  0.17740051999E+04  0.00000000000E+00 0. -1.
         21    1    1    2  503  501 -0.12998987128E+03 -0.28575897843E+02 -0.13521559089E+03  0.18972929292E+03  0.00000000000E+00 0. -1.
         21    1    1    2  504  502  0.84690386009E+02  0.82588452680E+02 -0.39427845547E+03  0.41164160922E+03  0.00000000000E+00 0. -1.
         21    1    1    2  505  503 -0.84721037917E+02  0.13809072129E+02 -0.14699358562E+03  0.17022179342E+03  0.00000000000E+00 0.  1.
         21    1    1    2  506  505  0.13002052319E+03 -0.67821626966E+02 -0.10448446014E+04  0.10550854708E+04  0.00000000000E+00 0. -1.
<scales pt_clust_3="48.21164" pt_clust_4="118.29334" pt_clust_5="48.21164" pt_clust_6="194.93125"></scales>
<clustering>
<clus scale="   48.212">  3  5 -1 -1</clus>
<clus scale="  118.293">  2  4  1 -1</clus>
<clus scale="  194.931">  2  6  1 -1</clus>
<clus scale="  203.966">  1  3  2 -1</clus>
</clustering>
</event>
<event>
 6    0  0.3042851E+002  0.1209300E+03  0.7546771E-02  0.1241571E+00
         21   -1    0    0  503  501  0.00000000000E+00  0.00000000000E+00  0.14732225090E+03  0.14732225090E+03  0.00000000000E+00 0.  1.
         21   -1    0    0  506  502 -0.00000000000E+00 -0.00000000000E+00 -0.29147056795E+03  0.29147056795E+03  0.00000000000E+00 0.  1.
         21    1    1    2  503  502  0.50801783921E+02 -0.43619146342E+02 -0.30127945792E+01  0.67026323996E+02  0.00000000000E+00 0.  1.
         21    1    1    2  504  505 -0.61517945217E+02  0.18461169996E+01 -0.11849493053E+03  0.13352495757E+03  0.00000000000E+00 0.  1.
         21    1    1    2  505  501  0.68416154273E+02  0.63019992559E+01  0.86087215932E+02  0.11014306200E+03  0.00000000000E+00 0.  1.
         21    1    1    2  506  504 -0.57699992977E+02  0.35471030087E+02 -0.10872780787E+03  0.12809847528E+03  0.00000000000E+00 0.  1.
<scales pt_clust_3="66.95858" pt_clust_4="33.17463" pt_clust_5="115.81404" pt_clust_6="33.17463"></scales>
<clustering>
<clus scale="   33.175">  4  6 -1 -1</clus>
<clus scale="   66.959">  1  3  2 -1</clus>
<clus scale="  115.814">  1  5  2 -1</clus>
<clus scale="   66.959">  1  3  2 -1</clus>
</clustering>
</event>
<event>
 6    0  0.3042851E+002  0.1352487E+03  0.7546771E-02  0.1219869E+00
         21   -1    0    0  505  501  0.00000000000E+00  0.00000000000E+00  0.42701387459E+03  0.42701387459E+03  0.00000000000E+00 0.  1.
         21   -1    0    0  506  502 -0.00000000000E+00 -0.00000000000E+00 -0.51857194029E+03  0.51857194029E+03  0.00000000000E+00 0. -1.
         21    1    1    2  503  504  0.92237188258E+02 -0.12178882489E+02 -0.14506710151E+03  0.17233829527E+03  0.00000000000E+00 0. -1.
         21    1    1    2  504  502  0.42456674412E+02 -0.31043221113E+02 -0.34056318300E+03  0.34460054033E+03  0.00000000000E+00 0. -1.
         21    1    1    2  505  503 -0.24418290412E+02 -0.24648067891E+02  0.48671358653E+02  0.59771910715E+02  0.00000000000E+00 0.  1.
         21    1    1    2  506  501 -0.11027557226E+03  0.67870171493E+02  0.34540086016E+03  0.36887506857E+03  0.00000000000E+00 0.  1.
<scales pt_clust_3="14000.00000" pt_clust_4="52.56753" pt_clust_5="34.69554" pt_clust_6="135.24872"></scales>
<clustering>
<clus scale="   34.696">  1  5  2 -1</clus>
<clus scale="   52.568">  2  4  1 -1</clus>
<clus scale="  135.249">  1  6  2 -1</clus>
<clus scale="   34.696">  1  3  2 -1</clus>
</clustering>
</event>
<event>
 6    0  0.3042851E+002  0.1481684E+03  0.7546771E-02  0.1202742E+00
         21   -1    0    0  504  501  0.00000000000E+00  0.00000000000E+00  0.45400058435E+03  0.45400058435E+03  0.00000000000E+00 0. -1.
         21   -1    0    0  501  502 -0.00000000000E+00 -0.00000000000E+00 -0.13493062222E+03  0.13493062222E+03  0.00000000000E+00 0. -1.
         21    1    1    2  503  502 -0.45130432203E+02  0.28893193310E+01 -0.37886500843E+02  0.58995686479E+02  0.00000000000E+00 0. -1.
         21    1    1    2  504  505 -0.31717406356E+02 -0.10466532747E+02  0.34012023371E+02  0.47669276348E+02  0.00000000000E+00 0. -1.
         21    1    1    2  505  506  0.14193119262E+03 -0.98704992303E+02  0.31258933065E+03  0.35721034221E+03  0.00000000000E+00 0. -1.
         21    1    1    2  506  503 -0.65083354066E+02  0.10628220572E+03  0.10355108950E+02  0.12505590154E+03  0.00000000000E+00 0. -1.
<scales pt_clust_3="46.01545" pt_clust_4="33.39973" pt_clust_5="148.16844" pt_clust_6="14000.00000"></scales>
<clustering>
<clus scale="   33.400">  1  4  2 -1</clus>
<clus scale="   46.015">  2  3  1 -1</clus>
<clus scale="  148.168">  1  5  2 -1</clus>
<clus scale="   33.400">  1  3  2 -1</clus>
</clustering>
</event>
<event>
 6    0  0.3042851E+002  0.1333965E+03  0.7546771E-02  0.1222501E+00
         21   -1    0    0  503  501  0.00000000000E+00  0.00000000000E+00  0.94464802229E+02  0.94464802229E+02  0.00000000000E+00 0.  1.
         21   -1    0    0  506  502 -0.00000000000E+00 -0.00000000000E+00 -0.56006604033E+03  0.56006604033E+03  0.00000000000E+00 0.  1.
         21    1    1    2  503  505  0.40313624473E+02  0.81803280829E+02  0.25286508217E+02  0.94638113730E+02  0.00000000000E+00 0.  1.
         21    1    1    2  504  502  0.20632482151E+02 -0.44127629520E+02 -0.10741855553E+03  0.11794784050E+03  0.00000000000E+00 0.  1.
         21    1    1    2  505  504  0.38521640129E+02  0.19790585530E+02 -0.17808648916E+01  0.43344613432E+02  0.00000000000E+00 0.  1.
         21    1    1    2  506  501 -0.99467746753E+02 -0.57466236838E+02 -0.38168832590E+03  0.39860027490E+03  0.00000000000E+00 0.  1.
<scales pt_clust_3="30.43374" pt_clust_4="48.71290" pt_clust_5="30.43374" pt_clust_6="125.87383"></scales>
<clustering>
<clus scale="   30.434">  3  5 -1 -1</clus>
<clus scale="   48.713">  2  4  1 -1</clus>
<clus scale="  125.874">  2  6  1 -1</clus>
<clus scale="  133.397">  1  3  2 -1</clus>
</clustering>
</event>
<event>
 6    0  0.3042851E+002  0.1840015E+03  0.7546771E-02  0.1163986E+00
         21   -1    0    0  505  501  0.00000000000E+00  0.00000000000E+00  0.36270448085E+03  0.36270448085E+03  0.00000000000E+00 0.  1.
         21   -1    0    0  503  502 -0.00000000000E+00 -0.00000000000E+00 -0.88677404181E+03  0.88677404181E+03  0.00000000000E+00 0. -1.
         21    1    1    2  503  504 -0.18899649254E+03  0.17776307859E+02 -0.72620715933E+03  0.75060809320E+03  0.00000000000E+00 0. -1.
         21    1    1    2  504  501 -0.32288671769E+01 -0.68215812771E+02  0.25338559390E+03  0.26242728877E+03  0.00000000000E+00 0.  1.
         21    1    1    2  505  506  0.34447914613E+02  0.57926737253E+02  0.77280601835E+01  0.67837221525E+02  0.00000000000E+00 0. -1.
         21    1    1    2  506  502  0.15777744510E+03 -0.74872323412E+01 -0.58976055720E+02  0.16860591917E+03  0.00000000000E+00 0. -1.
<scales pt_clust_3="14000.00000" pt_clust_4="32.80174" pt_clust_5="67.39559" pt_clust_6="184.00146"></scales>
<clustering>
<clus scale="   67.396">  1  5  2 -1</clus>
<clus scale="   32.802">  1  4  2 -1</clus>
<clus scale="  184.001">  1  6  2 -1</clus>
<clus scale="   67.396">  1  3  2 -1</clus>
</clustering>
</event>
<event>
 6    0  0.3042851E+002  0.2239772E+03  0.7546771E-02  0.1130952E+00
         21   -1    0    0  506  501  0.00000000000E+00  0.00000000000E+00  0.84965886769E+03  0.84965886769E+03  0.00000000000E+00 0.  1.
         21   -1    0    0  503  502 -0.00000000000E+00 -0.00000000000E+00 -0.88249676308E+03  0.88249676308E+03  0.00000000000E+00 0. -1.
         21    1    1    2  503  505  0.33094118494E+02 -0.23101564045E+02 -0.15739358143E+03  0.16248582220E+03  0.00000000000E+00 0.  1.
         21    1    1    2  504  501 -0.66520386772E+02 -0.81542236066E+02  0.55890307243E+03  0.56872378400E+03  0.00000000000E+00 0.  1.
         21    1    1    2  505  504  0.16677595721E+03  0.14106995403E+03 -0.68265578774E+03  0.71675231173E+03  0.00000000000E+00 0. -1.
         21    1    1    2  506  502 -0.13334968893E+03 -0.36426153918E+02  0.24830840136E+03  0.28419371283E+03  0.00000000000E+00 0.  1.
<scales pt_clust_3="40.35967" pt_clust_4="105.21338" pt_clust_5="14000.00000" pt_clust_6="223.97721"></scales>
<clustering>
<clus scale="   40.360">  2  3  1 -1</clus>
<clus scale="  105.213">  1  4  2 -1</clus>
<clus scale="  223.977">  1  6  2 -1</clus>
<clus scale="  105.213">  1  3  2 -1</clus>
</clustering>
</event>
<event>
 6    0  0.3042851E+002  0.3181897E+03  0.7546771E-02  0.1076485E+00
         21   -1    0    0  503  501  0.00000000000E+00  0.00000000000E+00  0.17501284280E+03  0.17501284280E+03  0.00000000000E+00 0. -1.
         21   -1    0    0  501  502 -0.00000000000E+00 -0.00000000000E+00 -0.57624385217E+03  0.57624385217E+03  0.00000000000E+00 0. -1.
         21    1    1    2  503  504  0.49284359539E+01  0.47396297918E+02 -0.65179785635E+01  0.48095556779E+02  0.00000000000E+00 0. -1.
         21    1    1    2  504  506  0.13520066863E+03  0.22582576921E+03 -0.19368013010E+03  0.32678508478E+03  0.00000000000E+00 0. -1.
         21    1    1    2  505  502 -0.10169181208E+03 -0.21939857693E+03 -0.19369676235E+03  0.30983123786E+03  0.00000000000E+00 0. -1.
         21    1    1    2  506  505 -0.38437292501E+02 -0.53823490198E+02 -0.73361383507E+01  0.66544815559E+02  0.00000000000E+00 0. -1.
<scales pt_clust_3="33.42159" pt_clust_4="316.94828" pt_clust_5="43.62476" pt_clust_6="43.62476"></scales>
<clustering>
<clus scale="   33.422">  3  4 -1 -1</clus>
<clus scale="   43.625">  5  6 -1 -1</clus>
<clus scale="  316.948">  1  3  2 -1</clus>
<clus scale="  316.948">  1  3  2 -1</clus>
</clustering>
</event>
<event>
 6    0  0.3042851E+002  0.9442389E+02  0.7546771E-02  0.1292479E+00
         21   -1    0    0  506  501  0.00000000000E+00  0.00000000000E+00  0.20593907255E+03  0.20593907255E+03  0.00000000000E+00 0.  1.
         21   -1    0    0  504  502 -0.00000000000E+00 -0.00000000000E+00 -0.12483314421E+03  0.12483314421E+03  0.00000000000E+00 0.  1.
         21    1    1    2  503  501 -0.65558295556E+02 -0.88361184554E+02  0.79339703741E+00  0.11002826242E+03  0.00000000000E+00 0.  1.
         21    1    1    2  504  503 -0.37658561618E+02  0.10741656904E+02 -0.11904190198E+02  0.40929942591E+02  0.00000000000E+00 0.  1.
         21    1    1    2  505  502  0.81795577671E+02  0.34655452367E+02  0.16793017312E+02  0.90407534729E+02  0.00000000000E+00 0.  1.
         21    1    1    2  506  505  0.21421279503E+02  0.42964075282E+02  0.75423704191E+02  0.89406477026E+02  0.00000000000E+00 0.  1.
<scales pt_clust_3="14000.00000" pt_clust_4="39.16057" pt_clust_5="94.42389" pt_clust_6="47.57603"></scales>
<clustering>
<clus scale="   39.161">  2  4  1 -1</clus>
<clus scale="   47.576">  1  6  2 -1</clus>
<clus scale="   94.424">  2  5  1 -1</clus>
<clus scale="   47.576">  1  3  2 -1</clus>
</clustering>
</event>
<event>
 6    0  0.3042851E+002  0.1710352E+03  0.7546771E-02  0.1176773E+00
         21   -1    0    0  506  501  0.00000000000E+00  0.00000000000E+00  0.11770160028E+04  0.11770160028E+04  0.00000000000E+00 0. -1.
         21   -1    0    0  505  502 -0.00000000000E+00 -0.00000000000E+00 -0.73074808346E+02  0.73074808346E+02  0.00000000000E+00 0. -1.
         21    1    1    2  503  501  0.41333508603E+02 -0.33873574151E+02  0.15571822900E+03  0.16463306108E+03  0.00000000000E+00 0. -1.
         21    1    1    2  504  503 -0.33687784124E+02  0.10221255948E+02  0.99455202239E+01  0.36582157466E+02  0.00000000000E+00 0.  1.
         21    1    1    2  505  504 -0.11201305344E+03 -0.80870647576E+02  0.47739803297E+02  0.14617138776E+03  0.00000000000E+00 0. -1.
         21    1    1    2  506  502  0.10436732896E+03  0.10452296578E+03  0.89053764196E+03  0.90270420487E+03  0.00000000000E+00 0. -1.
<scales pt_clust_3="53.44042" pt_clust_4="31.32643" pt_clust_5="31.32643" pt_clust_6="159.37956"></scales>
<clustering>
<clus scale="   31.326">  4  5 -1 -1</clus>
<clus scale="   53.440">  1  3  2 -1</clus>
<clus scale="  159.380">  1  6  2 -1</clus>
<clus scale="   53.440">  1  3  2 -1</clus>
</clustering>
</event>
<event>
 6    0  0.3042851E+002  0.1131884E+03  0.7546771E-02  0.1254777E+00
         21   -1    0    0  504  501  0.00000000000E+00  0.00000000000E+00  0.13468436693E+04  0.13468436693E+04  0.00000000000E+00 0. -1.
         21   -1    0    0  505  502 -0.00000000000E+00 -0.00000000000E+00 -0.45560256865E+03  0.45560256865E+03  0.00000000000E+00 0. -1.
         21    1    1    2  503  506  0.70731185061E+02 -0.17978895008E+02  0.95676058229E+03  0.95953996948E+03  0.00000000000E+00 0. -1.
         21    1    1    2  504  503  0.20560635140E+02 -0.31956698400E+02  0.33549058064E+03  0.33763575046E+03  0.00000000000E+00 0. -1.
         21    1    1    2  505  501 -0.15145627111E+03  0.44692240067E+02 -0.41435095476E+03  0.44342204736E+03  0.00000000000E+00 0. -1.
         21    1    1    2  506  502  0.60164450907E+02  0.52433533419E+01  0.13340892463E+02  0.61848470627E+02  0.00000000000E+00 0.  1.
<scales pt_clust_3="31.65128" pt_clust_4="31.65128" pt_clust_5="104.34364" pt_clust_6="60.39250"></scales>
<clustering>
<clus scale="   31.651">  3  4 -1 -1</clus>
<clus scale="   60.392">  2  6  1 -1</clus>
<clus scale="  104.344">  2  5  1 -1</clus>
<clus scale="  113.188">  1  3  2 -1</clus>
</clustering>
</event>
<event>
 6    0  0.3042851E+002  0.1033914E+03  0.7546771E-02  0.1273322E+00
         21   -1    0    0  506  501  0.00000000000E+00  0.00000000000E+00  0.59937805331E+02  0.59937805331E+02  0.00000000000E+00 0.  1.
         21   -1    0    0  505  502 -0.00000000000E+00 -0.00000000000E+00 -0.71618626124E+03  0.71618626124E+03  0.00000000000E+00 0. -1.
         21    1    1    2  503  501 -0.89415062573E+02  0.36652937338E+02 -0.51965134955E+02  0.10972176849E+03  0.00000000000E+00 0.  1.
         21    1    1    2  504  502  0.13023314518E+03 -0.28577242963E+02 -0.22404716775E+03  0.26071912913E+03  0.00000000000E+00 0. -1.
         21    1    1    2  505  503 -0.61014919716E+02 -0.35013960973E+02 -0.35910945245E+03  0.36593496243E+03  0.00000000000E+00 0.  1.
         21    1    1    2  506  504  0.20196837104E+02  0.26938266598E+02 -0.21126700760E+02  0.39748206517E+02  0.00000000000E+00 0.  1.
<scales pt_clust_3="14000.00000" pt_clust_4="103.39136" pt_clust_5="68.26892" pt_clust_6="33.66872"></scales>
<clustering>
<clus scale="   33.669">  1  6  2 -1</clus>
<clus scale="   68.269">  2  5  1 -1</clus>
<clus scale="  103.391">  2  4  1 -1</clus>
<clus scale="   33.669">  1  3  2 -1</clus>
</clustering>
</event>
<event>
 6    0  0.3042851E+002  0.1607572E+03  0.7546771E-02  0.1187844E+00
         21   -1    0    0  505  501  0.00000000000E+00  0.00000000000E+00  0.79727378257E+02  0.79727378257E+02  0.00000000000E+00 0.  1.
         21   -1    0    0  503  502 -0.00000000000E+00 -0.00000000000E+00 -0.63604551488E+03  0.63604551488E+03  0.00000000000E+00 0.  1.
         21    1    1    2  503  501  0.12560644365E+03 -0.39625310325E+02 -0.45628932352E+03  0.47491798309E+03  0.00000000000E+00 0.  1.
         21    1    1    2  504  506 -0.58479668535E+02  0.41408366030E+02 -0.49856086038E+02  0.87293491878E+02  0.00000000000E+00 0.  1.
         21    1    1    2  505  504 -0.72632914150E+02  0.30130615468E+02  0.15674156078E+02  0.80181502699E+02  0.00000000000E+00 0.  1.
         21    1    1    2  506  502  0.55061390381E+01 -0.31913671172E+02 -0.65846883142E+02  0.73379915470E+02  0.00000000000E+00 0.  1.
<scales pt_clust_3="145.84839" pt_clust_4="63.69708" pt_clust_5="63.69708" pt_clust_6="32.38518"></scales>
<clustering>
<clus scale="   32.385">  2  6  1 -1</clus>
<clus scale="   63.697">  4  5 -1 -1</clus>
<clus scale="  145.848">  2  3  1 -1</clus>
<clus scale="  160.757">  1  3  2 -1</clus>
</clustering>
</event>
<event>
 6    0  0.3042851E+002  0.1021055E+03  0.7546771E-02  0.1275930E+00
         21   -1    0    0  506  501  0.00000000000E+00  0.00000000000E+00  0.49721726417E+03  0.49721726417E+03  0.00000000000E+00 0. -1.
         21   -1    0    0  503  502 -0.00000000000E+00 -0.00000000000E+00 -0.12777872949E+03  0.12777872949E+03  0.00000000000E+00 0.  1.
         21    1    1    2  503  501  0.10712063510E+02  0.51978120807E+02  0.16651299326E+03  0.17476570107E+03  0.00000000000E+00 0.  1.
         21    1    1    2  504  502 -0.22450299106E+02 -0.10803959007E+03 -0.77453779401E+02  0.13481712390E+03  0.00000000000E+00 0.  1.
         21    1    1    2  505  504  0.45478848230E+02  0.41509270656E+02  0.42749313193E+02  0.74958981885E+02  0.00000000000E+00 0. -1.
         21    1    1    2  506  505 -0.33740612634E+02  0.14552198607E+02  0.23763000763E+03  0.24045418680E+03  0.00000000000E+00 0.  1.
<scales pt_clust_3="102.10550" pt_clust_4="14000.00000" pt_clust_5="58.62852" pt_clust_6="36.74501"></scales>
<clustering>
<clus scale="   36.745">  1  6  2 -1</clus>
<clus scale="   58.629">  1  5  2 -1</clus>
<clus scale="  102.105">  1  3  2 -1</clus>
<clus scale="   36.745">  1  3  2 -1</clus>
</clustering>
</event>
